 Entering Gaussian System, Link 0=g03
 Input=iC4H9O-3-freq.gjf
 Output=iC4H9O-3-freq.log
 Initial command:
 /opt/g03/l1.exe /scratch/shamel/Gau-8140.inp -scrdir=/scratch/shamel/
 Entering Link 1 = /opt/g03/l1.exe PID=      8142.
  
 Copyright (c) 1988,1990,1992,1993,1995,1998,2003,2004, Gaussian, Inc.
                  All Rights Reserved.
  
 This is the Gaussian(R) 03 program.  It is based on the
 the Gaussian(R) 98 system (copyright 1998, Gaussian, Inc.),
 the Gaussian(R) 94 system (copyright 1995, Gaussian, Inc.),
 the Gaussian 92(TM) system (copyright 1992, Gaussian, Inc.),
 the Gaussian 90(TM) system (copyright 1990, Gaussian, Inc.),
 the Gaussian 88(TM) system (copyright 1988, Gaussian, Inc.),
 the Gaussian 86(TM) system (copyright 1986, Carnegie Mellon
 University), and the Gaussian 82(TM) system (copyright 1983,
 Carnegie Mellon University). Gaussian is a federally registered
 trademark of Gaussian, Inc.
  
 This software contains proprietary and confidential information,
 including trade secrets, belonging to Gaussian, Inc.
  
 This software is provided under written license and may be
 used, copied, transmitted, or stored only in accord with that
 written license.
  
 The following legend is applicable only to US Government
 contracts under FAR:
  
                    RESTRICTED RIGHTS LEGEND
  
 Use, reproduction and disclosure by the US Government is
 subject to restrictions as set forth in subparagraphs (a)
 and (c) of the Commercial Computer Software - Restricted
 Rights clause in FAR 52.227-19.
  
 Gaussian, Inc.
 340 Quinnipiac St., Bldg. 40, Wallingford CT 06492
  
  
 ---------------------------------------------------------------
 Warning -- This program may not be used in any manner that
 competes with the business of Gaussian, Inc. or will provide
 assistance to any competitor of Gaussian, Inc.  The licensee
 of this program is prohibited from giving any competitor of
 Gaussian, Inc. access to this program.  By using this program,
 the user acknowledges that Gaussian, Inc. is engaged in the
 business of creating and licensing software in the field of
 computational chemistry and represents and warrants to the
 licensee that it is not a competitor of Gaussian, Inc. and that
 it will not use this program in any manner prohibited above.
 ---------------------------------------------------------------
  

 Cite this work as:
 Gaussian 03, Revision D.01,
 M. J. Frisch, G. W. Trucks, H. B. Schlegel, G. E. Scuseria, 
 M. A. Robb, J. R. Cheeseman, J. A. Montgomery, Jr., T. Vreven, 
 K. N. Kudin, J. C. Burant, J. M. Millam, S. S. Iyengar, J. Tomasi, 
 V. Barone, B. Mennucci, M. Cossi, G. Scalmani, N. Rega, 
 G. A. Petersson, H. Nakatsuji, M. Hada, M. Ehara, K. Toyota, 
 R. Fukuda, J. Hasegawa, M. Ishida, T. Nakajima, Y. Honda, O. Kitao, 
 H. Nakai, M. Klene, X. Li, J. E. Knox, H. P. Hratchian, J. B. Cross, 
 V. Bakken, C. Adamo, J. Jaramillo, R. Gomperts, R. E. Stratmann, 
 O. Yazyev, A. J. Austin, R. Cammi, C. Pomelli, J. W. Ochterski, 
 P. Y. Ayala, K. Morokuma, G. A. Voth, P. Salvador, J. J. Dannenberg, 
 V. G. Zakrzewski, S. Dapprich, A. D. Daniels, M. C. Strain, 
 O. Farkas, D. K. Malick, A. D. Rabuck, K. Raghavachari, 
 J. B. Foresman, J. V. Ortiz, Q. Cui, A. G. Baboul, S. Clifford, 
 J. Cioslowski, B. B. Stefanov, G. Liu, A. Liashenko, P. Piskorz, 
 I. Komaromi, R. L. Martin, D. J. Fox, T. Keith, M. A. Al-Laham, 
 C. Y. Peng, A. Nanayakkara, M. Challacombe, P. M. W. Gill, 
 B. Johnson, W. Chen, M. W. Wong, C. Gonzalez, and J. A. Pople, 
 Gaussian, Inc., Wallingford CT, 2004.
 
 ******************************************
 Gaussian 03:  AM64L-G03RevD.01 13-Oct-2005
                18-Jun-2013 
 ******************************************
 %chk=iC4H9O-3-freq.chk
 %mem=1000mb
 %nproc=8
 Will use up to    8 processors via shared memory.
 -------------------------------------
 # freq nosymm b3lyp/cbsb7 iop(7/33=1)
 -------------------------------------
 1/10=4,30=1,38=1/1,3;
 2/15=1,17=6,18=5,40=1/2;
 3/5=4,6=6,7=700,11=2,16=1,25=1,30=1,74=-5/1,2,3;
 4//1;
 5/5=2,38=5/2;
 8/6=4,10=90,11=11/1;
 11/6=1,8=1,9=11,15=111,16=1,31=1/1,2,10;
 10/6=1,31=1/2;
 6/7=2,8=2,9=2,10=2,18=1,28=1/1;
 7/8=1,10=1,25=1,30=1,33=1/1,2,3,16;
 1/10=4,30=1/3;
 99//99;
 -------------------
 Title Card Required
 -------------------
 Symbolic Z-matrix:
 Charge =  0 Multiplicity = 2
 C                    -0.71586  -0.7088   -0.15416 
 H                    -0.17909  -1.65061  -0.28574 
 H                    -0.47088  -0.06397  -1.00241 
 H                    -1.78916  -0.9135   -0.18382 
 C                    -0.3162   -0.04739   1.17156 
 H                    -0.80011   0.94484   1.2247 
 C                    -0.75275  -0.84072   2.36051 
 H                    -1.42228  -1.68688   2.26429 
 H                    -0.49911  -0.50954   3.3624 
 C                     1.20136   0.2402    1.22987 
 H                     1.49105   0.87391   0.3881 
 H                     1.43161   0.78753   2.15573 
 O                     1.99424  -0.93455   1.12194 
 H                     1.71853  -1.52828   1.82957 
 

 GradGradGradGradGradGradGradGradGradGradGradGradGradGradGradGradGradGrad
 Berny optimization.
 Initialization pass.
 Trust Radius=3.00D-01 FncErr=1.00D-07 GrdErr=1.00D-07
 Number of steps in this run=   2 maximum allowed number of steps=   2.
 GradGradGradGradGradGradGradGradGradGradGradGradGradGradGradGradGradGrad

                          Input orientation:                          
 ---------------------------------------------------------------------
 Center     Atomic     Atomic              Coordinates (Angstroms)
 Number     Number      Type              X           Y           Z
 ---------------------------------------------------------------------
    1          6             0       -0.715857   -0.708803   -0.154158
    2          1             0       -0.179089   -1.650607   -0.285738
    3          1             0       -0.470880   -0.063968   -1.002409
    4          1             0       -1.789162   -0.913499   -0.183815
    5          6             0       -0.316196   -0.047386    1.171559
    6          1             0       -0.800110    0.944841    1.224703
    7          6             0       -0.752747   -0.840719    2.360505
    8          1             0       -1.422282   -1.686881    2.264285
    9          1             0       -0.499110   -0.509543    3.362396
   10          6             0        1.201355    0.240198    1.229873
   11          1             0        1.491051    0.873912    0.388103
   12          1             0        1.431613    0.787531    2.155733
   13          8             0        1.994237   -0.934545    1.121944
   14          1             0        1.718529   -1.528277    1.829571
 ---------------------------------------------------------------------
                    Distance matrix (angstroms):
                    1          2          3          4          5
     1  C    0.000000
     2  H    1.091983   0.000000
     3  H    1.093323   1.765271   0.000000
     4  H    1.093052   1.773711   1.769086   0.000000
     5  C    1.534512   2.170905   2.179527   2.181013   0.000000
     6  H    2.154738   3.066504   2.467005   2.532898   1.105220
     7  C    2.518391   2.826235   3.462944   2.748275   1.494505
     8  H    2.702691   2.837157   3.769655   2.593437   2.259518
     9  H    3.528858   3.835795   4.387580   3.795132   2.246511
    10  C    2.547910   2.788879   2.805703   3.503245   1.545660
    11  H    2.769382   3.101068   2.581146   3.779117   2.174565
    12  H    3.490879   3.807842   3.783965   4.329016   2.172676
    13  O    3.003998   2.686570   3.368617   4.002444   2.475402
    14  H    3.245451   2.844372   3.867535   4.090913   2.601177
                    6          7          8          9         10
     6  H    0.000000
     7  C    2.116722   0.000000
     8  H    2.897204   1.083294   0.000000
     9  H    2.602992   1.085263   1.855861   0.000000
    10  C    2.121888   2.503043   3.415716   2.828665   0.000000
    11  H    2.440154   3.444555   4.308739   3.836810   1.092746
    12  H    2.423252   2.732134   3.778785   2.620330   1.099913
    13  O    3.369128   3.014757   3.680157   3.378910   1.421384
    14  H    3.581301   2.619510   3.174717   2.881891   1.937682
                   11         12         13         14
    11  H    0.000000
    12  H    1.770737   0.000000
    13  O    2.015499   2.085860   0.000000
    14  H    2.810710   2.356198   0.963986   0.000000
 Symmetry turned off by external request.
 Stoichiometry    C4H9O(2)
 Framework group  C1[X(C4H9O)]
 Deg. of freedom    36
 Full point group                 C1
 Rotational constants (GHZ):      6.4499029      4.0555857      3.2463323
 Standard basis: CBSB7 (5D, 7F)
 Integral buffers will be    131072 words long.
 Raffenetti 2 integral format.
 Two-electron integral symmetry is turned off.
   144 basis functions,   232 primitive gaussians,   149 cartesian basis functions
    21 alpha electrons       20 beta electrons
       nuclear repulsion energy       185.4437833493 Hartrees.
 NAtoms=   14 NActive=   14 NUniq=   14 SFac= 7.50D-01 NAtFMM=   80 NAOKFM=F Big=F
 One-electron integrals computed using PRISM.
 NBasis=   144 RedAO= T  NBF=   144
 NBsUse=   144 1.00D-06 NBFU=   144
 Harris functional with IExCor=  402 diagonalized for initial guess.
 ExpMin= 1.03D-01 ExpMax= 8.59D+03 ExpMxC= 1.30D+03 IAcc=1 IRadAn=         1 AccDes= 1.00D-06
 HarFok:  IExCor= 402 AccDes= 1.00D-06 IRadAn=         1 IDoV=1
 ScaDFX=  1.000000  1.000000  1.000000  1.000000
 <S**2> of initial guess= 0.7500
 Requested convergence on RMS density matrix=1.00D-08 within 128 cycles.
 Requested convergence on MAX density matrix=1.00D-06.
 Requested convergence on             energy=1.00D-06.
 No special actions if energy rises.
 Keep R1 and R2 integrals in memory in canonical form, NReq=   127613552.
 PrsmSu:  requested number of processors reduced to:   6 ShMem   1 Linda.
 Integral accuracy reduced to 1.0D-05 until final iterations.
 CalDSu:  requested number of processors reduced to:   5 ShMem   1 Linda.
 CalDSu:  requested number of processors reduced to:   5 ShMem   1 Linda.
 CalDSu:  requested number of processors reduced to:   5 ShMem   1 Linda.
 CalDSu:  requested number of processors reduced to:   5 ShMem   1 Linda.
 CalDSu:  requested number of processors reduced to:   5 ShMem   1 Linda.
 CalDSu:  requested number of processors reduced to:   5 ShMem   1 Linda.
 CalDSu:  requested number of processors reduced to:   5 ShMem   1 Linda.
 Initial convergence to 1.0D-05 achieved.  Increase integral accuracy.
 CalDSu:  requested number of processors reduced to:   5 ShMem   1 Linda.
 CalDSu:  requested number of processors reduced to:   5 ShMem   1 Linda.
 CalDSu:  requested number of processors reduced to:   5 ShMem   1 Linda.
 CalDSu:  requested number of processors reduced to:   5 ShMem   1 Linda.
 CalDSu:  requested number of processors reduced to:   5 ShMem   1 Linda.
 CalDSu:  requested number of processors reduced to:   5 ShMem   1 Linda.
 CalDSu:  requested number of processors reduced to:   5 ShMem   1 Linda.
 SCF Done:  E(UB+HF-LYP) =  -233.066312140     A.U. after   14 cycles
             Convg  =    0.9474D-08             -V/T =  2.0041
             S**2   =   0.7538
 Annihilation of the first spin contaminant:
 S**2 before annihilation     0.7538,   after     0.7500
 Range of M.O.s used for correlation:     1   144
 NBasis=   144 NAE=    21 NBE=    20 NFC=     0 NFV=     0
 NROrb=    144 NOA=    21 NOB=    20 NVA=   123 NVB=   124
 Symmetrizing basis deriv contribution to polar:
 IMax=3 JMax=2 DiffMx= 0.00D+00
 G2DrvN: will do   15 centers at a time, making    1 passes doing MaxLOS=2.
 FoFDir/FoFCou used for L=0 through L=2.
 DoAtom=TTTTTTTTTTTTTT
          Differentiating once with respect to electric field.
                with respect to dipole field.
          Differentiating once with respect to nuclear coordinates.
          Store integrals in memory, NReq=   125716011.
 PrsmSu:  requested number of processors reduced to:   7 ShMem   1 Linda.
 CalDSu:  requested number of processors reduced to:   2 ShMem   1 Linda.
          There are  45 degrees of freedom in the 1st order CPHF.
    42 vectors were produced by pass  0.
 AX will form  42 AO Fock derivatives at one time.
 CalDSu:  requested number of processors reduced to:   2 ShMem   1 Linda.
    42 vectors were produced by pass  1.
 CalDSu:  requested number of processors reduced to:   2 ShMem   1 Linda.
    42 vectors were produced by pass  2.
 CalDSu:  requested number of processors reduced to:   2 ShMem   1 Linda.
    42 vectors were produced by pass  3.
 CalDSu:  requested number of processors reduced to:   2 ShMem   1 Linda.
    42 vectors were produced by pass  4.
 CalDSu:  requested number of processors reduced to:   2 ShMem   1 Linda.
    42 vectors were produced by pass  5.
 CalDSu:  requested number of processors reduced to:   2 ShMem   1 Linda.
    15 vectors were produced by pass  6.
 CalDSu:  requested number of processors reduced to:   3 ShMem   1 Linda.
     3 vectors were produced by pass  7.
 CalDSu:  requested number of processors reduced to:   3 ShMem   1 Linda.
 Inv2:  IOpt= 1 Iter= 1 AM= 3.30D-15 Conv= 1.00D-12.
 Inverted reduced A of dimension  270 with in-core refinement.
 CalDSu:  requested number of processors reduced to:   2 ShMem   1 Linda.
 Isotropic polarizability for W=    0.000000       49.86 Bohr**3.
 End of Minotr Frequency-dependent properties file   721 does not exist.

 **********************************************************************

            Population analysis using the SCF density.

 **********************************************************************

 Alpha  occ. eigenvalues --  -19.10955 -10.21496 -10.18422 -10.18287 -10.15877
 Alpha  occ. eigenvalues --   -1.01826  -0.80616  -0.68562  -0.67915  -0.57254
 Alpha  occ. eigenvalues --   -0.49756  -0.47215  -0.45450  -0.44288  -0.40053
 Alpha  occ. eigenvalues --   -0.37432  -0.35601  -0.35581  -0.32740  -0.27326
 Alpha  occ. eigenvalues --   -0.21777
 Alpha virt. eigenvalues --    0.03786   0.06128   0.07672   0.08826   0.09986
 Alpha virt. eigenvalues --    0.10886   0.11148   0.13906   0.15132   0.17712
 Alpha virt. eigenvalues --    0.20140   0.23880   0.24825   0.30027   0.30528
 Alpha virt. eigenvalues --    0.32584   0.36685   0.39493   0.41327   0.43836
 Alpha virt. eigenvalues --    0.44299   0.47673   0.48296   0.52455   0.53838
 Alpha virt. eigenvalues --    0.55774   0.57950   0.58298   0.59312   0.59973
 Alpha virt. eigenvalues --    0.60672   0.62802   0.64527   0.68186   0.70037
 Alpha virt. eigenvalues --    0.77146   0.84607   0.89355   0.90729   0.95971
 Alpha virt. eigenvalues --    0.99344   1.05987   1.08884   1.10381   1.20167
 Alpha virt. eigenvalues --    1.26262   1.31442   1.35539   1.38399   1.40425
 Alpha virt. eigenvalues --    1.41972   1.43992   1.47004   1.49587   1.51189
 Alpha virt. eigenvalues --    1.52671   1.54584   1.57292   1.58728   1.59884
 Alpha virt. eigenvalues --    1.63651   1.63899   1.68121   1.70106   1.72414
 Alpha virt. eigenvalues --    1.75396   1.77474   1.81070   1.86224   1.89056
 Alpha virt. eigenvalues --    1.96843   1.98385   2.01139   2.04955   2.06677
 Alpha virt. eigenvalues --    2.12296   2.16967   2.18532   2.22689   2.26632
 Alpha virt. eigenvalues --    2.33245   2.36849   2.40285   2.43270   2.48789
 Alpha virt. eigenvalues --    2.48909   2.50424   2.53502   2.53831   2.57051
 Alpha virt. eigenvalues --    2.59514   2.61428   2.64605   2.66869   2.70731
 Alpha virt. eigenvalues --    2.73841   2.80206   2.85761   2.89735   2.90733
 Alpha virt. eigenvalues --    3.02904   3.07148   3.12982   3.21612   3.35050
 Alpha virt. eigenvalues --    3.42290   3.67783   3.72160   3.79931   3.81070
 Alpha virt. eigenvalues --    3.86751   3.93161   3.95277   4.22124   4.31364
 Alpha virt. eigenvalues --    4.90739   5.26369   5.62635  23.77425  23.81534
 Alpha virt. eigenvalues --   23.85447  23.93696  49.89928
  Beta  occ. eigenvalues --  -19.10934 -10.21408 -10.18500 -10.16907 -10.15869
  Beta  occ. eigenvalues --   -1.01760  -0.79819  -0.68128  -0.65982  -0.56298
  Beta  occ. eigenvalues --   -0.49572  -0.46513  -0.45140  -0.43684  -0.39847
  Beta  occ. eigenvalues --   -0.37296  -0.35363  -0.34938  -0.32384  -0.27109
  Beta virt. eigenvalues --   -0.07065   0.04170   0.06359   0.07749   0.09570
  Beta virt. eigenvalues --    0.10171   0.11046   0.11341   0.13976   0.15226
  Beta virt. eigenvalues --    0.17976   0.20345   0.24127   0.25244   0.30189
  Beta virt. eigenvalues --    0.31115   0.32860   0.37885   0.39671   0.42749
  Beta virt. eigenvalues --    0.44360   0.46539   0.47891   0.50639   0.53159
  Beta virt. eigenvalues --    0.54431   0.55880   0.58094   0.58596   0.59616
  Beta virt. eigenvalues --    0.60168   0.61057   0.63424   0.64964   0.69041
  Beta virt. eigenvalues --    0.70741   0.78068   0.85274   0.89503   0.90960
  Beta virt. eigenvalues --    0.96479   0.99943   1.06338   1.10146   1.11310
  Beta virt. eigenvalues --    1.20559   1.26897   1.31676   1.36012   1.39311
  Beta virt. eigenvalues --    1.41020   1.42095   1.44633   1.47109   1.49635
  Beta virt. eigenvalues --    1.52230   1.53291   1.54787   1.57537   1.59122
  Beta virt. eigenvalues --    1.60762   1.64015   1.64301   1.68257   1.70829
  Beta virt. eigenvalues --    1.72988   1.76344   1.77984   1.81343   1.88084
  Beta virt. eigenvalues --    1.90198   1.96929   1.99948   2.01577   2.05416
  Beta virt. eigenvalues --    2.06864   2.12708   2.17662   2.18686   2.23543
  Beta virt. eigenvalues --    2.27068   2.33296   2.37228   2.40449   2.43589
  Beta virt. eigenvalues --    2.48841   2.49297   2.50662   2.53776   2.54232
  Beta virt. eigenvalues --    2.57760   2.60307   2.61660   2.65190   2.67226
  Beta virt. eigenvalues --    2.71090   2.74148   2.83403   2.87830   2.89869
  Beta virt. eigenvalues --    2.91207   3.03178   3.07375   3.13028   3.21711
  Beta virt. eigenvalues --    3.35191   3.42685   3.67902   3.73956   3.80076
  Beta virt. eigenvalues --    3.81086   3.86906   3.93240   3.95885   4.22799
  Beta virt. eigenvalues --    4.31742   4.90770   5.26396   5.62706  23.77714
  Beta virt. eigenvalues --   23.81764  23.86478  23.93747  49.89949
          Condensed to atoms (all electrons):
              1          2          3          4          5          6
     1  C    4.915007   0.403513   0.398303   0.403698   0.328254  -0.036432
     2  H    0.403513   0.573035  -0.028693  -0.031040  -0.045386   0.010856
     3  H    0.398303  -0.028693   0.583003  -0.028423  -0.028023  -0.006562
     4  H    0.403698  -0.031040  -0.028423   0.584225  -0.033380  -0.006875
     5  C    0.328254  -0.045386  -0.028023  -0.033380   5.194742   0.371017
     6  H   -0.036432   0.010856  -0.006562  -0.006875   0.371017   0.628342
     7  C   -0.077682  -0.004375   0.008268  -0.004915   0.317690  -0.046093
     8  H   -0.006463   0.000837   0.000163   0.001803  -0.037901   0.003775
     9  H    0.006352   0.000043  -0.000489   0.000138  -0.037667  -0.002414
    10  C   -0.061557  -0.012495  -0.004431   0.008254   0.345736  -0.040443
    11  H   -0.012684  -0.001792   0.004397  -0.000017  -0.033075  -0.002088
    12  H    0.011443   0.001537  -0.000292  -0.000485  -0.048674   0.000283
    13  O   -0.001671   0.021874  -0.001063  -0.000141  -0.063047   0.005457
    14  H   -0.001889  -0.000243   0.000086  -0.000150  -0.011750   0.000578
              7          8          9         10         11         12
     1  C   -0.077682  -0.006463   0.006352  -0.061557  -0.012684   0.011443
     2  H   -0.004375   0.000837   0.000043  -0.012495  -0.001792   0.001537
     3  H    0.008268   0.000163  -0.000489  -0.004431   0.004397  -0.000292
     4  H   -0.004915   0.001803   0.000138   0.008254  -0.000017  -0.000485
     5  C    0.317690  -0.037901  -0.037667   0.345736  -0.033075  -0.048674
     6  H   -0.046093   0.003775  -0.002414  -0.040443  -0.002088   0.000283
     7  C    5.304939   0.408254   0.394790  -0.071093   0.010892  -0.015880
     8  H    0.408254   0.538514  -0.034133   0.004585  -0.000329  -0.000316
     9  H    0.394790  -0.034133   0.555400  -0.001007  -0.000223   0.004318
    10  C   -0.071093   0.004585  -0.001007   4.788394   0.396810   0.396661
    11  H    0.010892  -0.000329  -0.000223   0.396810   0.592064  -0.042634
    12  H   -0.015880  -0.000316   0.004318   0.396661  -0.042634   0.636725
    13  O   -0.002138   0.000363  -0.000014   0.293665  -0.030349  -0.032059
    14  H    0.024619  -0.000259  -0.000283  -0.054484   0.010315  -0.007570
             13         14
     1  C   -0.001671  -0.001889
     2  H    0.021874  -0.000243
     3  H   -0.001063   0.000086
     4  H   -0.000141  -0.000150
     5  C   -0.063047  -0.011750
     6  H    0.005457   0.000578
     7  C   -0.002138   0.024619
     8  H    0.000363  -0.000259
     9  H   -0.000014  -0.000283
    10  C    0.293665  -0.054484
    11  H   -0.030349   0.010315
    12  H   -0.032059  -0.007570
    13  O    7.886226   0.316426
    14  H    0.316426   0.494407
 Mulliken atomic charges:
              1
     1  C   -0.268192
     2  H    0.112328
     3  H    0.103755
     4  H    0.107309
     5  C   -0.218536
     6  H    0.120599
     7  C   -0.247278
     8  H    0.121105
     9  H    0.115187
    10  C    0.011404
    11  H    0.108711
    12  H    0.096942
    13  O   -0.393532
    14  H    0.230197
 Sum of Mulliken charges=   0.00000
 Atomic charges with hydrogens summed into heavy atoms:
              1
     1  C    0.055199
     2  H    0.000000
     3  H    0.000000
     4  H    0.000000
     5  C   -0.097937
     6  H    0.000000
     7  C   -0.010986
     8  H    0.000000
     9  H    0.000000
    10  C    0.217058
    11  H    0.000000
    12  H    0.000000
    13  O   -0.163335
    14  H    0.000000
 Sum of Mulliken charges=   0.00000
          Atomic-Atomic Spin Densities.
              1          2          3          4          5          6
     1  C    0.009422  -0.003491  -0.000381   0.000098   0.006949  -0.003483
     2  H   -0.003491   0.002727   0.000694  -0.001335  -0.001002   0.001462
     3  H   -0.000381   0.000694  -0.002606   0.000143   0.000581   0.000803
     4  H    0.000098  -0.001335   0.000143   0.000656   0.000303  -0.002232
     5  C    0.006949  -0.001002   0.000581   0.000303  -0.051879   0.012774
     6  H   -0.003483   0.001462   0.000803  -0.002232   0.012774   0.084674
     7  C   -0.011293   0.004791   0.000007   0.001227  -0.053529  -0.024940
     8  H    0.000520  -0.000018  -0.000086   0.000211  -0.000753  -0.000386
     9  H   -0.000011  -0.000065   0.000022   0.000034  -0.001120  -0.000847
    10  C    0.007017  -0.002874  -0.000337   0.000833   0.014866  -0.019317
    11  H   -0.001090   0.000491  -0.000078  -0.000109  -0.000307   0.003166
    12  H   -0.000065   0.000000   0.000019  -0.000004   0.001123  -0.000097
    13  O   -0.000768   0.000215   0.000068  -0.000042   0.000872   0.000304
    14  H   -0.000713   0.000874   0.000025  -0.000104  -0.003147   0.000897
              7          8          9         10         11         12
     1  C   -0.011293   0.000520  -0.000011   0.007017  -0.001090  -0.000065
     2  H    0.004791  -0.000018  -0.000065  -0.002874   0.000491   0.000000
     3  H    0.000007  -0.000086   0.000022  -0.000337  -0.000078   0.000019
     4  H    0.001227   0.000211   0.000034   0.000833  -0.000109  -0.000004
     5  C   -0.053529  -0.000753  -0.001120   0.014866  -0.000307   0.001123
     6  H   -0.024940  -0.000386  -0.000847  -0.019317   0.003166  -0.000097
     7  C    1.167989   0.001942   0.002362  -0.030765   0.001465   0.000005
     8  H    0.001942  -0.053858   0.004003  -0.000051   0.000014   0.000027
     9  H    0.002362   0.004003  -0.053379   0.001338  -0.000094  -0.000100
    10  C   -0.030765  -0.000051   0.001338   0.067261  -0.005132  -0.000685
    11  H    0.001465   0.000014  -0.000094  -0.005132   0.001641   0.000436
    12  H    0.000005   0.000027  -0.000100  -0.000685   0.000436  -0.001967
    13  O   -0.001366  -0.000010   0.000038  -0.003008   0.001191  -0.000022
    14  H    0.015103  -0.000015  -0.000208  -0.004828   0.000610   0.000311
             13         14
     1  C   -0.000768  -0.000713
     2  H    0.000215   0.000874
     3  H    0.000068   0.000025
     4  H   -0.000042  -0.000104
     5  C    0.000872  -0.003147
     6  H    0.000304   0.000897
     7  C   -0.001366   0.015103
     8  H   -0.000010  -0.000015
     9  H    0.000038  -0.000208
    10  C   -0.003008  -0.004828
    11  H    0.001191   0.000610
    12  H   -0.000022   0.000311
    13  O    0.011067  -0.001634
    14  H   -0.001634   0.001678
 Mulliken atomic spin densities:
              1
     1  C    0.002711
     2  H    0.002469
     3  H   -0.001127
     4  H   -0.000321
     5  C   -0.074269
     6  H    0.052777
     7  C    1.072998
     8  H   -0.048460
     9  H   -0.048030
    10  C    0.024317
    11  H    0.002203
    12  H   -0.001021
    13  O    0.006905
    14  H    0.008849
 Sum of Mulliken spin densities=   1.00000
 APT atomic charges:
              1
     1  C    0.052913
     2  H    0.003639
     3  H   -0.021131
     4  H   -0.024348
     5  C    0.055897
     6  H   -0.056481
     7  C   -0.074974
     8  H    0.021267
     9  H    0.005616
    10  C    0.499997
    11  H   -0.039297
    12  H   -0.089600
    13  O   -0.590296
    14  H    0.256797
 Sum of APT charges=   0.00000
 APT Atomic charges with hydrogens summed into heavy atoms:
              1
     1  C    0.011073
     2  H    0.000000
     3  H    0.000000
     4  H    0.000000
     5  C   -0.000584
     6  H    0.000000
     7  C   -0.048090
     8  H    0.000000
     9  H    0.000000
    10  C    0.371100
    11  H    0.000000
    12  H    0.000000
    13  O   -0.333499
    14  H    0.000000
 Sum of APT charges=   0.00000
 Electronic spatial extent (au):  <R**2>=   699.1105
 Charge=     0.0000 electrons
 Dipole moment (field-independent basis, Debye):
    X=    -1.2898    Y=     0.3851    Z=     0.9617  Tot=     1.6543
 Quadrupole moment (field-independent basis, Debye-Ang):
   XX=   -37.7124   YY=   -31.5157   ZZ=   -29.6802
   XY=     1.6552   XZ=     0.4634   YZ=    -1.4569
 Traceless Quadrupole moment (field-independent basis, Debye-Ang):
   XX=    -4.7429   YY=     1.4537   ZZ=     3.2892
   XY=     1.6552   XZ=     0.4634   YZ=    -1.4569
 Octapole moment (field-independent basis, Debye-Ang**2):
  XXX=   -33.8691  YYY=    41.2199  ZZZ=  -102.3359  XYY=    -6.1466
  XXY=    17.6786  XXZ=   -40.0048  XZZ=    -1.6712  YZZ=    11.4935
  YYZ=   -33.1882  XYZ=    -1.1837
 Hexadecapole moment (field-independent basis, Debye-Ang**3):
 XXXX=  -341.7456 YYYY=  -144.7778 ZZZZ=  -437.2272 XXXY=    10.3161
 XXXZ=   -37.0191 YYYX=    -7.1548 YYYZ=    43.8089 ZZZX=   -14.8243
 ZZZY=    44.4380 XXYY=   -72.2507 XXZZ=  -128.3413 YYZZ=   -95.2166
 XXYZ=    13.1854 YYXZ=    -5.4198 ZZXY=    -6.6710
 N-N= 1.854437833493D+02 E-N=-9.142789724829D+02  KE= 2.321208823078D+02
  Exact polarizability:  49.442   2.756  48.170   0.001  -1.476  51.980
 Approx polarizability:  64.578   1.183  67.835  -1.575  -2.578  67.233
                          Isotropic Fermi Contact Couplings
        Atom                 a.u.       MegaHertz       Gauss      10(-4) cm-1
     1  C(13)              0.00312       3.50460       1.25053       1.16901
     2  H(1)              -0.00033      -1.47418      -0.52602      -0.49173
     3  H(1)              -0.00053      -2.36936      -0.84545      -0.79033
     4  H(1)              -0.00033      -1.46881      -0.52411      -0.48994
     5  C(13)             -0.02778     -31.22711     -11.14261     -10.41624
     6  H(1)               0.02685     120.02965      42.82956      40.03758
     7  C(13)              0.06473      72.77073      25.96641      24.27370
     8  H(1)              -0.01363     -60.94214     -21.74567     -20.32811
     9  H(1)              -0.01300     -58.10558     -20.73351     -19.38193
    10  C(13)              0.04001      44.97625      16.04864      15.00246
    11  H(1)               0.00001       0.06200       0.02212       0.02068
    12  H(1)              -0.00057      -2.56552      -0.91544      -0.85577
    13  O(17)              0.00139      -0.84216      -0.30050      -0.28091
    14  H(1)              -0.00047      -2.08090      -0.74252      -0.69411
 --------------------------------------------------------
       Center         ----  Spin Dipole Couplings  ----
                      3XX-RR        3YY-RR        3ZZ-RR
 --------------------------------------------------------
     1   Atom       -0.004560     -0.007744      0.012304
     2   Atom       -0.005572     -0.003953      0.009525
     3   Atom       -0.003336     -0.002851      0.006187
     4   Atom       -0.003321     -0.005383      0.008703
     5   Atom       -0.003804      0.002914      0.000889
     6   Atom       -0.009155      0.008631      0.000524
     7   Atom        0.532739      0.028085     -0.560824
     8   Atom        0.028207      0.043066     -0.071273
     9   Atom       -0.016503     -0.034556      0.051059
    10   Atom        0.044354     -0.020184     -0.024170
    11   Atom        0.000997     -0.000724     -0.000273
    12   Atom        0.003877      0.001025     -0.004902
    13   Atom       -0.018459     -0.010189      0.028648
    14   Atom        0.016963     -0.008740     -0.008222
 --------------------------------------------------------
                        XY            XZ            YZ
 --------------------------------------------------------
     1   Atom        0.000446      0.002737     -0.000484
     2   Atom       -0.000695     -0.001829      0.003888
     3   Atom       -0.000244     -0.000339     -0.001498
     4   Atom        0.000257      0.005389      0.001142
     5   Atom       -0.007712     -0.005154     -0.013732
     6   Atom       -0.000088     -0.002911     -0.010948
     7   Atom       -0.805991     -0.064892      0.050886
     8   Atom        0.036117      0.005921      0.013505
     9   Atom       -0.021929      0.031665      0.042468
    10   Atom        0.021392     -0.006914     -0.004472
    11   Atom        0.003847     -0.004528     -0.005090
    12   Atom        0.009270      0.001244      0.001147
    13   Atom       -0.002615      0.000616     -0.027692
    14   Atom       -0.002677     -0.009601     -0.001696
 --------------------------------------------------------


 ---------------------------------------------------------------------------------
              Anisotropic Spin Dipole Couplings in Principal Axis System
 ---------------------------------------------------------------------------------

       Atom             a.u.   MegaHertz   Gauss  10(-4) cm-1        Axes

              Baa    -0.0078    -1.053    -0.376    -0.351 -0.1728  0.9838  0.0471
     1 C(13)  Bbb    -0.0049    -0.658    -0.235    -0.219  0.9726  0.1779 -0.1497
              Bcc     0.0127     1.710     0.610     0.571  0.1557 -0.0200  0.9876
 
              Baa    -0.0058    -3.121    -1.114    -1.041  0.9677  0.2467  0.0528
     2 H(1)   Bbb    -0.0049    -2.640    -0.942    -0.881 -0.2229  0.9340 -0.2791
              Bcc     0.0108     5.761     2.056     1.922 -0.1181  0.2583  0.9588
 
              Baa    -0.0035    -1.888    -0.674    -0.630  0.8339  0.5404  0.1122
     3 H(1)   Bbb    -0.0029    -1.546    -0.552    -0.516 -0.5511  0.8264  0.1157
              Bcc     0.0064     3.435     1.226     1.146 -0.0302 -0.1584  0.9869
 
              Baa    -0.0056    -2.986    -1.065    -0.996  0.5559  0.7854 -0.2722
     4 H(1)   Bbb    -0.0053    -2.802    -1.000    -0.935  0.7513 -0.6148 -0.2398
              Bcc     0.0108     5.788     2.065     1.931  0.3557  0.0712  0.9319
 
              Baa    -0.0178    -2.383    -0.850    -0.795  0.5464  0.5952  0.5892
     5 C(13)  Bbb     0.0018     0.244     0.087     0.081  0.8279 -0.2778 -0.4872
              Bcc     0.0159     2.140     0.763     0.714 -0.1262  0.7540 -0.6446
 
              Baa    -0.0108    -5.783    -2.064    -1.929  0.8367  0.2713  0.4758
     6 H(1)   Bbb    -0.0055    -2.942    -1.050    -0.981 -0.5441  0.5115  0.6651
              Bcc     0.0164     8.725     3.113     2.910  0.0629  0.8154 -0.5755
 
              Baa    -0.5671   -76.100   -27.154   -25.384 -0.3604 -0.5524  0.7517
     7 C(13)  Bbb    -0.5619   -75.401   -26.905   -25.151  0.4715  0.5874  0.6578
              Bcc     1.1290   151.501    54.059    50.535  0.8048 -0.5915 -0.0487
 
              Baa    -0.0729   -38.885   -13.875   -12.970 -0.0190 -0.1098  0.9938
     8 H(1)   Bbb    -0.0010    -0.546    -0.195    -0.182  0.7805 -0.6228 -0.0539
              Bcc     0.0739    39.431    14.070    13.153  0.6249  0.7746  0.0975
 
              Baa    -0.0720   -38.419   -13.709   -12.815  0.5236  0.7547 -0.3952
     9 H(1)   Bbb    -0.0019    -1.002    -0.358    -0.334  0.8155 -0.5783 -0.0239
              Bcc     0.0739    39.422    14.067    13.150  0.2465  0.3098  0.9183
 
              Baa    -0.0282    -3.788    -1.352    -1.264 -0.1812  0.7998  0.5723
    10 C(13)  Bbb    -0.0234    -3.140    -1.120    -1.047  0.2490 -0.5256  0.8135
              Bcc     0.0516     6.928     2.472     2.311  0.9514  0.2899 -0.1039
 
              Baa    -0.0056    -3.005    -1.072    -1.002  0.1090  0.6731  0.7315
    11 H(1)   Bbb    -0.0034    -1.796    -0.641    -0.599  0.7957 -0.5002  0.3417
              Bcc     0.0090     4.801     1.713     1.601  0.5959  0.5448 -0.5901
 
              Baa    -0.0069    -3.697    -1.319    -1.233 -0.6486  0.7605 -0.0322
    12 H(1)   Bbb    -0.0051    -2.705    -0.965    -0.902 -0.0966 -0.0403  0.9945
              Bcc     0.0120     6.402     2.284     2.136  0.7550  0.6481  0.0996
 
              Baa    -0.0252     1.824     0.651     0.608  0.2905  0.8523  0.4349
    13 O(17)  Bbb    -0.0179     1.295     0.462     0.432  0.9564 -0.2451 -0.1585
              Bcc     0.0431    -3.119    -1.113    -1.040  0.0285 -0.4620  0.8864
 
              Baa    -0.0129    -6.909    -2.465    -2.305  0.3033  0.5158  0.8012
    14 H(1)   Bbb    -0.0074    -3.945    -1.408    -1.316 -0.1069  0.8539 -0.5093
              Bcc     0.0203    10.854     3.873     3.620  0.9469 -0.0688 -0.3142
 

 ---------------------------------------------------------------------------------

 Use density number 0.
 Entering OneElI...
 Calculate overlap and kinetic energy integrals
    NBasis = 149  MinDer = 2  MaxDer = 2
 Requested accuracy = 0.1000D-12
 PrsmSu:  NPrtUS=   1 ThrOK=F
 PRISM was handed   130857573 working-precision words and  1891 shell-pairs
 Entering OneElI...
 Calculate potential energy integrals
    NBasis = 149  MinDer = 2  MaxDer = 2
 Requested accuracy = 0.1000D-12
 PrsmSu:  NPrtUS=   8 ThrOK=T
 PRISM was handed    16322954 working-precision words and  1842 shell-pairs
 PRISM was handed    16322954 working-precision words and  1842 shell-pairs
 PRISM was handed    16322954 working-precision words and  1842 shell-pairs
 PRISM was handed    16322954 working-precision words and  1842 shell-pairs
 PRISM was handed    16322954 working-precision words and  1842 shell-pairs
 PRISM was handed    16322954 working-precision words and  1842 shell-pairs
 PRISM was handed    16322954 working-precision words and  1842 shell-pairs
 PRISM was handed    16322954 working-precision words and  1842 shell-pairs
 Polarizability after L701:
                1             2             3
      1  0.494421D+02
      2  0.275645D+01  0.481698D+02
      3  0.133522D-02 -0.147615D+01  0.519795D+02
 Dipole Derivatives after L701:
               1            2            3            4            5
      1 0.648175D-01-0.931883D-02-0.842089D-02 0.390439D-01 0.648938D-01
      2-0.231199D-01 0.683684D-01-0.506646D-01 0.970525D-01-0.773827D-01
      3-0.222937D-01-0.227791D-01 0.255527D-01 0.286824D-01-0.454073D-01
               6            7            8            9           10
      1-0.675075D-02 0.575630D-01-0.338206D-01 0.221192D-01-0.165499D+00
      2 0.103092D-01-0.444023D-01-0.220359D-01 0.682584D-01-0.535758D-01
      3 0.492546D-01 0.499314D-01 0.115218D+00-0.989200D-01-0.387990D-01
              11           12           13           14           15
      1-0.508676D-01 0.625718D-02-0.202372D-01-0.129763D+00 0.411939D-02
      2 0.533475D-01-0.113710D-01-0.633608D-01 0.860441D-01-0.118990D-01
      3-0.248782D-01 0.391086D-01-0.151189D-01 0.671695D-01 0.101884D+00
              16           17           18           19           20
      1 0.118848D-01 0.704962D-01 0.104250D-01-0.256368D+00 0.233667D+00
      2 0.731802D-01-0.161867D+00 0.106103D-02 0.218226D+00-0.358548D-01
      3 0.279942D-02-0.715414D-02-0.194619D-01 0.310395D-01-0.267667D-01
              21           22           23           24           25
      1 0.557562D-03 0.417227D-01-0.123150D+00-0.118048D-01 0.909469D-01
      2 0.243006D-01-0.109776D+00-0.717788D-03-0.195026D-01-0.585922D-01
      3 0.673019D-01 0.749921D-02 0.217821D-01 0.227965D-01-0.411419D-01
              26           27           28           29           30
      1-0.585761D-01-0.219788D-01 0.579936D+00-0.186354D+00 0.382018D-01
      2 0.443350D-01-0.201801D-01-0.160795D+00 0.614972D+00 0.625188D-01
      3-0.456188D-01-0.118433D+00-0.155529D-01 0.610362D-01 0.305084D+00
              31           32           33           34           35
      1-0.228219D-02-0.979435D-02 0.638171D-01-0.352925D-01-0.455351D-02
      2-0.217683D-01-0.406459D-01 0.118185D+00 0.311229D-02-0.793935D-01
      3 0.473773D-01 0.766631D-01-0.749641D-01-0.512296D-01-0.932271D-01
              36           37           38           39           40
      1-0.654665D-01-0.760749D+00 0.250593D+00-0.103528D+00 0.354512D+00
      2-0.159917D+00 0.210804D+00-0.679788D+00-0.684652D-01-0.669848D-01
      3-0.154113D+00-0.867429D-01-0.102111D+00-0.330352D+00 0.103550D+00
              41           42
      1-0.134528D-01 0.724529D-01
      2 0.230618D+00 0.573673D-01
      3 0.260737D-01 0.185261D+00
 Hessian after L701:
                1             2             3             4             5
      1  0.121904D+02
      2 -0.220034D+00  0.125179D+02
      3 -0.111596D+01 -0.105567D+01  0.104155D+02
      4 -0.317739D+01 -0.101404D+01 -0.145620D+00  0.303894D+01
      5 -0.117849D+01 -0.177957D+01  0.243022D+00  0.999814D+00  0.170550D+01
      6 -0.260872D+00  0.403274D+00 -0.372324D+01  0.131901D+00 -0.478221D+00
      7 -0.348685D+01  0.268203D+00 -0.371113D+00  0.622348D-01  0.346060D-01
      8  0.327910D+00 -0.278788D+01 -0.105960D+01 -0.419976D-02 -0.352313D-01
      9 -0.490645D+00 -0.115648D+01 -0.206385D+01 -0.447425D-02  0.400412D-01
     10 -0.124751D+01  0.489782D+00  0.777483D-01 -0.511023D-01  0.498717D-01
     11  0.491613D+00 -0.342994D+01  0.138239D-01  0.787417D-01  0.544943D-01
     12  0.199582D+00  0.416642D-01 -0.354984D+01  0.215739D-02  0.428277D-02
     13 -0.483297D+01  0.586235D+00  0.111512D+01  0.999102D-01 -0.850445D-02
     14  0.608018D+00 -0.419422D+01  0.179364D+01 -0.537427D-01  0.465489D-01
     15  0.118885D+01  0.179811D+01 -0.141433D+01 -0.345549D-01 -0.481855D-03
     16  0.736623D-01 -0.379769D-01 -0.898353D-02 -0.238841D-01 -0.403422D-01
     17 -0.449840D-01  0.642315D-01 -0.437804D-01 -0.351082D-01  0.105372D+00
     18 -0.118756D-01 -0.614283D-01 -0.938775D-02 -0.180541D-01  0.654831D-01
     19  0.195336D-01 -0.160916D-01  0.147058D-01 -0.227678D-01  0.289052D-02
     20 -0.106422D-01 -0.323710D-01  0.460263D-01 -0.995896D-02 -0.818435D-02
     21 -0.889449D-01 -0.480125D-01  0.223401D+00 -0.172494D-01  0.199759D-01
     22 -0.109620D-01  0.140239D-01 -0.217803D-01  0.366961D-02 -0.873397D-02
     23  0.165428D-01 -0.804314D-02 -0.217052D-01  0.730763D-02 -0.145772D-01
     24 -0.603838D-02  0.335526D-02  0.906700D-02 -0.109936D-01  0.513009D-02
     25 -0.402139D-01 -0.537998D-03  0.150271D-01 -0.314233D-02  0.136364D-02
     26 -0.619265D-03 -0.407686D-01  0.152637D-01 -0.176712D-02  0.183480D-02
     27  0.144700D-01  0.106448D-01  0.151296D+00 -0.556309D-02  0.125205D-01
     28  0.175950D+00  0.103357D+00  0.132808D+00 -0.121265D-01 -0.788084D-02
     29  0.726229D-01 -0.392816D-01  0.252681D-01 -0.188116D-01  0.438928D-02
     30  0.194036D+00  0.729780D-01  0.675753D-01 -0.256787D-01 -0.835890D-02
     31 -0.516705D-01 -0.257658D-01 -0.135530D-01 -0.411487D-02  0.193167D-03
     32 -0.185867D-01  0.239605D-02 -0.522719D-02 -0.706304D-02  0.509472D-02
     33 -0.160858D-01 -0.573768D-02  0.128127D-01 -0.194997D-03 -0.916008D-02
     34  0.472682D-01  0.634431D-01  0.119349D+00 -0.123023D-02  0.123135D-01
     35  0.809416D-01 -0.100540D-01  0.841334D-01  0.820644D-02  0.148582D-01
     36  0.127816D+00  0.732537D-01  0.774926D-01  0.741743D-02  0.231793D-01
     37  0.357389D+00 -0.213190D+00  0.202660D+00  0.931031D-01  0.141680D+00
     38 -0.111020D+00 -0.258429D+00 -0.304963D-01  0.511698D-01 -0.903500D-01
     39  0.236074D+00 -0.599714D-01 -0.200117D+00  0.116680D+00  0.709886D-01
     40 -0.166626D-01  0.259195D-02 -0.408708D-03 -0.210597D-02  0.121732D-02
     41 -0.132751D-01 -0.398334D-02 -0.470271D-02 -0.547143D-03 -0.101783D-01
     42  0.295945D-01 -0.159858D-01  0.363899D-02  0.422782D-02  0.115986D-01
                6             7             8             9            10
      6  0.356109D+01
      7 -0.238670D-01  0.341896D+01
      8  0.530435D-01 -0.270088D+00  0.282392D+01
      9  0.517162D-01  0.303456D+00  0.118623D+01  0.171682D+01
     10  0.193666D-01 -0.125963D-02 -0.341115D-01  0.420783D-01  0.103355D+01
     11 -0.563707D-02 -0.578359D-01  0.309311D-01  0.246085D-01 -0.564223D+00
     12  0.686320D-01  0.580187D-01  0.206601D-01  0.407906D-01 -0.307510D+00
     13  0.118346D-01  0.242195D-01  0.451913D-02  0.350942D-01  0.845164D-01
     14 -0.739892D-01  0.135075D-01  0.463631D-01 -0.115143D-01 -0.987520D-02
     15  0.603512D-01 -0.157361D-01 -0.571994D-01  0.461000D-01  0.228853D-01
     16 -0.242762D-01  0.130850D-01  0.618011D-02  0.448541D-02  0.305198D-02
     17  0.765801D-01 -0.933675D-03 -0.137819D-02 -0.130631D-01 -0.442984D-02
     18  0.181167D-02  0.389165D-02 -0.214582D-01 -0.308512D-01 -0.101819D-01
     19  0.982751D-02 -0.449603D-01  0.237849D-02 -0.216966D-01 -0.306532D-02
     20  0.128871D-02  0.116108D-02 -0.323961D-01 -0.535173D-01  0.142717D-01
     21  0.170617D-01 -0.165799D-01 -0.632803D-01  0.165951D+00  0.291399D-01
     22 -0.152157D-01 -0.107572D-03  0.614937D-02 -0.956195D-02 -0.171010D-01
     23 -0.741955D-02  0.402388D-02  0.563870D-02 -0.137046D-01 -0.145072D-01
     24  0.116705D-01 -0.265097D-02 -0.508883D-02  0.667367D-02  0.122680D-01
     25  0.416593D-03 -0.197787D-03 -0.748583D-03  0.277827D-02  0.243816D-02
     26  0.387913D-02  0.724691D-04 -0.582735D-03  0.352357D-02  0.343314D-02
     27  0.929081D-02 -0.247212D-02 -0.562316D-02  0.175128D-02  0.151515D-01
     28 -0.270158D-01 -0.529943D-02 -0.118243D-01  0.352160D-01  0.127677D+00
     29 -0.288654D-01 -0.303303D-02 -0.194438D-01 -0.126937D-01  0.587751D-01
     30 -0.253229D-01  0.191385D-01 -0.208474D-01  0.322499D-01  0.778942D-01
     31 -0.145075D-02  0.185306D-01  0.109808D-01  0.370327D-01  0.916583D-02
     32 -0.695412D-03  0.213147D-01 -0.137395D-01  0.264633D-01  0.110342D-01
     33 -0.140370D-02  0.182467D-01  0.103912D-01 -0.681446D-02 -0.710466D-02
     34  0.104954D-01 -0.145057D-02 -0.140650D-02  0.385573D-02 -0.539642D-03
     35  0.167619D-01  0.747427D-04 -0.350232D-02  0.461512D-02  0.292152D-02
     36  0.117482D-01  0.379519D-03 -0.437805D-02  0.956966D-02  0.507757D-02
     37  0.165682D+00  0.322518D-02 -0.345852D-01  0.600178D-01  0.598849D-01
     38  0.450099D-01 -0.921900D-02 -0.167675D-01 -0.149308D-01  0.468868D-02
     39 -0.516555D-01  0.261341D-01 -0.243348D-01  0.188835D-01  0.130868D-01
     40  0.317386D-02 -0.134817D-03 -0.115378D-02  0.236272D-02  0.289502D-03
     41 -0.500962D-02 -0.185355D-02  0.406925D-02 -0.958326D-02 -0.763206D-02
     42  0.825633D-02  0.315373D-02 -0.851628D-02  0.110085D-01  0.101001D-01
               11            12            13            14            15
     11  0.340426D+01
     12 -0.496610D-01  0.340048D+01
     13 -0.106596D-01 -0.362257D-01  0.124996D+02
     14  0.181983D-01 -0.229002D-01 -0.139297D+01  0.151551D+02
     15  0.138804D-02  0.332247D-01 -0.168815D-02  0.374021D+00  0.123916D+02
     16 -0.133101D-01 -0.999856D-02 -0.338509D+01 -0.937600D+00 -0.326915D-01
     17 -0.101677D-01 -0.202193D-01 -0.865214D+00 -0.165239D+01  0.726692D-01
     18 -0.181510D-01 -0.343623D-02 -0.393530D-01  0.924591D-01 -0.375977D+01
     19  0.246542D-02  0.175026D-02 -0.494161D+01  0.860536D+00 -0.130803D+01
     20 -0.194017D-01  0.152195D-01  0.833293D+00 -0.403882D+01 -0.217386D+01
     21  0.933606D-02  0.120916D-01 -0.124160D+01 -0.218296D+01 -0.196024D+01
     22 -0.174690D-03 -0.255755D-02  0.669638D-01 -0.267856D-01  0.214414D-01
     23 -0.799521D-02 -0.173386D-01 -0.631116D-02  0.286757D-01  0.238056D-01
     24 -0.671732D-02  0.181215D-01  0.499667D-01  0.755599D-01  0.414816D-01
     25  0.128988D-02  0.428577D-02  0.678306D-01  0.586594D-02  0.424269D-01
     26 -0.193075D-02  0.209940D-02  0.106806D-01  0.755758D-01  0.510485D-01
     27  0.383796D-02  0.101977D-01 -0.111894D-01  0.331097D-01 -0.276004D-01
     28  0.631927D-01  0.757616D-01 -0.230079D+00  0.822569D+00  0.170201D+00
     29 -0.235766D-01  0.260618D-01  0.801553D+00 -0.526746D+01 -0.539051D-01
     30  0.262121D-01 -0.157433D-01  0.187600D+00 -0.402566D-01 -0.544968D+01
     31  0.481359D-02  0.126470D-02  0.156584D-01 -0.307784D-02  0.126257D+00
     32  0.206007D-02  0.107015D-02  0.626454D-02  0.823435D-01  0.496349D-01
     33 -0.213503D-02 -0.265634D-02  0.609492D-01 -0.205471D-02  0.945733D-04
     34 -0.189881D-02 -0.395621D-02 -0.260108D-01 -0.291933D-01 -0.206740D+00
     35  0.607087D-04 -0.970327D-03 -0.512869D-01  0.127605D+00 -0.833395D-01
     36  0.563994D-03 -0.563282D-03 -0.159361D+00 -0.222346D-01 -0.217060D-01
     37  0.625937D-02  0.170504D-01  0.594976D+00  0.710136D-01 -0.144731D-02
     38 -0.151139D-01  0.162238D-02  0.487306D-01 -0.373552D+00  0.240328D-01
     39  0.191083D-02 -0.124222D-01 -0.246986D-01  0.298750D-02  0.122208D-01
     40 -0.274169D-03  0.377363D-03 -0.379423D-01  0.717379D-01  0.288284D-01
     41 -0.187979D-02 -0.159097D-02  0.436744D-01 -0.539175D-01 -0.259202D-01
     42  0.619958D-03  0.112355D-02  0.535526D-01 -0.158662D-01  0.482729D-01
               16            17            18            19            20
     16  0.319154D+01
     17  0.114672D+01  0.118580D+01
     18  0.265885D-01 -0.102715D+00  0.377977D+01
     19  0.101560D+00 -0.124311D+00  0.515019D-01  0.100417D+02
     20 -0.102645D+00  0.140901D+00  0.509281D-01 -0.205391D+01  0.971813D+01
     21  0.427190D-01  0.490888D-01  0.109684D-01  0.113863D+01  0.142449D+01
     22 -0.156455D-01  0.261116D-01 -0.618493D-02 -0.259435D+01  0.123910D+01
     23  0.526388D-02  0.546845D-01 -0.193148D-01  0.118977D+01 -0.195421D+01
     24 -0.230476D-02 -0.206726D-01 -0.818995D-02  0.526175D-01  0.693460D-01
     25  0.338630D-02 -0.453860D-02  0.129075D-02 -0.337180D+01  0.125681D+00
     26  0.185366D-02 -0.422975D-02  0.784996D-02  0.147931D+00 -0.332591D+01
     27  0.388713D-02 -0.645464D-02 -0.598129D-02  0.653755D+00  0.702239D+00
     28 -0.592797D-01  0.698094D-01  0.413475D-02  0.361578D+00  0.496680D-01
     29  0.866625D-01  0.723552D-01 -0.245590D-04  0.323673D-01 -0.105735D+00
     30  0.104441D-02  0.183993D-02  0.762592D-01 -0.212358D+00 -0.192207D-01
     31 -0.445137D-02 -0.568926D-02  0.213815D-02  0.498405D-01  0.822524D-01
     32  0.536394D-02 -0.524859D-02 -0.165665D-02  0.102938D+00  0.224414D-01
     33 -0.506499D-02  0.897848D-02  0.146550D-02 -0.114656D+00 -0.836475D-01
     34  0.110508D-01 -0.817798D-02  0.613742D-02 -0.507845D-01 -0.465358D-01
     35  0.433009D-02 -0.107277D-01  0.152260D-02 -0.405887D-01 -0.117212D-01
     36  0.154490D-01 -0.104988D-01 -0.167558D-02  0.103302D-01  0.427634D-02
     37  0.869195D-01 -0.140373D+00 -0.122187D-01  0.295958D+00 -0.432067D-01
     38 -0.109257D+00  0.465294D-01  0.877742D-02  0.398438D-01 -0.279699D+00
     39 -0.192718D-01  0.194318D-01 -0.478900D-01 -0.274531D+00  0.198271D-01
     40  0.410285D-02 -0.888240D-02  0.218514D-02  0.159159D+00 -0.785305D-01
     41 -0.152457D-01  0.142700D-01 -0.227219D-02 -0.146223D+00 -0.730179D-01
     42  0.841782D-02 -0.111847D-01 -0.309541D-02 -0.184853D-02 -0.338926D-02
               21            22            23            24            25
     21  0.670420D+01
     22  0.151604D+00  0.239800D+01
     23  0.196679D+00 -0.127464D+01  0.188947D+01
     24 -0.360872D+01  0.274356D-01  0.171092D-03  0.356518D+01
     25  0.500669D+00  0.309873D-01 -0.697497D-01 -0.740993D-01  0.329715D+01
     26  0.630745D+00 -0.764646D-01 -0.761452D-02 -0.974764D-01 -0.845092D-01
     27 -0.136684D+01 -0.785324D-01 -0.957751D-01  0.128078D-01 -0.412691D+00
     28 -0.139930D+00  0.563669D-01  0.815094D-01 -0.310672D-01 -0.341713D-02
     29  0.355987D-01  0.673579D-01  0.186845D-01 -0.204919D-01  0.848175D-02
     30  0.313194D-01 -0.364293D-01 -0.302599D-01 -0.267245D-01 -0.308349D-01
     31 -0.106249D+00  0.556874D-03  0.166730D-02  0.223012D-02 -0.161049D-02
     32 -0.933005D-01  0.454113D-02  0.482693D-02  0.641878D-03  0.170620D-03
     33  0.471151D-01 -0.512980D-02 -0.654740D-02 -0.312227D-03 -0.535775D-03
     34  0.141514D-01  0.349306D-02  0.544038D-02  0.625753D-03  0.152038D-01
     35  0.106078D-01  0.697873D-02  0.585052D-02  0.710178D-03  0.241947D-01
     36  0.219234D-01  0.652575D-02  0.688788D-02 -0.949805D-03 -0.140242D-01
     37 -0.195785D+00  0.741786D-01  0.511953D-01 -0.177749D-01  0.535573D-02
     38 -0.197644D-01  0.310622D-01 -0.707874D-02 -0.451067D-02 -0.390073D-02
     39 -0.185640D+00 -0.402680D-01 -0.218616D-01 -0.170728D-01 -0.355836D-01
     40 -0.705779D-01  0.394981D-02  0.248756D-02 -0.214622D-03 -0.197583D-02
     41  0.308025D-01 -0.852377D-02 -0.831042D-02  0.431700D-04 -0.306298D-02
     42 -0.112588D+00  0.865266D-02  0.638309D-02 -0.302930D-02  0.874246D-03
               26            27            28            29            30
     26  0.336767D+01
     27 -0.626541D+00  0.112262D+01
     28  0.427986D-02 -0.567743D-01  0.113673D+02
     29 -0.306677D-01 -0.870244D-02  0.228649D+01  0.122888D+02
     30 -0.277162D-02  0.500186D-01  0.220321D+00 -0.357751D+00  0.168140D+02
     31 -0.251960D-03 -0.521293D-02 -0.380710D+01  0.410012D+00 -0.529197D+00
     32 -0.249612D-02 -0.847234D-02  0.392607D+00 -0.286756D+01 -0.135974D+01
     33  0.987059D-03  0.114770D-01 -0.462452D+00 -0.122584D+01 -0.242006D+01
     34  0.195161D-01 -0.326103D-01 -0.376335D+01  0.296906D+00  0.488135D+00
     35 -0.328239D-02 -0.281243D-01  0.262640D+00 -0.302217D+01  0.126842D+01
     36 -0.100035D-01 -0.123970D-01  0.405403D+00  0.117724D+01 -0.199331D+01
     37 -0.221789D-01 -0.786649D-01 -0.434204D+01 -0.417169D+01 -0.297444D+00
     38 -0.296428D-01  0.434622D-02 -0.407171D+01 -0.107833D+01  0.400404D+00
     39  0.238001D-01  0.535169D-01 -0.341392D+00  0.441927D+00 -0.726999D+01
     40 -0.197552D-02 -0.355296D-02  0.133837D+00  0.723132D-01 -0.562272D-01
     41  0.204627D-02  0.129949D-01 -0.447028D-01  0.699909D-01  0.693515D-01
     42 -0.240423D-02 -0.101580D-01  0.147855D-01  0.217825D-02  0.129411D+00
               31            32            33            34            35
     31  0.370990D+01
     32 -0.617018D+00  0.265971D+01
     33  0.494095D+00  0.158579D+01  0.232095D+01
     34  0.126593D+00  0.567378D-02  0.544592D-02  0.364912D+01
     35  0.641825D-02  0.133747D+00  0.103261D-01 -0.485291D+00  0.283837D+01
     36  0.170572D-01  0.192102D-01 -0.175523D+00 -0.471416D+00 -0.141043D+01
     37 -0.223134D-01  0.103616D+00  0.246981D-01 -0.285753D-01  0.160002D+00
     38  0.136256D+00 -0.140821D+00 -0.176366D+00  0.156801D+00  0.173410D-02
     39 -0.263522D-01 -0.112717D+00  0.180775D+00  0.673841D-01  0.142713D+00
     40 -0.389764D-01 -0.108567D-01  0.778845D-02  0.192132D-01  0.204580D-01
     41 -0.790711D-03  0.117240D+00 -0.104979D+00  0.124095D-01 -0.607705D-01
     42  0.193942D-02 -0.100993D+00  0.320771D-01 -0.858046D-03 -0.169478D-01
               36            37            38            39            40
     36  0.178701D+01
     37  0.427338D-01  0.851222D+01
     38  0.156622D+00  0.322657D+01  0.585530D+01
     39  0.286560D+00  0.103558D+01  0.192126D+01  0.106990D+02
     40  0.661199D-02 -0.569027D+01  0.609987D+00 -0.732843D+00  0.546752D+01
     41 -0.368724D-02  0.864893D+00 -0.361378D+01 -0.242596D+01 -0.679120D+00
     42  0.118244D-01 -0.945088D+00 -0.231601D+01 -0.346622D+01  0.812497D+00
               41            42
     41  0.361822D+01
     42  0.247051D+01  0.334947D+01
 ReadGW:  IGet=0 IStart=         102 Next=        6304 LGW=        6202.
 ICntrl=12127.
 Symmetry not used in FoFDir.
 MinBra= 0 MaxBra= 2 Meth= 1.
 IRaf=       0 NMat=   1 IRICut=       1 DoRegI=T DoRafI=F ISym2E= 0 JSym2E=0.
 PrsmSu:  NPrtUS=   8 ThrOK=T
 PRISM was handed    16313928 working-precision words and  1882 shell-pairs
 PRISM was handed    16313928 working-precision words and  1882 shell-pairs
 PRISM was handed    16313928 working-precision words and  1882 shell-pairs
 PRISM was handed    16313928 working-precision words and  1882 shell-pairs
 PRISM was handed    16313928 working-precision words and  1882 shell-pairs
 PRISM was handed    16313928 working-precision words and  1882 shell-pairs
 PRISM was handed    16313928 working-precision words and  1882 shell-pairs
 PRISM was handed    16313928 working-precision words and  1882 shell-pairs
 Pruned (  75, 302) grid will be used in CalDFT.
 CkSvGd:  ISavGI=        -1 IRadAn=       4 IRASav=       4 ISavGd=        -1.
 CalDSu:  NPrtUS=   8 ThrOK=T
 IPart= 0 IRanGd=          0 ScrnBf=T ScrnGd=T RCrit=4.00D+00 DoMicB=T.
 IPart= 7 IRanGd=          0 ScrnBf=T ScrnGd=T RCrit=4.00D+00 DoMicB=T.
 IPart= 3 IRanGd=          0 ScrnBf=T ScrnGd=T RCrit=4.00D+00 DoMicB=T.
 CutRad = 1000.00    CtRdIn =    0.00    XCrit =  15.00   ICut = 0
 IPart= 6 IRanGd=          0 ScrnBf=T ScrnGd=T RCrit=4.00D+00 DoMicB=T.
 CutRad = 1000.00    CtRdIn =    0.00    XCrit =  15.00   ICut = 0
 CutRad = 1000.00    CtRdIn =    0.00    XCrit =  15.00   ICut = 0
 CutRad = 1000.00    CtRdIn =    0.00    XCrit =  15.00   ICut = 0
 IPart= 1 IRanGd=          0 ScrnBf=T ScrnGd=T RCrit=4.00D+00 DoMicB=T.
 IPart= 5 IRanGd=          0 ScrnBf=T ScrnGd=T RCrit=4.00D+00 DoMicB=T.
 IPart= 4 IRanGd=          0 ScrnBf=T ScrnGd=T RCrit=4.00D+00 DoMicB=T.
 IPart= 2 IRanGd=          0 ScrnBf=T ScrnGd=T RCrit=4.00D+00 DoMicB=T.
 CutRad = 1000.00    CtRdIn =    0.00    XCrit =  15.00   ICut = 0
 CutRad = 1000.00    CtRdIn =    0.00    XCrit =  15.00   ICut = 0
 CutRad = 1000.00    CtRdIn =    0.00    XCrit =  15.00   ICut = 0
 CutRad = 1000.00    CtRdIn =    0.00    XCrit =  15.00   ICut = 0
 IPart= 1        12501 of        14122 points in      29 batches and       97 microbatches, Max-NSigAt=      14 Max-NSgAt2=      14
 IPart= 3        12789 of        14392 points in      28 batches and       75 microbatches, Max-NSigAt=      14 Max-NSgAt2=      14
 IPart= 4        11569 of        13216 points in      28 batches and       91 microbatches, Max-NSigAt=      14 Max-NSgAt2=      14
 IPart= 6        12117 of        13576 points in      28 batches and       88 microbatches, Max-NSigAt=      14 Max-NSgAt2=      14
 IPart= 2        12985 of        15268 points in      33 batches and       92 microbatches, Max-NSigAt=      14 Max-NSgAt2=      14
 IPart= 0        11902 of        13556 points in      27 batches and       86 microbatches, Max-NSigAt=      14 Max-NSgAt2=      14
 IPart= 7        11523 of        12648 points in      24 batches and       77 microbatches, Max-NSigAt=      14 Max-NSgAt2=      14
 IPart= 5        12961 of        14482 points in      28 batches and       84 microbatches, Max-NSigAt=      14 Max-NSgAt2=      14
 Polarizability after L703:
                1             2             3
      1  0.494421D+02
      2  0.275645D+01  0.481698D+02
      3  0.133522D-02 -0.147615D+01  0.519795D+02
 Dipole Derivatives after L703:
               1            2            3            4            5
      1 0.648175D-01-0.931883D-02-0.842089D-02 0.390439D-01 0.648938D-01
      2-0.231199D-01 0.683684D-01-0.506646D-01 0.970525D-01-0.773827D-01
      3-0.222937D-01-0.227791D-01 0.255527D-01 0.286824D-01-0.454073D-01
               6            7            8            9           10
      1-0.675075D-02 0.575630D-01-0.338206D-01 0.221192D-01-0.165499D+00
      2 0.103092D-01-0.444023D-01-0.220359D-01 0.682584D-01-0.535758D-01
      3 0.492546D-01 0.499314D-01 0.115218D+00-0.989200D-01-0.387990D-01
              11           12           13           14           15
      1-0.508676D-01 0.625718D-02-0.202372D-01-0.129763D+00 0.411939D-02
      2 0.533475D-01-0.113710D-01-0.633608D-01 0.860441D-01-0.118990D-01
      3-0.248782D-01 0.391086D-01-0.151189D-01 0.671695D-01 0.101884D+00
              16           17           18           19           20
      1 0.118848D-01 0.704962D-01 0.104250D-01-0.256368D+00 0.233667D+00
      2 0.731802D-01-0.161867D+00 0.106103D-02 0.218226D+00-0.358548D-01
      3 0.279942D-02-0.715414D-02-0.194619D-01 0.310395D-01-0.267667D-01
              21           22           23           24           25
      1 0.557562D-03 0.417227D-01-0.123150D+00-0.118048D-01 0.909469D-01
      2 0.243006D-01-0.109776D+00-0.717788D-03-0.195026D-01-0.585922D-01
      3 0.673019D-01 0.749921D-02 0.217821D-01 0.227965D-01-0.411419D-01
              26           27           28           29           30
      1-0.585761D-01-0.219788D-01 0.579936D+00-0.186354D+00 0.382018D-01
      2 0.443350D-01-0.201801D-01-0.160795D+00 0.614972D+00 0.625188D-01
      3-0.456188D-01-0.118433D+00-0.155529D-01 0.610362D-01 0.305084D+00
              31           32           33           34           35
      1-0.228219D-02-0.979435D-02 0.638171D-01-0.352925D-01-0.455351D-02
      2-0.217683D-01-0.406459D-01 0.118185D+00 0.311229D-02-0.793935D-01
      3 0.473773D-01 0.766631D-01-0.749641D-01-0.512296D-01-0.932271D-01
              36           37           38           39           40
      1-0.654665D-01-0.760749D+00 0.250593D+00-0.103528D+00 0.354512D+00
      2-0.159917D+00 0.210804D+00-0.679788D+00-0.684652D-01-0.669848D-01
      3-0.154113D+00-0.867429D-01-0.102111D+00-0.330352D+00 0.103550D+00
              41           42
      1-0.134528D-01 0.724529D-01
      2 0.230618D+00 0.573673D-01
      3 0.260737D-01 0.185261D+00
 Hessian after L703:
                1             2             3             4             5
      1  0.567040D+00
      2 -0.953733D-02  0.545608D+00
      3 -0.251607D-01 -0.450137D-01  0.486973D+00
      4 -0.112449D+00  0.114101D+00  0.155675D-01  0.118098D+00
      5  0.111612D+00 -0.241683D+00 -0.238915D-01 -0.124074D+00  0.262807D+00
      6  0.146553D-01 -0.225292D-01 -0.497584D-01 -0.151525D-01  0.287845D-01
      7 -0.611378D-01 -0.358338D-01  0.455818D-01  0.404729D-02  0.949729D-02
      8 -0.358410D-01 -0.141496D+00  0.120984D+00 -0.795654D-02 -0.161666D-01
      9  0.444352D-01  0.118731D+00 -0.199188D+00 -0.155085D-02 -0.221318D-02
     10 -0.299322D+00 -0.462634D-01 -0.429437D-02 -0.145574D-01 -0.338237D-02
     11 -0.458593D-01 -0.553818D-01 -0.177154D-03  0.277499D-01  0.699944D-02
     12 -0.227445D-02  0.344246D-03 -0.466362D-01  0.309811D-02  0.127089D-02
     13 -0.850613D-01 -0.110521D-01 -0.189701D-01  0.538550D-02  0.554733D-02
     14 -0.110180D-01 -0.985169D-01 -0.398767D-01 -0.857060D-02 -0.131232D-01
     15 -0.200363D-01 -0.389683D-01 -0.151418D+00 -0.767766D-03 -0.294926D-02
     16  0.406155D-02 -0.888890D-02 -0.157256D-02  0.168033D-04 -0.915369D-03
     17  0.634936D-02 -0.131132D-01 -0.247879D-02 -0.120562D-02 -0.196159D-03
     18  0.127667D-01 -0.271295D-01 -0.452198D-02 -0.192909D-02 -0.286506D-02
     19  0.297196D-02  0.566783D-02 -0.644096D-02  0.234207D-03 -0.455404D-03
     20  0.515220D-02  0.846636D-02 -0.877153D-02  0.200064D-03  0.610628D-03
     21  0.663377D-02  0.165274D-01 -0.341458D-01  0.323011D-03  0.100479D-02
     22  0.265359D-03  0.258036D-03 -0.108545D-02 -0.169209D-03  0.252577D-03
     23  0.559062D-05  0.723438D-03 -0.118499D-02  0.692921D-04  0.695358D-04
     24  0.772400D-03  0.527918D-03  0.197947D-02  0.264780D-03 -0.290409D-03
     25  0.167355D-03 -0.126026D-02  0.136436D-02 -0.799553D-04 -0.651429D-04
     26 -0.181895D-02 -0.163997D-02  0.165127D-02 -0.133623D-03  0.171220D-03
     27  0.200667D-02  0.441267D-02 -0.230267D-02  0.422743D-04 -0.878853D-04
     28 -0.127627D-01 -0.646971D-02 -0.868694D-02  0.302819D-03  0.206937D-02
     29 -0.181226D-01 -0.281497D-02 -0.117937D-02 -0.115122D-02 -0.176391D-02
     30 -0.318350D-01 -0.695693D-02 -0.257637D-02  0.466321D-03 -0.376863D-04
     31  0.155273D-02  0.200278D-03  0.120280D-02 -0.969259D-04 -0.102192D-03
     32  0.515468D-03 -0.165503D-03  0.735182D-03  0.812803D-04 -0.563759D-05
     33 -0.527326D-03 -0.485961D-03  0.872953D-03  0.538661D-05 -0.592031D-04
     34 -0.658589D-02 -0.742438D-03  0.182217D-02  0.620841D-04 -0.196679D-03
     35 -0.113763D-02  0.776421D-03  0.688621D-03  0.430499D-03  0.218624D-03
     36 -0.815567D-03  0.443898D-03  0.999735D-03  0.229540D-03  0.105878D-03
     37  0.186688D-02 -0.287796D-04  0.804016D-03 -0.605242D-03  0.320014D-03
     38 -0.160211D-03 -0.893362D-03 -0.179370D-02  0.285412D-03  0.205061D-02
     39 -0.319503D-03 -0.381335D-03 -0.543934D-04 -0.137174D-03  0.149736D-02
     40 -0.606586D-03 -0.150425D-03 -0.131609D-03 -0.188290D-03 -0.107371D-03
     41 -0.139464D-03  0.130826D-03  0.308591D-03  0.173965D-03  0.116253D-04
     42 -0.301174D-03  0.478052D-03 -0.223295D-03 -0.459623D-03 -0.269232D-03
                6             7             8             9            10
      6  0.544087D-01
      7 -0.133909D-01  0.614467D-01
      8  0.213053D-01  0.403760D-01  0.150874D+00
      9  0.328581D-02 -0.490048D-01 -0.130014D+00  0.219421D+00
     10  0.303469D-04 -0.612434D-02 -0.761245D-03  0.299366D-03  0.324971D+00
     11  0.503683D-03 -0.194660D-01 -0.393038D-02 -0.119133D-02  0.520702D-01
     12 -0.120959D-02  0.248633D-01  0.323411D-02  0.926620D-03  0.500947D-02
     13  0.149745D-01  0.750573D-03  0.373446D-02  0.680280D-02 -0.689629D-02
     14 -0.264253D-01  0.548886D-02  0.911956D-02  0.176123D-01 -0.536918D-03
     15 -0.418424D-02 -0.661463D-02 -0.126651D-01 -0.214058D-01  0.533123D-03
     16 -0.181699D-02  0.108223D-03  0.463772D-03  0.577494D-03  0.427947D-03
     17 -0.260400D-02  0.937131D-04  0.924883D-03 -0.172397D-03 -0.513321D-03
     18 -0.491386D-02  0.610995D-03  0.460824D-03  0.100612D-02 -0.233426D-03
     19 -0.260337D-03 -0.114011D-03 -0.140794D-02 -0.253988D-02  0.451056D-03
     20 -0.845772D-03 -0.107445D-02 -0.865075D-03 -0.371907D-02 -0.494198D-03
     21  0.173678D-02 -0.113427D-02 -0.252716D-02 -0.442486D-02  0.105337D-02
     22  0.457768D-03  0.552231D-04  0.249689D-03 -0.769447D-05  0.156721D-03
     23  0.353256D-03  0.225178D-03  0.904209D-04 -0.133713D-03  0.567432D-03
     24 -0.104368D-03 -0.183072D-03 -0.217387D-03  0.252124D-03 -0.507676D-03
     25 -0.628277D-04  0.435915D-03  0.196897D-03  0.452436D-03  0.284798D-03
     26  0.268390D-03  0.262289D-03  0.643461D-03  0.880258D-03  0.235327D-03
     27  0.148123D-03 -0.345850D-03 -0.769382D-03 -0.132769D-02 -0.912775D-04
     28  0.126496D-02  0.757834D-03  0.275701D-03  0.162467D-02  0.818674D-03
     29 -0.763519D-03  0.921688D-03  0.534073D-03  0.136542D-02 -0.646074D-03
     30  0.812886D-03 -0.101862D-02  0.252841D-03  0.499363D-03 -0.153040D-02
     31 -0.152187D-03 -0.130885D-03  0.924609D-04 -0.958183D-03  0.279707D-03
     32  0.699487D-04 -0.249734D-03  0.158642D-03 -0.587623D-03  0.128391D-03
     33 -0.296029D-04  0.928835D-04  0.160036D-03  0.450161D-03  0.756851D-04
     34  0.249670D-04  0.992868D-04  0.279389D-03  0.916758D-04 -0.569082D-03
     35  0.270426D-03 -0.108645D-04  0.700554D-04 -0.323947D-03  0.839433D-04
     36  0.165478D-03  0.178405D-03  0.126322D-04  0.422731D-03 -0.162695D-03
     37  0.452836D-04 -0.362194D-03  0.461813D-03 -0.553589D-03  0.346131D-04
     38  0.166262D-02 -0.271746D-03  0.155490D-03 -0.170485D-03 -0.418099D-03
     39  0.292686D-03  0.230597D-03  0.314672D-04  0.367705D-04 -0.329508D-03
     40 -0.617388D-03  0.168203D-03 -0.163455D-03  0.331352D-03  0.448624D-04
     41 -0.503092D-04  0.416333D-04 -0.112524D-03 -0.628537D-04 -0.696380D-04
     42 -0.650483D-03  0.134274D-03 -0.247828D-03  0.449501D-04  0.148002D-03
               11            12            13            14            15
     11  0.565252D-01
     12  0.235550D-02  0.507621D-01
     13 -0.154157D-01 -0.297224D-01  0.419946D+00
     14 -0.379614D-02 -0.434175D-02 -0.174912D-01  0.515788D+00
     15 -0.191362D-03 -0.158735D-02  0.182683D-03  0.882525D-02  0.478455D+00
     16 -0.100704D-03  0.598262D-03 -0.857040D-01  0.880190D-01  0.494765D-02
     17  0.306923D-04  0.408056D-03  0.956948D-01 -0.223807D+00 -0.164427D-01
     18  0.705133D-03  0.110008D-02  0.194468D-03 -0.500451D-02 -0.432234D-01
     19  0.597310D-03 -0.668800D-03 -0.662394D-01 -0.381613D-01  0.287286D-01
     20  0.315423D-03 -0.813026D-03 -0.361264D-01 -0.107448D+00  0.576652D-01
     21  0.950734D-03  0.159944D-02  0.201829D-01  0.501949D-01 -0.167016D+00
     22  0.837228D-04  0.183571D-03  0.992366D-03 -0.444197D-02 -0.290727D-02
     23  0.211163D-03  0.595761D-03 -0.969456D-02 -0.431667D-02 -0.462011D-02
     24  0.169217D-03 -0.279115D-03  0.135310D-01  0.157387D-01  0.517453D-02
     25  0.390122D-04  0.129117D-03  0.222148D-02  0.314934D-02  0.626190D-02
     26 -0.117935D-03  0.948453D-04  0.466115D-02  0.814733D-02  0.150615D-01
     27  0.218592D-04  0.296114D-03 -0.667240D-02 -0.116254D-01 -0.143636D-01
     28  0.735006D-03  0.437039D-03 -0.138272D+00 -0.228646D-01 -0.104729D-01
     29 -0.226524D-02 -0.300906D-02 -0.255839D-01 -0.759540D-01 -0.428967D-02
     30 -0.333750D-02 -0.567030D-02  0.517086D-03 -0.165214D-02 -0.828586D-01
     31  0.423436D-03  0.342284D-04 -0.111336D-01 -0.170677D-01  0.254523D-01
     32  0.201438D-03 -0.218217D-03 -0.335612D-02 -0.270862D-02  0.513248D-02
     33 -0.439279D-04  0.141958D-03 -0.194850D-02 -0.186899D-02  0.119988D-02
     34 -0.110696D-02 -0.185893D-02 -0.930213D-02 -0.160979D-01 -0.280251D-01
     35 -0.281779D-05 -0.421125D-03 -0.395982D-02 -0.207509D-02 -0.624335D-02
     36 -0.380307D-03 -0.189730D-04  0.542844D-03  0.618957D-04 -0.212077D-02
     37  0.372490D-03  0.216164D-03 -0.270627D-01  0.381942D-01  0.473952D-02
     38  0.128826D-02  0.566651D-03  0.133355D-01 -0.389778D-02 -0.342946D-03
     39  0.771776D-03  0.497245D-03 -0.724223D-03 -0.102534D-02  0.281264D-02
     40 -0.122512D-03 -0.445831D-04  0.374936D-03  0.139884D-02 -0.202175D-02
     41 -0.772984D-04 -0.668786D-04 -0.293590D-03  0.258861D-02  0.283977D-04
     42 -0.156323D-03  0.779893D-04  0.110940D-02 -0.612812D-03  0.535801D-03
               16            17            18            19            20
     16  0.100442D+00
     17 -0.993554D-01  0.252359D+00
     18 -0.501416D-02  0.103331D-01  0.528845D-01
     19  0.492568D-02  0.143817D-02 -0.605360D-02  0.255289D+00
     20 -0.993965D-02 -0.198062D-01  0.240173D-01  0.257608D+00  0.410890D+00
     21  0.283826D-03  0.926283D-02 -0.292969D-02  0.446525D-01  0.236373D-01
     22 -0.162124D-02  0.435005D-03  0.244174D-03 -0.136378D+00 -0.162973D+00
     23  0.212876D-03 -0.102499D-02  0.615004D-03 -0.159341D+00 -0.213367D+00
     24  0.583437D-03  0.145103D-02 -0.125257D-02 -0.201546D-01 -0.215832D-01
     25  0.445164D-03 -0.616157D-03  0.534752D-03 -0.425679D-01 -0.407673D-01
     26  0.310981D-03  0.545154D-03 -0.104763D-02 -0.429499D-01 -0.696467D-01
     27 -0.284654D-03  0.514393D-03  0.372450D-03 -0.634534D-01 -0.792302D-01
     28 -0.163031D-01 -0.197268D-02 -0.167287D-02 -0.175545D-01 -0.125114D-01
     29  0.317366D-01  0.172040D-02  0.590701D-03 -0.200571D-01 -0.116756D-01
     30  0.126004D-02 -0.797285D-03  0.347284D-03  0.247814D-01  0.100689D-01
     31  0.132754D-02  0.524395D-03 -0.234284D-03 -0.508108D-02 -0.205803D-02
     32 -0.175035D-03  0.511511D-03 -0.249877D-03 -0.643528D-03  0.896539D-03
     33  0.873560D-03 -0.129745D-03  0.534420D-04  0.198868D-04  0.124402D-03
     34  0.127551D-02  0.562757D-03  0.191649D-03  0.133456D-02  0.931553D-03
     35 -0.444332D-03  0.547362D-03  0.187420D-03  0.365643D-03  0.421168D-03
     36 -0.864255D-03  0.302617D-03  0.569057D-04  0.691741D-03  0.949257D-03
     37 -0.944755D-02 -0.923537D-03  0.841351D-04  0.923965D-03  0.304498D-02
     38 -0.873061D-04  0.146973D-02 -0.501237D-03 -0.335695D-02  0.857491D-03
     39 -0.189574D-03  0.395998D-03  0.125938D-02  0.201041D-02 -0.130735D-02
     40  0.452753D-04 -0.511462D-03  0.510527D-03  0.180499D-02 -0.993073D-03
     41 -0.836443D-03 -0.160882D-03 -0.111628D-03  0.695796D-03  0.350890D-03
     42  0.617925D-03 -0.431247D-04 -0.238658D-03 -0.131295D-02 -0.192230D-03
               21            22            23            24            25
     21  0.553609D+00
     22 -0.198102D-01  0.138004D+00
     23 -0.201733D-01  0.171256D+00  0.221135D+00
     24 -0.571697D-01  0.201011D-01  0.212296D-01  0.531031D-01
     25 -0.603423D-01 -0.594086D-05 -0.476744D-02 -0.158126D-01  0.378220D-01
     26 -0.823344D-01 -0.397187D-02 -0.227790D-02 -0.194854D-01  0.429875D-01
     27 -0.293183D+00  0.159488D-02  0.162620D-02  0.108949D-02  0.672075D-01
     28  0.140913D-01 -0.787140D-03  0.212038D-02 -0.350837D-03  0.201492D-02
     29  0.264556D-02 -0.165495D-02 -0.191428D-02  0.285728D-02  0.886109D-03
     30  0.456373D-03  0.891655D-03  0.206027D-02 -0.339172D-02  0.788448D-03
     31 -0.214082D-02 -0.402992D-03 -0.760121D-03  0.132407D-02 -0.214131D-04
     32 -0.356623D-03  0.689971D-04  0.122841D-03  0.175077D-03 -0.213511D-04
     33  0.475939D-03  0.292121D-03 -0.137673D-03  0.271880D-03 -0.252056D-03
     34 -0.160211D-02  0.219049D-03  0.128963D-03  0.178790D-03 -0.873151D-04
     35 -0.125091D-02  0.155178D-03  0.653670D-04  0.268125D-03 -0.216879D-03
     36  0.743386D-03  0.140867D-03 -0.151878D-03  0.192906D-03 -0.353811D-03
     37 -0.229131D-02  0.764028D-04 -0.167183D-03  0.128408D-03 -0.217951D-03
     38  0.270416D-02  0.519768D-03  0.490861D-03 -0.715818D-03  0.262918D-03
     39 -0.337065D-03  0.162460D-03 -0.874143D-04  0.352071D-03 -0.329363D-03
     40  0.100457D-03 -0.404659D-03  0.144149D-03  0.124825D-03 -0.411136D-03
     41 -0.285270D-03 -0.237919D-03 -0.871798D-05 -0.124730D-03  0.192690D-03
     42  0.585100D-03 -0.257960D-03  0.897582D-05 -0.218159D-03  0.414539D-03
               26            27            28            29            30
     26  0.638816D-01
     27  0.854713D-01  0.308445D+00
     28 -0.103612D-04 -0.165937D-02  0.419793D+00
     29  0.111816D-02 -0.633121D-03  0.363828D-01  0.524842D+00
     30  0.581257D-04  0.114288D-03 -0.154648D-01 -0.295610D-01  0.619278D+00
     31  0.181692D-03  0.597369D-04 -0.682310D-01 -0.448400D-01  0.586868D-01
     32 -0.117603D-03  0.165777D-03 -0.389512D-01 -0.125319D+00  0.105320D+00
     33 -0.100673D-03  0.320556D-03  0.554925D-01  0.114493D+00 -0.212387D+00
     34 -0.149968D-03  0.868114D-03 -0.615834D-01 -0.278582D-01 -0.478065D-01
     35 -0.194749D-03  0.543859D-03 -0.283407D-01 -0.987711D-01 -0.874246D-01
     36 -0.263797D-03  0.520708D-03 -0.478125D-01 -0.902399D-01 -0.228403D+00
     37  0.106289D-03  0.573450D-03 -0.112736D+00  0.493033D-01  0.292480D-01
     38 -0.391029D-03 -0.111928D-03  0.778880D-01 -0.178187D+00 -0.182759D-01
     39  0.972334D-04  0.438277D-03  0.125682D-01  0.118946D-01 -0.871868D-01
     40  0.289406D-03  0.154302D-03  0.454294D-02  0.206835D-01 -0.189843D-01
     41 -0.121061D-03 -0.298154D-03 -0.835065D-02 -0.295497D-01  0.302831D-01
     42 -0.350972D-03 -0.568368D-03  0.641539D-03 -0.417124D-02  0.965659D-03
               31            32            33            34            35
     31  0.763872D-01
     32  0.367580D-01  0.150067D+00
     33 -0.594932D-01 -0.124097D+00  0.221936D+00
     34  0.330401D-02  0.357418D-02  0.785824D-02  0.702848D-01
     35  0.384538D-02  0.102960D-01  0.140720D-01  0.221911D-01  0.116751D+00
     36 -0.671898D-02 -0.107820D-01 -0.208235D-01  0.492632D-01  0.106605D+00
     37  0.399034D-02 -0.156203D-02 -0.252764D-02  0.152996D-02  0.720957D-02
     38  0.186981D-01 -0.291959D-01  0.717398D-04  0.198179D-01 -0.288882D-01
     39 -0.168723D-01  0.246079D-01  0.561460D-02  0.187322D-01 -0.253851D-01
     40 -0.174367D-02  0.383272D-02  0.384100D-04  0.185222D-04 -0.171062D-03
     41  0.410429D-02 -0.474114D-02 -0.199863D-02 -0.133360D-02  0.786049D-03
     42 -0.190021D-03  0.846736D-04  0.190305D-02  0.261607D-03 -0.158621D-02
               36            37            38            39            40
     36  0.241748D+00
     37  0.487059D-02  0.209659D+00
     38 -0.682178D-02 -0.387771D-01  0.436219D+00
     39  0.569421D-02 -0.145573D+00 -0.207984D+00  0.356642D+00
     40  0.810606D-03 -0.676488D-01 -0.877363D-01  0.130771D+00  0.640034D-01
     41  0.158539D-03 -0.575540D-01 -0.201078D+00  0.196875D+00  0.636070D-01
     42  0.821441D-03  0.110236D+00  0.231713D+00 -0.286062D+00 -0.111042D+00
               41            42
     41  0.231981D+00
     42 -0.224655D+00  0.283027D+00
 FrcOut:
 IF    =  1029 IFX   =  1071 IFXYZ =  1113
 IFFX  =  1155 IFFFX =  2058 IFLen =    42
 IFFLen=   903 IFFFLn=     0 IEDerv=  2058
 LEDerv=  2069 IFroze=  4131 ICStrt= 46040
 DipoleDeriv   = 6.48174884D-02-2.31198905D-02-2.22937209D-02
                -9.31883222D-03 6.83684068D-02-2.27790835D-02
                -8.42089327D-03-5.06646236D-02 2.55526650D-02
                 3.90438767D-02 9.70525084D-02 2.86824002D-02
                 6.48937672D-02-7.73826749D-02-4.54072797D-02
                -6.75075275D-03 1.03091605D-02 4.92546410D-02
                 5.75630249D-02-4.44023457D-02 4.99313832D-02
                -3.38206203D-02-2.20358927D-02 1.15217800D-01
                 2.21191830D-02 6.82583775D-02-9.89199602D-02
                -1.65498623D-01-5.35758288D-02-3.87990007D-02
                -5.08676113D-02 5.33474518D-02-2.48782077D-02
                 6.25718379D-03-1.13710416D-02 3.91086102D-02
                -2.02372062D-02-6.33608252D-02-1.51188872D-02
                -1.29762675D-01 8.60441098D-02 6.71694809D-02
                 4.11939270D-03-1.18990231D-02 1.01883773D-01
                 1.18848160D-02 7.31801726D-02 2.79942129D-03
                 7.04962430D-02-1.61866880D-01-7.15413650D-03
                 1.04249724D-02 1.06102848D-03-1.94618680D-02
                -2.56367687D-01 2.18226161D-01 3.10395206D-02
                 2.33667343D-01-3.58547873D-02-2.67667100D-02
                 5.57561607D-04 2.43005540D-02 6.73018712D-02
                 4.17226995D-02-1.09775990D-01 7.49921217D-03
                -1.23150355D-01-7.17788085D-04 2.17821084D-02
                -1.18048273D-02-1.95025606D-02 2.27965082D-02
                 9.09468611D-02-5.85921864D-02-4.11419307D-02
                -5.85760896D-02 4.43349654D-02-4.56188115D-02
                -2.19788043D-02-2.01800510D-02-1.18432901D-01
                 5.79935672D-01-1.60795247D-01-1.55529429D-02
                -1.86353814D-01 6.14972488D-01 6.10362313D-02
                 3.82017746D-02 6.25187750D-02 3.05084045D-01
                -2.28218984D-03-2.17683178D-02 4.73772618D-02
                -9.79434652D-03-4.06458596D-02 7.66630519D-02
                 6.38171377D-02 1.18184599D-01-7.49640555D-02
                -3.52925361D-02 3.11229487D-03-5.12296173D-02
                -4.55350954D-03-7.93935428D-02-9.32271026D-02
                -6.54664529D-02-1.59917258D-01-1.54113021D-01
                -7.60748532D-01 2.10804271D-01-8.67428736D-02
                 2.50593260D-01-6.79788007D-01-1.02111014D-01
                -1.03528337D-01-6.84652145D-02-3.30351778D-01
                 3.54512335D-01-6.69847776D-02 1.03549774D-01
                -1.34527596D-02 2.30618011D-01 2.60736728D-02
                 7.24528618D-02 5.73672781D-02 1.85261471D-01
 Full mass-weighted force constant matrix:
 Low frequencies ---  -25.1881   -0.0011   -0.0009    0.0002    7.8082   17.1581
 Low frequencies ---  119.1270  146.3452  215.8680
 Dipole derivatives wrt mode   1:  1.25336D+00  1.27757D-01  2.33657D-01
 Vibrational polarizability contributions from mode   1       2.9830272       0.0309936       0.1036728
 Vibrational hyperpolarizability contributions from mode   1       0.0000000       0.0000000       0.0000000
 Dipole derivatives wrt mode   2: -1.77452D+00  1.22949D+00 -8.07547D-01
 Vibrational polarizability contributions from mode   2       3.9581084       1.9001168       0.8197145
 Vibrational hyperpolarizability contributions from mode   2       0.0000000       0.0000000       0.0000000
 Dipole derivatives wrt mode   3:  6.94911D-01  3.27330D-01  3.30501D-01
 Vibrational polarizability contributions from mode   3       0.2789070       0.0618831       0.0630881
 Vibrational hyperpolarizability contributions from mode   3       0.0000000       0.0000000       0.0000000
 Dipole derivatives wrt mode   4: -1.53966D+00  3.51295D-01 -8.67159D-01
 Vibrational polarizability contributions from mode   4       0.9455998       0.0492268       0.2999547
 Vibrational hyperpolarizability contributions from mode   4       0.0000000       0.0000000       0.0000000
 Dipole derivatives wrt mode   5:  5.90636D+00  2.22369D+00  4.31822D+00
 Vibrational polarizability contributions from mode   5       8.3363647       1.1816333       4.4560084
 Vibrational hyperpolarizability contributions from mode   5       0.0000000       0.0000000       0.0000000
 Dipole derivatives wrt mode   6: -1.99824D-01  1.80011D-01 -1.28211D-01
 Vibrational polarizability contributions from mode   6       0.0073174       0.0059383       0.0030124
 Vibrational hyperpolarizability contributions from mode   6       0.0000000       0.0000000       0.0000000
 Dipole derivatives wrt mode   7:  7.93446D+00  5.54700D-01  4.51265D+00
 Vibrational polarizability contributions from mode   7      10.5822155       0.0517200       3.4229794
[...]
               36            37            38            39            40
     36  0.531031D-01
     37  0.108949D-02  0.308445D+00
     38 -0.339172D-02  0.114288D-03  0.619278D+00
     39  0.271880D-03  0.320556D-03 -0.212387D+00  0.221936D+00
     40  0.192906D-03  0.520708D-03 -0.228403D+00 -0.208235D-01  0.241748D+00
     41  0.352071D-03  0.438277D-03 -0.871868D-01  0.561460D-02  0.569421D-02
     42 -0.218159D-03 -0.568368D-03  0.965659D-03  0.190305D-02  0.821441D-03
               41            42
     41  0.356642D+00
     42 -0.286062D+00  0.283027D+00
 Final forces over variables, Energy=-2.33066312D+02:
 -4.32127320D-06-7.71522689D-06-4.49510914D-06-5.80480416D-06
  2.40807193D-06 4.25329939D-06 1.65455324D-06-1.25943499D-06
  6.93764212D-06 2.34668805D-06 1.92702962D-06 7.10939626D-06
 -3.91547390D-06 8.74641591D-07 6.00079307D-06 2.83366092D-06
  7.02806487D-06 8.75232995D-06 2.69482085D-06 2.93983939D-06
  3.58499772D-07 4.30261375D-07-3.51309841D-06-4.41895725D-06
 -1.74360307D-06-6.62179924D-06-1.18336134D-05-2.90719893D-06
  1.41599487D-06-2.61926936D-06 2.09836080D-06 4.20638537D-06
  2.51609808D-06 5.84286016D-06-1.65082827D-08 1.22308218D-06
  3.15752543D-06-2.62304105D-06-1.51161868D-06-4.74634319D-07
 -6.22851780D-07-1.25923834D-05

 GradGradGradGradGradGradGradGradGradGradGradGradGradGradGradGradGradGrad
 Berny optimization.
 Search for a local minimum.
 Step number   1 out of a maximum of   2
 All quantities printed in internal units (Hartrees-Bohrs-Radians)
 Second derivative matrix not updated -- analytic derivatives used.
     Eigenvalues ---    0.00060   0.00177   0.00263   0.00503   0.00973
     Eigenvalues ---    0.01049   0.01274   0.02953   0.03851   0.05017
     Eigenvalues ---    0.05344   0.05454   0.06631   0.07192   0.07727
     Eigenvalues ---    0.08862   0.10272   0.11235   0.11712   0.14232
     Eigenvalues ---    0.16908   0.18121   0.19372   0.23018   0.38784
     Eigenvalues ---    0.39670   0.57118   0.62032   0.68726   0.73657
     Eigenvalues ---    0.74038   0.78411   0.81033   0.83929   0.90247
     Eigenvalues ---    1.01420
 Angle between quadratic step and forces=  83.86 degrees.
 Linear search not attempted -- first point.
 TrRot=  0.000041  0.000004  0.000018  0.000013 -0.000014  0.000013
 Variable       Old X    -DE/DX   Delta X   Delta X   Delta X     New X
                                 (Linear)    (Quad)   (Total)
    X1       -1.35277   0.00000   0.00000   0.00000   0.00008  -1.35270
    Y1       -1.33944   0.00001   0.00000  -0.00010  -0.00014  -1.33958
    Z1       -0.29132   0.00000   0.00000  -0.00006  -0.00006  -0.29138
    X2       -0.33843  -0.00001   0.00000  -0.00016  -0.00004  -0.33847
    Y2       -3.11920   0.00000   0.00000  -0.00019  -0.00020  -3.11939
    Z2       -0.53997   0.00000   0.00000  -0.00008  -0.00007  -0.54004
    X3       -0.88983   0.00000   0.00000   0.00003   0.00010  -0.88973
    Y3       -0.12088   0.00001   0.00000  -0.00012  -0.00013  -0.12102
    Z3       -1.89428   0.00000   0.00000  -0.00006  -0.00006  -1.89434
    X4       -3.38103  -0.00001   0.00000  -0.00004   0.00005  -3.38098
    Y4       -1.72626   0.00001   0.00000   0.00006  -0.00002  -1.72628
    Z4       -0.34736   0.00000   0.00000  -0.00001  -0.00004  -0.34740
    X5       -0.59752   0.00000   0.00000   0.00004   0.00005  -0.59747
    Y5       -0.08955   0.00000   0.00000  -0.00009  -0.00010  -0.08965
    Z5        2.21393   0.00000   0.00000  -0.00006  -0.00005   2.21387
    X6       -1.51199   0.00000   0.00000  -0.00008  -0.00012  -1.51211
    Y6        1.78549   0.00000   0.00000  -0.00013  -0.00017   1.78532
    Z6        2.31435   0.00001   0.00000  -0.00008  -0.00009   2.31427
    X7       -1.42249   0.00000   0.00000   0.00008   0.00010  -1.42238
    Y7       -1.58873   0.00000   0.00000  -0.00012  -0.00015  -1.58888
    Z7        4.46071   0.00000   0.00000  -0.00006  -0.00007   4.46064
    X8       -2.68772   0.00000   0.00000  -0.00133  -0.00127  -2.68899
    Y8       -3.18774   0.00000   0.00000   0.00097   0.00091  -3.18683
    Z8        4.27888   0.00000   0.00000   0.00014   0.00012   4.27900
    X9       -0.94318   0.00001   0.00000   0.00137   0.00135  -0.94183
    Y9       -0.96290   0.00000   0.00000  -0.00091  -0.00093  -0.96383
    Z9        6.35401   0.00000   0.00000  -0.00012  -0.00011   6.35389
   X10        2.27023   0.00000   0.00000  -0.00003  -0.00004   2.27020
   Y10        0.45391   0.00000   0.00000   0.00010   0.00016   0.45407
   Z10        2.32412   0.00000   0.00000   0.00003   0.00008   2.32420
   X11        2.81768   0.00000   0.00000  -0.00001  -0.00002   2.81766
   Y11        1.65145   0.00000   0.00000   0.00004   0.00012   1.65157
   Z11        0.73341   0.00000   0.00000  -0.00001   0.00005   0.73345
   X12        2.70536   0.00001   0.00000  -0.00018  -0.00024   2.70512
   Y12        1.48822  -0.00001   0.00000   0.00022   0.00030   1.48851
   Z12        4.07374   0.00000   0.00000  -0.00001   0.00005   4.07380
   X13        3.76856   0.00000   0.00000   0.00017   0.00023   3.76879
   Y13       -1.76603  -0.00001   0.00000   0.00022   0.00032  -1.76572
   Z13        2.12017   0.00000   0.00000   0.00028   0.00035   2.12052
   X14        3.24755   0.00000   0.00000  -0.00030  -0.00024   3.24731
   Y14       -2.88802   0.00000   0.00000  -0.00006   0.00002  -2.88800
   Z14        3.45739  -0.00001   0.00000  -0.00016  -0.00009   3.45730
         Item               Value     Threshold  Converged?
 Maximum Force            0.000013     0.000450     YES
 RMS     Force            0.000005     0.000300     YES
 Maximum Displacement     0.001348     0.001800     YES
 RMS     Displacement     0.000375     0.001200     YES
 Predicted change in Energy=-3.742433D-09
 Optimization completed.
    -- Stationary point found.
 GradGradGradGradGradGradGradGradGradGradGradGradGradGradGradGradGradGrad


 Test job not archived.
 1\1\GINC-NODE17\Freq\UB3LYP\CBSB7\C4H9O1(2)\SHAMEL\18-Jun-2013\0\\# fr
 eq nosymm b3lyp/cbsb7 iop(7/33=1)\\Title Card Required\\0,2\C,-0.71585
 7,-0.708803,-0.154158\H,-0.179089,-1.650607,-0.285738\H,-0.47088,-0.06
 3968,-1.002409\H,-1.789162,-0.913499,-0.183815\C,-0.316196,-0.047386,1
 .171559\H,-0.80011,0.944841,1.224703\C,-0.752747,-0.840719,2.360505\H,
 -1.422282,-1.686881,2.264285\H,-0.49911,-0.509543,3.362396\C,1.201355,
 0.240198,1.229873\H,1.491051,0.873912,0.388103\H,1.431613,0.787531,2.1
 55733\O,1.994237,-0.934545,1.121944\H,1.718529,-1.528277,1.829571\\Ver
 sion=AM64L-G03RevD.01\HF=-233.0663121\S2=0.753819\S2-1=0.\S2A=0.75001\
 RMSD=9.474e-09\RMSF=4.754e-06\ZeroPoint=0.1215731\Thermal=0.1285352\Di
 pole=-0.5074509,0.1515047,0.3783796\DipoleDeriv=0.0648175,-0.0231199,-
 0.0222937,-0.0093188,0.0683684,-0.0227791,-0.0084209,-0.0506646,0.0255
 527,0.0390439,0.0970525,0.0286824,0.0648938,-0.0773827,-0.0454073,-0.0
 067508,0.0103092,0.0492546,0.057563,-0.0444023,0.0499314,-0.0338206,-0
 .0220359,0.1152178,0.0221192,0.0682584,-0.09892,-0.1654986,-0.0535758,
 -0.038799,-0.0508676,0.0533475,-0.0248782,0.0062572,-0.011371,0.039108
 6,-0.0202372,-0.0633608,-0.0151189,-0.1297627,0.0860441,0.0671695,0.00
 41194,-0.011899,0.1018838,0.0118848,0.0731802,0.0027994,0.0704962,-0.1
 618669,-0.0071541,0.010425,0.001061,-0.0194619,-0.2563677,0.2182262,0.
 0310395,0.2336673,-0.0358548,-0.0267667,0.0005576,0.0243006,0.0673019,
 0.0417227,-0.109776,0.0074992,-0.1231504,-0.0007178,0.0217821,-0.01180
 48,-0.0195026,0.0227965,0.0909469,-0.0585922,-0.0411419,-0.0585761,0.0
 44335,-0.0456188,-0.0219788,-0.0201801,-0.1184329,0.5799357,-0.1607952
 ,-0.0155529,-0.1863538,0.6149725,0.0610362,0.0382018,0.0625188,0.30508
 4,-0.0022822,-0.0217683,0.0473773,-0.0097943,-0.0406459,0.0766631,0.06
 38171,0.1181846,-0.0749641,-0.0352925,0.0031123,-0.0512296,-0.0045535,
 -0.0793935,-0.0932271,-0.0654665,-0.1599173,-0.154113,-0.7607485,0.210
 8043,-0.0867429,0.2505933,-0.679788,-0.102111,-0.1035283,-0.0684652,-0
 .3303518,0.3545123,-0.0669848,0.1035498,-0.0134528,0.230618,0.0260737,
 0.0724529,0.0573673,0.1852615\Polar=49.4421103,2.7564501,48.1697676,0.
 0013352,-1.4761496,51.9795453\PG=C01 [X(C4H9O1)]\NImag=0\\0.56704035,-
 0.00953733,0.54560800,-0.02516071,-0.04501374,0.48697283,-0.11244938,0
 .11410110,0.01556753,0.11809774,0.11161190,-0.24168321,-0.02389153,-0.
 12407395,0.26280697,0.01465529,-0.02252924,-0.04975835,-0.01515245,0.0
 2878453,0.05440874,-0.06113783,-0.03583385,0.04558180,0.00404729,0.009
 49729,-0.01339095,0.06144672,-0.03584099,-0.14149617,0.12098386,-0.007
 95654,-0.01616656,0.02130532,0.04037599,0.15087411,0.04443521,0.118730
 85,-0.19918764,-0.00155085,-0.00221318,0.00328581,-0.04900481,-0.13001
 419,0.21942136,-0.29932246,-0.04626345,-0.00429437,-0.01455743,-0.0033
 8237,0.00003035,-0.00612434,-0.00076124,0.00029937,0.32497123,-0.04585
 929,-0.05538180,-0.00017715,0.02774994,0.00699944,0.00050368,-0.019466
 00,-0.00393038,-0.00119133,0.05207021,0.05652519,-0.00227445,0.0003442
 5,-0.04663624,0.00309811,0.00127089,-0.00120959,0.02486326,0.00323411,
 0.00092662,0.00500947,0.00235550,0.05076212,-0.08506134,-0.01105210,-0
 .01897007,0.00538550,0.00554733,0.01497451,0.00075057,0.00373446,0.006
 80280,-0.00689629,-0.01541566,-0.02972245,0.41994632,-0.01101804,-0.09
 851688,-0.03987673,-0.00857060,-0.01312319,-0.02642532,0.00548886,0.00
 911956,0.01761227,-0.00053692,-0.00379614,-0.00434175,-0.01749120,0.51
 578776,-0.02003630,-0.03896835,-0.15141822,-0.00076777,-0.00294926,-0.
 00418424,-0.00661463,-0.01266514,-0.02140582,0.00053312,-0.00019136,-0
 .00158735,0.00018268,0.00882525,0.47845479,0.00406155,-0.00888890,-0.0
 0157256,0.00001680,-0.00091537,-0.00181699,0.00010822,0.00046377,0.000
 57749,0.00042795,-0.00010070,0.00059826,-0.08570402,0.08801895,0.00494
 765,0.10044225,0.00634936,-0.01311320,-0.00247879,-0.00120562,-0.00019
 616,-0.00260400,0.00009371,0.00092488,-0.00017240,-0.00051332,0.000030
 69,0.00040806,0.09569482,-0.22380688,-0.01644271,-0.09935545,0.2523585
 6,0.01276673,-0.02712953,-0.00452198,-0.00192909,-0.00286506,-0.004913
 86,0.00061099,0.00046082,0.00100612,-0.00023343,0.00070513,0.00110008,
 0.00019447,-0.00500451,-0.04322340,-0.00501416,0.01033313,0.05288451,0
 .00297196,0.00566783,-0.00644096,0.00023421,-0.00045540,-0.00026034,-0
 .00011401,-0.00140794,-0.00253988,0.00045106,0.00059731,-0.00066880,-0
 .06623942,-0.03816127,0.02872860,0.00492568,0.00143817,-0.00605360,0.2
 5528855,0.00515220,0.00846636,-0.00877153,0.00020006,0.00061063,-0.000
 84577,-0.00107445,-0.00086507,-0.00371907,-0.00049420,0.00031542,-0.00
 081303,-0.03612637,-0.10744805,0.05766524,-0.00993965,-0.01980619,0.02
 401726,0.25760820,0.41088962,0.00663377,0.01652745,-0.03414582,0.00032
 301,0.00100479,0.00173678,-0.00113427,-0.00252716,-0.00442486,0.001053
 37,0.00095073,0.00159944,0.02018286,0.05019485,-0.16701565,0.00028383,
 0.00926283,-0.00292969,0.04465245,0.02363730,0.55360883,0.00026536,0.0
 0025804,-0.00108545,-0.00016921,0.00025258,0.00045777,0.00005522,0.000
 24969,-0.00000769,0.00015672,0.00008372,0.00018357,0.00099237,-0.00444
 197,-0.00290727,-0.00162124,0.00043500,0.00024417,-0.13637805,-0.16297
 256,-0.01981023,0.13800412,0.00000559,0.00072344,-0.00118499,0.0000692
 9,0.00006954,0.00035326,0.00022518,0.00009042,-0.00013371,0.00056743,0
 .00021116,0.00059576,-0.00969456,-0.00431667,-0.00462011,0.00021288,-0
 .00102499,0.00061500,-0.15934085,-0.21336657,-0.02017327,0.17125630,0.
 22113550,0.00077240,0.00052792,0.00197947,0.00026478,-0.00029041,-0.00
 010437,-0.00018307,-0.00021739,0.00025212,-0.00050768,0.00016922,-0.00
 027911,0.01353098,0.01573870,0.00517453,0.00058344,0.00145103,-0.00125
 257,-0.02015458,-0.02158319,-0.05716967,0.02010110,0.02122958,0.053103
 13,0.00016736,-0.00126026,0.00136436,-0.00007996,-0.00006514,-0.000062
 83,0.00043591,0.00019690,0.00045244,0.00028480,0.00003901,0.00012912,0
 .00222148,0.00314934,0.00626190,0.00044516,-0.00061616,0.00053475,-0.0
 4256788,-0.04076726,-0.06034235,-0.00000594,-0.00476744,-0.01581264,0.
 03782196,-0.00181895,-0.00163997,0.00165127,-0.00013362,0.00017122,0.0
 0026839,0.00026229,0.00064346,0.00088026,0.00023533,-0.00011793,0.0000
 9485,0.00466115,0.00814733,0.01506152,0.00031098,0.00054515,-0.0010476
 3,-0.04294989,-0.06964669,-0.08233444,-0.00397187,-0.00227790,-0.01948
 538,0.04298753,0.06388161,0.00200667,0.00441267,-0.00230267,0.00004227
 ,-0.00008789,0.00014812,-0.00034585,-0.00076938,-0.00132769,-0.0000912
 8,0.00002186,0.00029611,-0.00667240,-0.01162536,-0.01436356,-0.0002846
 5,0.00051439,0.00037245,-0.06345338,-0.07923019,-0.29318309,0.00159488
 ,0.00162620,0.00108949,0.06720749,0.08547126,0.30844539,-0.01276269,-0
 .00646971,-0.00868694,0.00030282,0.00206937,0.00126496,0.00075783,0.00
 027570,0.00162467,0.00081867,0.00073501,0.00043704,-0.13827171,-0.0228
 6456,-0.01047294,-0.01630313,-0.00197268,-0.00167287,-0.01755451,-0.01
 251140,0.01409134,-0.00078714,0.00212038,-0.00035084,0.00201492,-0.000
 01036,-0.00165937,0.41979271,-0.01812262,-0.00281497,-0.00117937,-0.00
 115122,-0.00176391,-0.00076352,0.00092169,0.00053407,0.00136542,-0.000
 64607,-0.00226524,-0.00300906,-0.02558387,-0.07595397,-0.00428967,0.03
 173660,0.00172040,0.00059070,-0.02005711,-0.01167555,0.00264556,-0.001
 65495,-0.00191428,0.00285728,0.00088611,0.00111816,-0.00063312,0.03638
 284,0.52484228,-0.03183504,-0.00695693,-0.00257637,0.00046632,-0.00003
 769,0.00081289,-0.00101862,0.00025284,0.00049936,-0.00153040,-0.003337
 50,-0.00567030,0.00051709,-0.00165214,-0.08285862,0.00126004,-0.000797
 29,0.00034728,0.02478138,0.01006890,0.00045637,0.00089166,0.00206027,-
 0.00339172,0.00078845,0.00005813,0.00011429,-0.01546481,-0.02956102,0.
 61927755,0.00155273,0.00020028,0.00120280,-0.00009693,-0.00010219,-0.0
 0015219,-0.00013088,0.00009246,-0.00095818,0.00027971,0.00042344,0.000
 03423,-0.01113356,-0.01706774,0.02545226,0.00132754,0.00052439,-0.0002
 3428,-0.00508108,-0.00205803,-0.00214082,-0.00040299,-0.00076012,0.001
 32407,-0.00002141,0.00018169,0.00005974,-0.06823101,-0.04483997,0.0586
 8681,0.07638720,0.00051547,-0.00016550,0.00073518,0.00008128,-0.000005
 64,0.00006995,-0.00024973,0.00015864,-0.00058762,0.00012839,0.00020144
 ,-0.00021822,-0.00335612,-0.00270862,0.00513248,-0.00017503,0.00051151
 ,-0.00024988,-0.00064353,0.00089654,-0.00035662,0.00006900,0.00012284,
 0.00017508,-0.00002135,-0.00011760,0.00016578,-0.03895124,-0.12531922,
 0.10531990,0.03675800,0.15006665,-0.00052733,-0.00048596,0.00087295,0.
 00000539,-0.00005920,-0.00002960,0.00009288,0.00016004,0.00045016,0.00
 007569,-0.00004393,0.00014196,-0.00194850,-0.00186899,0.00119988,0.000
 87356,-0.00012975,0.00005344,0.00001989,0.00012440,0.00047594,0.000292
 12,-0.00013767,0.00027188,-0.00025206,-0.00010067,0.00032056,0.0554925
 2,0.11449327,-0.21238684,-0.05949317,-0.12409661,0.22193557,-0.0065858
 9,-0.00074244,0.00182217,0.00006208,-0.00019668,0.00002497,0.00009929,
 0.00027939,0.00009168,-0.00056908,-0.00110696,-0.00185893,-0.00930213,
 -0.01609792,-0.02802508,0.00127551,0.00056276,0.00019165,0.00133456,0.
 00093155,-0.00160211,0.00021905,0.00012896,0.00017879,-0.00008732,-0.0
 0014997,0.00086811,-0.06158340,-0.02785825,-0.04780652,0.00330401,0.00
 357418,0.00785824,0.07028484,-0.00113763,0.00077642,0.00068862,0.00043
 050,0.00021862,0.00027043,-0.00001086,0.00007006,-0.00032395,0.0000839
 4,-0.00000282,-0.00042113,-0.00395982,-0.00207509,-0.00624335,-0.00044
 433,0.00054736,0.00018742,0.00036564,0.00042117,-0.00125091,0.00015518
 ,0.00006537,0.00026813,-0.00021688,-0.00019475,0.00054386,-0.02834068,
 -0.09877107,-0.08742463,0.00384538,0.01029597,0.01407196,0.02219105,0.
 11675089,-0.00081557,0.00044390,0.00099973,0.00022954,0.00010588,0.000
 16548,0.00017841,0.00001263,0.00042273,-0.00016270,-0.00038031,-0.0000
 1897,0.00054284,0.00006190,-0.00212077,-0.00086426,0.00030262,0.000056
 91,0.00069174,0.00094926,0.00074339,0.00014087,-0.00015188,0.00019291,
 -0.00035381,-0.00026380,0.00052071,-0.04781252,-0.09023988,-0.22840271
 ,-0.00671898,-0.01078197,-0.02082354,0.04926324,0.10660490,0.24174849,
 0.00186688,-0.00002878,0.00080402,-0.00060524,0.00032001,0.00004528,-0
 .00036219,0.00046181,-0.00055359,0.00003461,0.00037249,0.00021616,-0.0
 2706269,0.03819424,0.00473952,-0.00944755,-0.00092354,0.00008414,0.000
 92396,0.00304498,-0.00229131,0.00007640,-0.00016718,0.00012841,-0.0002
 1795,0.00010629,0.00057345,-0.11273631,0.04930328,0.02924799,0.0039903
 4,-0.00156203,-0.00252764,0.00152996,0.00720957,0.00487059,0.20965859,
 -0.00016021,-0.00089336,-0.00179370,0.00028541,0.00205061,0.00166262,-
 0.00027175,0.00015549,-0.00017048,-0.00041810,0.00128826,0.00056665,0.
 01333554,-0.00389778,-0.00034295,-0.00008731,0.00146973,-0.00050124,-0
 .00335695,0.00085749,0.00270416,0.00051977,0.00049086,-0.00071582,0.00
 026292,-0.00039103,-0.00011193,0.07788799,-0.17818703,-0.01827592,0.01
 869813,-0.02919587,0.00007174,0.01981792,-0.02888819,-0.00682178,-0.03
 877711,0.43621855,-0.00031950,-0.00038133,-0.00005439,-0.00013717,0.00
 149736,0.00029269,0.00023060,0.00003147,0.00003677,-0.00032951,0.00077
 178,0.00049724,-0.00072422,-0.00102534,0.00281264,-0.00018957,0.000396
 00,0.00125938,0.00201041,-0.00130735,-0.00033706,0.00016246,-0.0000874
 1,0.00035207,-0.00032936,0.00009723,0.00043828,0.01256821,0.01189464,-
 0.08718685,-0.01687226,0.02460788,0.00561460,0.01873220,-0.02538514,0.
 00569421,-0.14557297,-0.20798447,0.35664228,-0.00060659,-0.00015042,-0
 .00013161,-0.00018829,-0.00010737,-0.00061739,0.00016820,-0.00016346,0
 .00033135,0.00004486,-0.00012251,-0.00004458,0.00037494,0.00139884,-0.
 00202175,0.00004528,-0.00051146,0.00051053,0.00180499,-0.00099307,0.00
 010046,-0.00040466,0.00014415,0.00012482,-0.00041114,0.00028941,0.0001
 5430,0.00454294,0.02068355,-0.01898433,-0.00174367,0.00383272,0.000038
 41,0.00001852,-0.00017106,0.00081061,-0.06764880,-0.08773626,0.1307707
 0,0.06400341,-0.00013946,0.00013083,0.00030859,0.00017396,0.00001163,-
 0.00005031,0.00004163,-0.00011252,-0.00006285,-0.00006964,-0.00007730,
 -0.00006688,-0.00029359,0.00258861,0.00002840,-0.00083644,-0.00016088,
 -0.00011163,0.00069580,0.00035089,-0.00028527,-0.00023792,-0.00000872,
 -0.00012473,0.00019269,-0.00012106,-0.00029815,-0.00835065,-0.02954967
 ,0.03028307,0.00410429,-0.00474114,-0.00199863,-0.00133360,0.00078605,
 0.00015854,-0.05755403,-0.20107774,0.19687470,0.06360696,0.23198104,-0
 .00030117,0.00047805,-0.00022329,-0.00045962,-0.00026923,-0.00065048,0
 .00013427,-0.00024783,0.00004495,0.00014800,-0.00015632,0.00007799,0.0
 0110940,-0.00061281,0.00053580,0.00061792,-0.00004312,-0.00023866,-0.0
 0131295,-0.00019223,0.00058510,-0.00025796,0.00000898,-0.00021816,0.00
 041454,-0.00035097,-0.00056837,0.00064154,-0.00417124,0.00096566,-0.00
 019002,0.00008467,0.00190305,0.00026161,-0.00158621,0.00082144,0.11023
 595,0.23171311,-0.28606186,-0.11104151,-0.22465484,0.28302683\\0.00000
 432,-0.00000600,-0.00000142,0.00000772,-0.00000283,0.00000262,0.000004
 50,-0.00000703,-0.00000210,0.00000580,-0.00000875,-0.00000421,-0.00000
 241,-0.00000269,-0.00000252,-0.00000425,-0.00000294,-0.00000584,-0.000
 00165,-0.00000036,0.00000002,0.00000126,-0.00000043,-0.00000122,-0.000
 00694,0.00000351,-0.00000316,-0.00000235,0.00000442,0.00000262,-0.0000
 0193,0.00000174,0.00000151,-0.00000711,0.00000662,0.00000047,0.0000039
 2,0.00001183,0.00000062,-0.00000087,0.00000291,0.00001259\\\@


 ONE OF THE BENEFITS OF A COLLEGE EDUCATION
 IS TO SHOW THE BOY ITS LITTLE AVAIL 
                                    EMERSON IN 'CULTURE'
 Job cpu time:  0 days  0 hours 43 minutes 27.7 seconds.
 File lengths (MBytes):  RWF=     63 Int=      0 D2E=      0 Chk=      7 Scr=      1
 Normal termination of Gaussian 03 at Tue Jun 18 11:25:46 2013.
