 Entering Gaussian System, Link 0=g03
 Input=TS6freq.gjf
 Output=TS6freq.log
 Initial command:
 /opt/g03/l1.exe /scratch/nyee/Gau-20540.inp -scrdir=/scratch/nyee/
 Entering Link 1 = /opt/g03/l1.exe PID=     20542.
  
 Copyright (c) 1988,1990,1992,1993,1995,1998,2003,2004, Gaussian, Inc.
                  All Rights Reserved.
  
 This is the Gaussian(R) 03 program.  It is based on the
 the Gaussian(R) 98 system (copyright 1998, Gaussian, Inc.),
 the Gaussian(R) 94 system (copyright 1995, Gaussian, Inc.),
 the Gaussian 92(TM) system (copyright 1992, Gaussian, Inc.),
 the Gaussian 90(TM) system (copyright 1990, Gaussian, Inc.),
 the Gaussian 88(TM) system (copyright 1988, Gaussian, Inc.),
 the Gaussian 86(TM) system (copyright 1986, Carnegie Mellon
 University), and the Gaussian 82(TM) system (copyright 1983,
 Carnegie Mellon University). Gaussian is a federally registered
 trademark of Gaussian, Inc.
  
 This software contains proprietary and confidential information,
 including trade secrets, belonging to Gaussian, Inc.
  
 This software is provided under written license and may be
 used, copied, transmitted, or stored only in accord with that
 written license.
  
 The following legend is applicable only to US Government
 contracts under FAR:
  
                    RESTRICTED RIGHTS LEGEND
  
 Use, reproduction and disclosure by the US Government is
 subject to restrictions as set forth in subparagraphs (a)
 and (c) of the Commercial Computer Software - Restricted
 Rights clause in FAR 52.227-19.
  
 Gaussian, Inc.
 340 Quinnipiac St., Bldg. 40, Wallingford CT 06492
  
  
 ---------------------------------------------------------------
 Warning -- This program may not be used in any manner that
 competes with the business of Gaussian, Inc. or will provide
 assistance to any competitor of Gaussian, Inc.  The licensee
 of this program is prohibited from giving any competitor of
 Gaussian, Inc. access to this program.  By using this program,
 the user acknowledges that Gaussian, Inc. is engaged in the
 business of creating and licensing software in the field of
 computational chemistry and represents and warrants to the
 licensee that it is not a competitor of Gaussian, Inc. and that
 it will not use this program in any manner prohibited above.
 ---------------------------------------------------------------
  

 Cite this work as:
 Gaussian 03, Revision D.01,
 M. J. Frisch, G. W. Trucks, H. B. Schlegel, G. E. Scuseria, 
 M. A. Robb, J. R. Cheeseman, J. A. Montgomery, Jr., T. Vreven, 
 K. N. Kudin, J. C. Burant, J. M. Millam, S. S. Iyengar, J. Tomasi, 
 V. Barone, B. Mennucci, M. Cossi, G. Scalmani, N. Rega, 
 G. A. Petersson, H. Nakatsuji, M. Hada, M. Ehara, K. Toyota, 
 R. Fukuda, J. Hasegawa, M. Ishida, T. Nakajima, Y. Honda, O. Kitao, 
 H. Nakai, M. Klene, X. Li, J. E. Knox, H. P. Hratchian, J. B. Cross, 
 V. Bakken, C. Adamo, J. Jaramillo, R. Gomperts, R. E. Stratmann, 
 O. Yazyev, A. J. Austin, R. Cammi, C. Pomelli, J. W. Ochterski, 
 P. Y. Ayala, K. Morokuma, G. A. Voth, P. Salvador, J. J. Dannenberg, 
 V. G. Zakrzewski, S. Dapprich, A. D. Daniels, M. C. Strain, 
 O. Farkas, D. K. Malick, A. D. Rabuck, K. Raghavachari, 
 J. B. Foresman, J. V. Ortiz, Q. Cui, A. G. Baboul, S. Clifford, 
 J. Cioslowski, B. B. Stefanov, G. Liu, A. Liashenko, P. Piskorz, 
 I. Komaromi, R. L. Martin, D. J. Fox, T. Keith, M. A. Al-Laham, 
 C. Y. Peng, A. Nanayakkara, M. Challacombe, P. M. W. Gill, 
 B. Johnson, W. Chen, M. W. Wong, C. Gonzalez, and J. A. Pople, 
 Gaussian, Inc., Wallingford CT, 2004.
 
 ******************************************
 Gaussian 03:  AM64L-G03RevD.01 13-Oct-2005
                17-Jun-2013 
 ******************************************
 %chk=TS6freq.chk
 %mem=1000mb
 %nproc=8
 Will use up to    8 processors via shared memory.
 -------------------------------------
 # freq nosymm b3lyp/cbsb7 iop(7/33=1)
 -------------------------------------
 1/10=4,30=1,38=1/1,3;
 2/15=1,17=6,18=5,40=1/2;
 3/5=4,6=6,7=700,11=2,16=1,25=1,30=1,74=-5/1,2,3;
 4//1;
 5/5=2,38=5/2;
 8/6=4,10=90,11=11/1;
 11/6=1,8=1,9=11,15=111,16=1,31=1/1,2,10;
 10/6=1,31=1/2;
 6/7=2,8=2,9=2,10=2,18=1,28=1/1;
 7/8=1,10=1,25=1,30=1,33=1/1,2,3,16;
 1/10=4,30=1/3;
 99//99;
 -------------------
 Title Card Required
 -------------------
 Symbolic Z-matrix:
 Charge =  0 Multiplicity = 2
 C                    -3.03955   0.84635   0.53675 
 H                    -3.56122   1.25621   1.39227 
 O                    -2.64275   1.80023  -0.33707 
 H                    -1.95212   1.42899  -0.90318 
 C                    -2.66572  -0.48832   0.45634 
 C                    -3.22486  -1.43421   1.48677 
 H                    -3.55155  -0.9081    2.38553 
 H                    -4.07473  -1.99298   1.081 
 H                    -2.45475  -2.15509   1.7727 
 C                    -2.29512  -1.09688  -0.87626 
 H                    -1.56329  -0.49482  -1.4193 
 H                    -1.84631  -2.07856  -0.72346 
 H                    -3.18465  -1.21001  -1.50591 
 O                    -0.86053  -0.37862   1.17434 
 O                    -0.11576   0.50118   0.35383 
 H                    -0.03771   1.28834   0.91087 
 

 GradGradGradGradGradGradGradGradGradGradGradGradGradGradGradGradGradGrad
 Berny optimization.
 Initialization pass.
 Trust Radius=3.00D-01 FncErr=1.00D-07 GrdErr=1.00D-07
 Number of steps in this run=   2 maximum allowed number of steps=   2.
 GradGradGradGradGradGradGradGradGradGradGradGradGradGradGradGradGradGrad

                          Input orientation:                          
 ---------------------------------------------------------------------
 Center     Atomic     Atomic              Coordinates (Angstroms)
 Number     Number      Type              X           Y           Z
 ---------------------------------------------------------------------
    1          6             0       -3.039551    0.846350    0.536747
    2          1             0       -3.561217    1.256214    1.392266
    3          8             0       -2.642752    1.800233   -0.337065
    4          1             0       -1.952115    1.428990   -0.903178
    5          6             0       -2.665718   -0.488319    0.456337
    6          6             0       -3.224860   -1.434211    1.486765
    7          1             0       -3.551552   -0.908099    2.385529
    8          1             0       -4.074727   -1.992980    1.081000
    9          1             0       -2.454753   -2.155090    1.772696
   10          6             0       -2.295119   -1.096875   -0.876255
   11          1             0       -1.563293   -0.494816   -1.419295
   12          1             0       -1.846311   -2.078560   -0.723459
   13          1             0       -3.184648   -1.210006   -1.505911
   14          8             0       -0.860533   -0.378616    1.174336
   15          8             0       -0.115763    0.501182    0.353834
   16          1             0       -0.037713    1.288343    0.910871
 ---------------------------------------------------------------------
                    Distance matrix (angstroms):
                    1          2          3          4          5
     1  C    0.000000
     2  H    1.082606   0.000000
     3  O    1.353104   2.032270   0.000000
     4  H    1.896146   2.808580   0.967101   0.000000
     5  C    1.388365   2.172850   2.422289   2.456335   0.000000
     6  C    2.477465   2.713015   3.758568   3.940765   1.506364
     7  H    2.599660   2.381368   3.946327   4.340020   2.163954
     8  H    3.070765   3.304216   4.295338   4.489134   2.153953
     9  H    3.298212   3.606381   4.486760   4.500953   2.134346
    10  C    2.515328   3.505170   2.967290   2.549190   1.511121
    11  H    2.793593   3.868163   2.757481   2.029431   2.175633
    12  H    3.401035   4.305568   3.978524   3.513744   2.142945
    13  H    2.902086   3.824065   3.274354   2.974344   2.154191
    14  O    2.579764   3.164468   3.194999   2.962272   1.945829
    15  O    2.949769   3.676896   2.924132   2.411036   2.737132
    16  H    3.057181   3.556382   2.933531   2.641115   3.204612
                    6          7          8          9         10
     6  C    0.000000
     7  H    1.091466   0.000000
     8  H    1.095053   1.775521   0.000000
     9  H    1.092926   1.770175   1.768909   0.000000
    10  C    2.561655   3.500499   2.793001   2.856964   0.000000
    11  H    3.476845   4.312849   3.847502   3.706753   1.092216
    12  H    2.683407   3.734117   2.868664   2.570379   1.090175
    13  H    3.001332   3.920341   2.845593   3.489297   1.095686
    14  O    2.608052   2.998153   3.598045   2.460779   2.603624
    15  O    3.833505   4.233025   4.735294   3.813112   2.969259
    16  H    4.231059   4.398413   5.205142   4.294421   3.738846
                   11         12         13         14         15
    11  H    0.000000
    12  H    1.752864   0.000000
    13  H    1.774202   1.777010   0.000000
    14  O    2.689665   2.731885   3.643685   0.000000
    15  O    2.496266   3.287921   3.975534   1.414903   0.000000
    16  H    3.307072   4.156693   4.688900   1.877551   0.967473
                   16
    16  H    0.000000
 Symmetry turned off by external request.
 Stoichiometry    C4H9O3(2)
 Framework group  C1[X(C4H9O3)]
 Deg. of freedom    42
 Full point group                 C1
 Rotational constants (GHZ):      2.7659059      2.3929539      1.8210380
 Standard basis: CBSB7 (5D, 7F)
 Integral buffers will be    131072 words long.
 Raffenetti 2 integral format.
 Two-electron integral symmetry is turned off.
   180 basis functions,   296 primitive gaussians,   187 cartesian basis functions
    29 alpha electrons       28 beta electrons
       nuclear repulsion energy       331.0273777577 Hartrees.
 NAtoms=   16 NActive=   16 NUniq=   16 SFac= 7.50D-01 NAtFMM=   80 NAOKFM=F Big=F
 One-electron integrals computed using PRISM.
 NBasis=   180 RedAO= T  NBF=   180
 NBsUse=   180 1.00D-06 NBFU=   180
 Harris functional with IExCor=  402 diagonalized for initial guess.
 ExpMin= 1.03D-01 ExpMax= 8.59D+03 ExpMxC= 1.30D+03 IAcc=1 IRadAn=         1 AccDes= 1.00D-06
 HarFok:  IExCor= 402 AccDes= 1.00D-06 IRadAn=         1 IDoV=1
 ScaDFX=  1.000000  1.000000  1.000000  1.000000
 <S**2> of initial guess= 0.7500
 Requested convergence on RMS density matrix=1.00D-08 within 128 cycles.
 Requested convergence on MAX density matrix=1.00D-06.
 Requested convergence on             energy=1.00D-06.
 No special actions if energy rises.
 Integral accuracy reduced to 1.0D-05 until final iterations.
 Initial convergence to 1.0D-05 achieved.  Increase integral accuracy.
 SCF Done:  E(UB+HF-LYP) =  -383.459047499     A.U. after   18 cycles
             Convg  =    0.8935D-08             -V/T =  2.0033
             S**2   =   0.7718
 Annihilation of the first spin contaminant:
 S**2 before annihilation     0.7718,   after     0.7501
 Range of M.O.s used for correlation:     1   180
 NBasis=   180 NAE=    29 NBE=    28 NFC=     0 NFV=     0
 NROrb=    180 NOA=    29 NOB=    28 NVA=   151 NVB=   152
 Symmetrizing basis deriv contribution to polar:
 IMax=3 JMax=2 DiffMx= 0.00D+00
 G2DrvN: will do   17 centers at a time, making    1 passes doing MaxLOS=2.
 FoFDir/FoFCou used for L=0 through L=2.
 DoAtom=TTTTTTTTTTTTTTTT
          Differentiating once with respect to electric field.
                with respect to dipole field.
          Differentiating once with respect to nuclear coordinates.
 Symmetry not used in FoFDir.
 MinBra= 0 MaxBra= 2 Meth= 1.
 IRaf=       0 NMat=  51 IRICut=      51 DoRegI=T DoRafI=T ISym2E= 0 JSym2E=0.
          There are  51 degrees of freedom in the 1st order CPHF.
    48 vectors were produced by pass  0.
 AX will form  48 AO Fock derivatives at one time.
    48 vectors were produced by pass  1.
    48 vectors were produced by pass  2.
    48 vectors were produced by pass  3.
    48 vectors were produced by pass  4.
    48 vectors were produced by pass  5.
    29 vectors were produced by pass  6.
     5 vectors were produced by pass  7.
     3 vectors were produced by pass  8.
 Inv2:  IOpt= 1 Iter= 1 AM= 2.47D-15 Conv= 1.00D-12.
 Inverted reduced A of dimension  325 with in-core refinement.
 Isotropic polarizability for W=    0.000000       65.97 Bohr**3.
 End of Minotr Frequency-dependent properties file   721 does not exist.

 **********************************************************************

            Population analysis using the SCF density.

 **********************************************************************

 Alpha  occ. eigenvalues --  -19.16880 -19.16570 -19.14686 -10.23514 -10.21775
 Alpha  occ. eigenvalues --  -10.17320 -10.17203  -1.10394  -1.07946  -0.85402
 Alpha  occ. eigenvalues --   -0.80342  -0.70973  -0.69428  -0.60118  -0.51280
 Alpha  occ. eigenvalues --   -0.50279  -0.48360  -0.47384  -0.42669  -0.41459
 Alpha  occ. eigenvalues --   -0.40651  -0.40033  -0.39580  -0.38467  -0.36701
 Alpha  occ. eigenvalues --   -0.36627  -0.27942  -0.26284  -0.19245
 Alpha virt. eigenvalues --    0.01575   0.02721   0.04693   0.06255   0.08419
 Alpha virt. eigenvalues --    0.09412   0.09918   0.11533   0.12485   0.13835
 Alpha virt. eigenvalues --    0.15280   0.18928   0.21678   0.24861   0.27933
 Alpha virt. eigenvalues --    0.28876   0.31499   0.33377   0.36007   0.38422
 Alpha virt. eigenvalues --    0.40855   0.42281   0.43359   0.46427   0.47083
 Alpha virt. eigenvalues --    0.50858   0.53378   0.56180   0.57935   0.58514
 Alpha virt. eigenvalues --    0.58986   0.59538   0.60547   0.62662   0.63116
 Alpha virt. eigenvalues --    0.68247   0.70535   0.74586   0.76781   0.80200
 Alpha virt. eigenvalues --    0.85613   0.87341   0.88041   0.89352   0.91192
 Alpha virt. eigenvalues --    0.94035   0.96769   0.99500   1.01039   1.07878
 Alpha virt. eigenvalues --    1.13921   1.18145   1.23981   1.25045   1.33299
 Alpha virt. eigenvalues --    1.34595   1.34973   1.36291   1.39170   1.42334
 Alpha virt. eigenvalues --    1.43217   1.44256   1.47059   1.48776   1.49401
 Alpha virt. eigenvalues --    1.51181   1.52720   1.55222   1.56457   1.57664
 Alpha virt. eigenvalues --    1.61396   1.63592   1.67320   1.69244   1.69937
 Alpha virt. eigenvalues --    1.74002   1.78686   1.81579   1.87763   1.90437
 Alpha virt. eigenvalues --    1.93129   1.95105   1.98511   1.99861   2.04293
 Alpha virt. eigenvalues --    2.09048   2.10588   2.19313   2.24204   2.29682
 Alpha virt. eigenvalues --    2.31752   2.34499   2.37724   2.41042   2.43081
 Alpha virt. eigenvalues --    2.46016   2.46908   2.47884   2.50732   2.52050
 Alpha virt. eigenvalues --    2.54706   2.55946   2.58517   2.60468   2.61956
 Alpha virt. eigenvalues --    2.62782   2.67041   2.71761   2.74797   2.75712
 Alpha virt. eigenvalues --    2.79236   2.84723   2.89012   2.93511   3.03251
 Alpha virt. eigenvalues --    3.07552   3.10711   3.15732   3.17690   3.23185
 Alpha virt. eigenvalues --    3.23540   3.30493   3.32236   3.39750   3.64559
 Alpha virt. eigenvalues --    3.68624   3.75114   3.77398   3.80617   3.81235
 Alpha virt. eigenvalues --    3.83157   3.84690   3.90745   4.23889   4.27067
 Alpha virt. eigenvalues --    4.67975   4.75163   4.83720   4.89941   4.93116
 Alpha virt. eigenvalues --    5.28011   5.34132   5.65489   5.69662  23.65986
 Alpha virt. eigenvalues --   23.88738  23.94172  24.04102  49.75733  49.78615
 Alpha virt. eigenvalues --   49.86601
  Beta  occ. eigenvalues --  -19.16698 -19.16168 -19.13340 -10.22751 -10.21865
  Beta  occ. eigenvalues --  -10.17302 -10.17197  -1.09165  -1.07052  -0.84058
  Beta  occ. eigenvalues --   -0.79026  -0.70781  -0.68411  -0.59763  -0.50814
  Beta  occ. eigenvalues --   -0.49820  -0.48027  -0.46437  -0.41643  -0.40430
  Beta  occ. eigenvalues --   -0.40404  -0.39416  -0.38958  -0.36681  -0.36362
  Beta  occ. eigenvalues --   -0.35470  -0.25590  -0.24007
  Beta virt. eigenvalues --   -0.08169   0.02834   0.03628   0.05056   0.06597
  Beta virt. eigenvalues --    0.08571   0.09890   0.10074   0.11819   0.12622
  Beta virt. eigenvalues --    0.13874   0.15436   0.19121   0.22042   0.25274
  Beta virt. eigenvalues --    0.28122   0.29291   0.31646   0.33654   0.36348
  Beta virt. eigenvalues --    0.38697   0.41089   0.42421   0.43670   0.47060
  Beta virt. eigenvalues --    0.48896   0.51379   0.53516   0.56253   0.57981
  Beta virt. eigenvalues --    0.58681   0.59187   0.59715   0.60661   0.63120
  Beta virt. eigenvalues --    0.63214   0.68562   0.71101   0.74801   0.77129
  Beta virt. eigenvalues --    0.80835   0.86583   0.87660   0.88591   0.89850
  Beta virt. eigenvalues --    0.91564   0.94544   0.97802   0.99991   1.01489
  Beta virt. eigenvalues --    1.08552   1.14261   1.19108   1.24509   1.25418
  Beta virt. eigenvalues --    1.33639   1.35023   1.35279   1.36742   1.39274
  Beta virt. eigenvalues --    1.42633   1.43351   1.44526   1.47114   1.48837
  Beta virt. eigenvalues --    1.49597   1.51722   1.53037   1.55602   1.56553
  Beta virt. eigenvalues --    1.57782   1.61539   1.64061   1.67504   1.69316
  Beta virt. eigenvalues --    1.70200   1.74467   1.79251   1.82486   1.88004
  Beta virt. eigenvalues --    1.90790   1.93204   1.95183   1.98738   2.00532
  Beta virt. eigenvalues --    2.04821   2.09163   2.10755   2.19537   2.24389
  Beta virt. eigenvalues --    2.29744   2.31912   2.34567   2.37836   2.41219
  Beta virt. eigenvalues --    2.43310   2.46515   2.47017   2.48172   2.50834
  Beta virt. eigenvalues --    2.52382   2.54993   2.56175   2.59114   2.60895
  Beta virt. eigenvalues --    2.62603   2.63710   2.67970   2.72412   2.75522
  Beta virt. eigenvalues --    2.76297   2.80487   2.84924   2.90238   2.95171
  Beta virt. eigenvalues --    3.04155   3.08675   3.11526   3.17217   3.18562
  Beta virt. eigenvalues --    3.24395   3.25599   3.31050   3.32565   3.40194
  Beta virt. eigenvalues --    3.65213   3.69357   3.75396   3.77580   3.81016
  Beta virt. eigenvalues --    3.81337   3.83175   3.84949   3.91185   4.24160
  Beta virt. eigenvalues --    4.27232   4.68542   4.76724   4.85666   4.91545
  Beta virt. eigenvalues --    4.96793   5.28479   5.34473   5.65951   5.70340
  Beta virt. eigenvalues --   23.66404  23.88758  23.94185  24.04455  49.75986
  Beta virt. eigenvalues --   49.79812  49.87068
          Condensed to atoms (all electrons):
              1          2          3          4          5          6
     1  C    4.849630   0.422926   0.340144  -0.046357   0.433905  -0.042222
     2  H    0.422926   0.540093  -0.031972   0.006767  -0.057464  -0.005196
     3  O    0.340144  -0.031972   7.730014   0.326802  -0.066108   0.003414
     4  H   -0.046357   0.006767   0.326802   0.445811  -0.013237   0.000271
     5  C    0.433905  -0.057464  -0.066108  -0.013237   5.459589   0.320686
     6  C   -0.042222  -0.005196   0.003414   0.000271   0.320686   4.830728
     7  H   -0.007269   0.004683  -0.000003  -0.000017  -0.031343   0.403566
     8  H   -0.004517   0.000275  -0.000060  -0.000096  -0.040812   0.403502
     9  H    0.005694  -0.000372  -0.000135   0.000228  -0.034397   0.394887
    10  C   -0.078856   0.005814   0.001382   0.004128   0.315580  -0.048970
    11  H   -0.006307  -0.000172  -0.000192   0.007835  -0.022644   0.008450
    12  H    0.007697  -0.000278   0.000171  -0.000094  -0.029279  -0.007996
    13  H   -0.003439   0.000063   0.001389  -0.001256  -0.044410  -0.003898
    14  O   -0.032362   0.000604  -0.000561  -0.001610   0.042443  -0.019772
    15  O    0.004371  -0.000029  -0.002193   0.021537  -0.033699   0.002385
    16  H   -0.000148  -0.000255   0.005382  -0.000168  -0.003325  -0.000413
              7          8          9         10         11         12
     1  C   -0.007269  -0.004517   0.005694  -0.078856  -0.006307   0.007697
     2  H    0.004683   0.000275  -0.000372   0.005814  -0.000172  -0.000278
     3  O   -0.000003  -0.000060  -0.000135   0.001382  -0.000192   0.000171
     4  H   -0.000017  -0.000096   0.000228   0.004128   0.007835  -0.000094
     5  C   -0.031343  -0.040812  -0.034397   0.315580  -0.022644  -0.029279
     6  C    0.403566   0.403502   0.394887  -0.048970   0.008450  -0.007996
     7  H    0.569323  -0.025762  -0.026600   0.007521  -0.000370   0.000080
     8  H   -0.025762   0.578942  -0.031038   0.000580   0.000104  -0.000956
     9  H   -0.026600  -0.031038   0.554221  -0.007402  -0.000209   0.004485
    10  C    0.007521   0.000580  -0.007402   4.861941   0.386343   0.402274
    11  H   -0.000370   0.000104  -0.000209   0.386343   0.577771  -0.024149
    12  H    0.000080  -0.000956   0.004485   0.402274  -0.024149   0.543500
    13  H   -0.000315   0.002013  -0.000372   0.402568  -0.032822  -0.025692
    14  O    0.000611   0.001831   0.007669  -0.034164  -0.010906   0.005421
    15  O   -0.000104  -0.000132  -0.000201  -0.010930   0.014294  -0.001014
    16  H   -0.000069   0.000003   0.000220   0.000400  -0.001372   0.000173
             13         14         15         16
     1  C   -0.003439  -0.032362   0.004371  -0.000148
     2  H    0.000063   0.000604  -0.000029  -0.000255
     3  O    0.001389  -0.000561  -0.002193   0.005382
     4  H   -0.001256  -0.001610   0.021537  -0.000168
     5  C   -0.044410   0.042443  -0.033699  -0.003325
     6  C   -0.003898  -0.019772   0.002385  -0.000413
     7  H   -0.000315   0.000611  -0.000104  -0.000069
     8  H    0.002013   0.001831  -0.000132   0.000003
     9  H   -0.000372   0.007669  -0.000201   0.000220
    10  C    0.402568  -0.034164  -0.010930   0.000400
    11  H   -0.032822  -0.010906   0.014294  -0.001372
    12  H   -0.025692   0.005421  -0.001014   0.000173
    13  H    0.584533   0.003407  -0.000324  -0.000035
    14  O    0.003407   8.298992   0.043203  -0.031181
    15  O   -0.000324   0.043203   7.948427   0.282106
    16  H   -0.000035  -0.031181   0.282106   0.481962
 Mulliken atomic charges:
              1
     1  C    0.157110
     2  H    0.114514
     3  O   -0.307475
     4  H    0.249456
     5  C   -0.195485
     6  C   -0.239421
     7  H    0.106069
     8  H    0.116127
     9  H    0.133324
    10  C   -0.208207
    11  H    0.104343
    12  H    0.125657
    13  H    0.118589
    14  O   -0.273625
    15  O   -0.267695
    16  H    0.266719
 Sum of Mulliken charges=   0.00000
 Atomic charges with hydrogens summed into heavy atoms:
              1
     1  C    0.271624
     2  H    0.000000
     3  O   -0.058019
     4  H    0.000000
     5  C   -0.195485
     6  C    0.116099
     7  H    0.000000
     8  H    0.000000
     9  H    0.000000
    10  C    0.140382
    11  H    0.000000
    12  H    0.000000
    13  H    0.000000
    14  O   -0.273625
    15  O   -0.000976
    16  H    0.000000
 Sum of Mulliken charges=   0.00000
          Atomic-Atomic Spin Densities.
              1          2          3          4          5          6
     1  C    0.570949  -0.000226  -0.090906  -0.001043   0.078002  -0.005444
     2  H   -0.000226  -0.027253   0.000473  -0.000175   0.001084   0.000325
     3  O   -0.090906   0.000473   0.200760   0.001574  -0.005378   0.000101
     4  H   -0.001043  -0.000175   0.001574  -0.003567   0.001486  -0.000084
     5  C    0.078002   0.001084  -0.005378   0.001486  -0.072143  -0.000801
     6  C   -0.005444   0.000325   0.000101  -0.000084  -0.000801   0.003357
     7  H   -0.000361   0.000183  -0.000002   0.000009   0.000948  -0.000974
     8  H   -0.000304  -0.000038   0.000003   0.000033   0.001437  -0.000713
     9  H   -0.000484  -0.000010  -0.000003  -0.000043   0.003176   0.001759
    10  C   -0.015160   0.000372   0.001610   0.000077  -0.000961   0.000496
    11  H   -0.000331  -0.000007   0.000029  -0.000386   0.001987  -0.000118
    12  H   -0.000093   0.000001  -0.000008  -0.000088   0.002186  -0.000038
    13  H   -0.000468  -0.000026  -0.000005   0.000234   0.001169   0.000181
    14  O   -0.041619  -0.001244   0.003956  -0.000846  -0.073515   0.004276
    15  O    0.008095   0.000147  -0.003276  -0.000331   0.008413  -0.000168
    16  H   -0.001783  -0.000027   0.000370  -0.000073  -0.000038   0.000016
              7          8          9         10         11         12
     1  C   -0.000361  -0.000304  -0.000484  -0.015160  -0.000331  -0.000093
     2  H    0.000183  -0.000038  -0.000010   0.000372  -0.000007   0.000001
     3  O   -0.000002   0.000003  -0.000003   0.001610   0.000029  -0.000008
     4  H    0.000009   0.000033  -0.000043   0.000077  -0.000386  -0.000088
     5  C    0.000948   0.001437   0.003176  -0.000961   0.001987   0.002186
     6  C   -0.000974  -0.000713   0.001759   0.000496  -0.000118  -0.000038
     7  H   -0.000389   0.000325  -0.000077   0.000250  -0.000008   0.000012
     8  H    0.000325  -0.006566   0.002709   0.001062   0.000066   0.000348
     9  H   -0.000077   0.002709  -0.006520  -0.001407  -0.000080  -0.000677
    10  C    0.000250   0.001062  -0.001407   0.031907  -0.002200  -0.002366
    11  H   -0.000008   0.000066  -0.000080  -0.002200  -0.001327   0.000032
    12  H    0.000012   0.000348  -0.000677  -0.002366   0.000032  -0.000735
    13  H    0.000006  -0.000728   0.000339   0.001868   0.001301   0.000972
    14  O   -0.000512  -0.000202  -0.000476  -0.010775   0.001328   0.000140
    15  O    0.000015   0.000013   0.000013   0.001222  -0.001004  -0.000060
    16  H   -0.000005   0.000003  -0.000024  -0.000190   0.000002  -0.000003
             13         14         15         16
     1  C   -0.000468  -0.041619   0.008095  -0.001783
     2  H   -0.000026  -0.001244   0.000147  -0.000027
     3  O   -0.000005   0.003956  -0.003276   0.000370
     4  H    0.000234  -0.000846  -0.000331  -0.000073
     5  C    0.001169  -0.073515   0.008413  -0.000038
     6  C    0.000181   0.004276  -0.000168   0.000016
     7  H    0.000006  -0.000512   0.000015  -0.000005
     8  H   -0.000728  -0.000202   0.000013   0.000003
     9  H    0.000339  -0.000476   0.000013  -0.000024
    10  C    0.001868  -0.010775   0.001222  -0.000190
    11  H    0.001301   0.001328  -0.001004   0.000002
    12  H    0.000972   0.000140  -0.000060  -0.000003
    13  H   -0.009755  -0.000379   0.000092   0.000009
    14  O   -0.000379   0.593709  -0.044392   0.000279
    15  O    0.000092  -0.044392   0.082271   0.000658
    16  H    0.000009   0.000279   0.000658  -0.002911
 Mulliken atomic spin densities:
              1
     1  C    0.498824
     2  H   -0.026422
     3  O    0.109298
     4  H   -0.003225
     5  C   -0.052948
     6  C    0.002171
     7  H   -0.000579
     8  H   -0.002554
     9  H   -0.001805
    10  C    0.005806
    11  H   -0.000717
    12  H   -0.000376
    13  H   -0.005191
    14  O    0.429729
    15  O    0.051706
    16  H   -0.003718
 Sum of Mulliken spin densities=   1.00000
 APT atomic charges:
              1
     1  C    0.315113
     2  H    0.052519
     3  O   -0.579614
     4  H    0.267653
     5  C    0.067714
     6  C    0.048922
     7  H   -0.008565
     8  H   -0.014715
     9  H    0.015561
    10  C    0.046340
    11  H   -0.001286
    12  H    0.015901
    13  H   -0.013192
    14  O   -0.043624
    15  O   -0.400481
    16  H    0.231753
 Sum of APT charges=   0.00000
 APT Atomic charges with hydrogens summed into heavy atoms:
              1
     1  C    0.367632
     2  H    0.000000
     3  O   -0.311961
     4  H    0.000000
     5  C    0.067714
     6  C    0.041204
     7  H    0.000000
     8  H    0.000000
     9  H    0.000000
    10  C    0.047763
    11  H    0.000000
    12  H    0.000000
    13  H    0.000000
    14  O   -0.043624
    15  O   -0.168728
    16  H    0.000000
 Sum of APT charges=   0.00000
 Electronic spatial extent (au):  <R**2>=  1694.7816
 Charge=     0.0000 electrons
 Dipole moment (field-independent basis, Debye):
    X=    -1.2395    Y=     0.3541    Z=    -0.2434  Tot=     1.3119
 Quadrupole moment (field-independent basis, Debye-Ang):
   XX=   -39.5722   YY=   -42.0557   ZZ=   -41.2051
   XY=     4.4234   XZ=    -1.5706   YZ=     2.1686
 Traceless Quadrupole moment (field-independent basis, Debye-Ang):
   XX=     1.3722   YY=    -1.1114   ZZ=    -0.2608
   XY=     4.4234   XZ=    -1.5706   YZ=     2.1686
 Octapole moment (field-independent basis, Debye-Ang**2):
  XXX=   271.3203  YYY=     8.8908  ZZZ=   -51.1571  XYY=    98.9866
  XXY=    -8.1529  XXZ=    -5.1430  XZZ=    87.4532  YZZ=     9.8816
  YYZ=   -12.5102  XYZ=    -2.7803
 Hexadecapole moment (field-independent basis, Debye-Ang**3):
 XXXX= -1558.1743 YYYY=  -387.8778 ZZZZ=  -281.4711 XXXY=   -22.9254
 XXXZ=    72.6827 YYYX=   -33.5599 YYYZ=    39.1726 ZZZX=   112.2237
 ZZZY=    35.9420 XXYY=  -340.8054 XXZZ=  -287.3925 YYZZ=  -102.9827
 XXYZ=    26.7380 YYXZ=    30.6907 ZZXY=   -26.1670
 N-N= 3.310273777577D+02 E-N=-1.562073553852D+03  KE= 3.822112565852D+02
  Exact polarizability:  73.880   2.532  67.207   0.061  -2.854  56.810
 Approx polarizability: 116.673  -5.709  99.253   5.132  -9.571  80.828
                          Isotropic Fermi Contact Couplings
        Atom                 a.u.       MegaHertz       Gauss      10(-4) cm-1
     1  C(13)              0.02955      33.21996      11.85371      11.08099
     2  H(1)              -0.00727     -32.50696     -11.59929     -10.84315
     3  O(17)              0.01995     -12.09598      -4.31615      -4.03479
     4  H(1)              -0.00093      -4.14062      -1.47748      -1.38116
     5  C(13)              0.00043       0.48039       0.17141       0.16024
     6  C(13)              0.00089       1.00198       0.35753       0.33422
     7  H(1)              -0.00024      -1.06256      -0.37915      -0.35443
     8  H(1)              -0.00092      -4.09181      -1.46006      -1.36488
     9  H(1)               0.00005       0.20775       0.07413       0.06930
    10  C(13)              0.00441       4.96158       1.77042       1.65501
    11  H(1)              -0.00025      -1.09920      -0.39222      -0.36665
    12  H(1)               0.00009       0.39312       0.14028       0.13113
    13  H(1)              -0.00138      -6.18951      -2.20857      -2.06460
    14  O(17)              0.06447     -39.08100     -13.94507     -13.03602
    15  O(17)              0.00750      -4.54450      -1.62159      -1.51588
    16  H(1)              -0.00132      -5.91416      -2.11032      -1.97275
 --------------------------------------------------------
       Center         ----  Spin Dipole Couplings  ----
                      3XX-RR        3YY-RR        3ZZ-RR
 --------------------------------------------------------
     1   Atom        0.382210     -0.310202     -0.072008
     2   Atom        0.010398     -0.025922      0.015524
     3   Atom        0.311773     -0.321729      0.009956
     4   Atom        0.003403     -0.014045      0.010643
     5   Atom       -0.038986      0.038461      0.000525
     6   Atom       -0.000205      0.003144     -0.002940
     7   Atom       -0.000130     -0.000338      0.000469
     8   Atom        0.000058      0.003879     -0.003938
     9   Atom       -0.000112      0.004796     -0.004685
    10   Atom        0.001886     -0.002503      0.000616
    11   Atom       -0.003137     -0.002349      0.005487
    12   Atom       -0.002954      0.003409     -0.000455
    13   Atom       -0.002831      0.000832      0.001999
    14   Atom        1.243915     -0.624916     -0.618998
    15   Atom        0.314938     -0.154060     -0.160878
    16   Atom       -0.000360      0.012441     -0.012081
 --------------------------------------------------------
                        XY            XZ            YZ
 --------------------------------------------------------
     1   Atom        0.092577      0.417475      0.057587
     2   Atom       -0.015114     -0.016770      0.027206
     3   Atom        0.106217      0.467028      0.084347
     4   Atom       -0.009222     -0.018981      0.008016
     5   Atom        0.005486     -0.020372      0.009351
     6   Atom        0.003026      0.002108     -0.005526
     7   Atom        0.002529     -0.003360     -0.006017
     8   Atom        0.003496     -0.000218     -0.001560
     9   Atom        0.004064     -0.001505     -0.003219
    10   Atom       -0.004673     -0.003759      0.009209
    11   Atom       -0.001843     -0.000360      0.004133
    12   Atom        0.000571      0.001509      0.004212
    13   Atom        0.000729      0.002358      0.005398
    14   Atom       -0.953243      0.946903     -0.419101
    15   Atom       -0.149307      0.169468     -0.010549
    16   Atom        0.008694      0.002807      0.006886
 --------------------------------------------------------


 ---------------------------------------------------------------------------------
              Anisotropic Spin Dipole Couplings in Principal Axis System
 ---------------------------------------------------------------------------------

       Atom             a.u.   MegaHertz   Gauss  10(-4) cm-1        Axes

              Baa    -0.3239   -43.469   -15.511   -14.500  0.1712  0.8602 -0.4804
     1 C(13)  Bbb    -0.3189   -42.792   -15.269   -14.274 -0.4914  0.4972  0.7151
              Bcc     0.6428    86.260    30.780    28.773  0.8539  0.1136  0.5079
 
              Baa    -0.0402   -21.474    -7.663    -7.163  0.1377  0.9059 -0.4005
     2 H(1)   Bbb    -0.0032    -1.724    -0.615    -0.575  0.8211  0.1217  0.5577
              Bcc     0.0435    23.198     8.278     7.738 -0.5539  0.4057  0.7271
 
              Baa    -0.3427    24.800     8.849     8.272  0.1376  0.9065 -0.3990
     3 O(17)  Bbb    -0.3275    23.694     8.455     7.904 -0.5831  0.3998  0.7072
              Bcc     0.6702   -48.494   -17.304   -16.176  0.8006  0.1354  0.5836
 
              Baa    -0.0180    -9.613    -3.430    -3.207  0.4044  0.9145  0.0120
     4 H(1)   Bbb    -0.0117    -6.221    -2.220    -2.075  0.6685 -0.3046  0.6785
              Bcc     0.0297    15.834     5.650     5.282 -0.6241  0.2663  0.7345
 
              Baa    -0.0485    -6.506    -2.322    -2.170  0.9118 -0.1004  0.3982
     5 C(13)  Bbb     0.0078     1.052     0.375     0.351 -0.4105 -0.1982  0.8901
              Bcc     0.0406     5.455     1.946     1.819  0.0104  0.9750  0.2220
 
              Baa    -0.0077    -1.038    -0.370    -0.346 -0.4142  0.5012  0.7598
     6 C(13)  Bbb     0.0009     0.126     0.045     0.042  0.8775 -0.0021  0.4796
              Bcc     0.0068     0.912     0.325     0.304  0.2420  0.8654 -0.4389
 
              Baa    -0.0060    -3.207    -1.144    -1.070  0.1005  0.7025  0.7045
     7 H(1)   Bbb    -0.0022    -1.167    -0.417    -0.389  0.8877 -0.3830  0.2553
              Bcc     0.0082     4.374     1.561     1.459 -0.4492 -0.5998  0.6622
 
              Baa    -0.0043    -2.297    -0.820    -0.766 -0.1497  0.2464  0.9575
     8 H(1)   Bbb    -0.0019    -0.991    -0.354    -0.331  0.8555 -0.4533  0.2504
              Bcc     0.0062     3.288     1.173     1.097  0.4957  0.8566 -0.1430
 
              Baa    -0.0057    -3.036    -1.083    -1.013  0.0618  0.2709  0.9606
     9 H(1)   Bbb    -0.0024    -1.272    -0.454    -0.424  0.8818 -0.4656  0.0746
              Bcc     0.0081     4.308     1.537     1.437  0.4675  0.8425 -0.2677
 
              Baa    -0.0104    -1.397    -0.498    -0.466  0.1087  0.7809 -0.6152
    10 C(13)  Bbb    -0.0015    -0.198    -0.071    -0.066  0.8536  0.2438  0.4604
              Bcc     0.0119     1.595     0.569     0.532 -0.5095  0.5752  0.6400
 
              Baa    -0.0053    -2.823    -1.007    -0.942  0.5998  0.7536 -0.2690
    11 H(1)   Bbb    -0.0021    -1.110    -0.396    -0.370  0.7936 -0.5174  0.3203
              Bcc     0.0074     3.933     1.404     1.312 -0.1022  0.4055  0.9083
 
              Baa    -0.0041    -2.187    -0.781    -0.730  0.6972  0.3097 -0.6465
    12 H(1)   Bbb    -0.0022    -1.171    -0.418    -0.390  0.7030 -0.4717  0.5322
              Bcc     0.0063     3.358     1.198     1.120  0.1401  0.8256  0.5466
 
              Baa    -0.0047    -2.528    -0.902    -0.843 -0.5705 -0.5318  0.6258
    13 H(1)   Bbb    -0.0026    -1.390    -0.496    -0.464  0.7921 -0.5576  0.2482
              Bcc     0.0073     3.918     1.398     1.307  0.2170  0.6373  0.7394
 
              Baa    -1.0417    75.377    26.896    25.143  0.0685  0.7809  0.6209
    14 O(17)  Bbb    -1.0048    72.706    25.943    24.252 -0.5082 -0.5083  0.6953
              Bcc     2.0465  -148.083   -52.840   -49.395  0.8585 -0.3631  0.3621
 
              Baa    -0.2397    17.345     6.189     5.786 -0.3765 -0.5659  0.7335
    15 O(17)  Bbb    -0.1672    12.102     4.318     4.037  0.0256  0.7851  0.6188
              Bcc     0.4070   -29.447   -10.508    -9.823  0.9261 -0.2517  0.2811
 
              Baa    -0.0139    -7.420    -2.648    -2.475 -0.0486 -0.2375  0.9702
    16 H(1)   Bbb    -0.0047    -2.518    -0.898    -0.840  0.9000 -0.4317 -0.0606
              Bcc     0.0186     9.938     3.546     3.315  0.4332  0.8702  0.2347
 

 ---------------------------------------------------------------------------------

 Use density number 0.
 Entering OneElI...
 Calculate overlap and kinetic energy integrals
    NBasis = 187  MinDer = 2  MaxDer = 2
 Requested accuracy = 0.1000D-12
 PrsmSu:  NPrtUS=   1 ThrOK=F
 PRISM was handed   130759210 working-precision words and  2556 shell-pairs
 Entering OneElI...
 Calculate potential energy integrals
    NBasis = 187  MinDer = 2  MaxDer = 2
 Requested accuracy = 0.1000D-12
 PrsmSu:  NPrtUS=   8 ThrOK=T
 PRISM was handed    16301188 working-precision words and  2399 shell-pairs
 PRISM was handed    16301188 working-precision words and  2399 shell-pairs
 PRISM was handed    16301188 working-precision words and  2399 shell-pairs
 PRISM was handed    16301188 working-precision words and  2399 shell-pairs
 PRISM was handed    16301188 working-precision words and  2399 shell-pairs
 PRISM was handed    16301188 working-precision words and  2399 shell-pairs
 PRISM was handed    16301188 working-precision words and  2399 shell-pairs
 PRISM was handed    16301188 working-precision words and  2399 shell-pairs
 Polarizability after L701:
                1             2             3
      1  0.738800D+02
      2  0.253241D+01  0.672072D+02
      3  0.605499D-01 -0.285386D+01  0.568104D+02
 Dipole Derivatives after L701:
               1            2            3            4            5
      1-0.146940D-01-0.652559D+00-0.427856D-01 0.137568D+00 0.326470D-01
      2 0.242320D+00 0.541259D+00-0.510787D+00-0.239116D-01 0.254136D-01
      3-0.206316D+00-0.397344D+00 0.418773D+00 0.812106D-01-0.281112D-01
               6            7            8            9           10
      1 0.122678D+00-0.161612D+00 0.176206D+00-0.194211D+00 0.215181D+00
      2-0.483365D-01-0.296131D+00-0.892312D+00 0.614136D+00 0.180365D-01
      3-0.542412D-02 0.137477D+00 0.341032D+00-0.684917D+00 0.351300D-01
              11           12           13           14           15
      1 0.853535D-01 0.405330D-01-0.353076D+00 0.505918D+00-0.371342D-01
      2 0.266782D+00-0.980983D-01-0.155365D+00 0.340314D+00-0.496383D-01
      3-0.441905D-01 0.320995D+00-0.177218D+00 0.132014D+00 0.215905D+00
              16           17           18           19           20
      1 0.845029D-01-0.404883D-01 0.542312D-02 0.507878D-01 0.408693D-01
      2-0.247385D-01 0.295813D-01 0.942691D-03 0.110096D-01 0.408056D-02
      3 0.304047D-01 0.471864D-01 0.326833D-01 0.576121D-01-0.103466D+00
              21           22           23           24           25
      1 0.656566D-01-0.531051D-01-0.993106D-01-0.559310D-01-0.129828D-01
      2-0.389812D-01-0.119114D+00-0.145084D-01-0.181922D-01 0.113815D+00
      3-0.805625D-01-0.349954D-01-0.139908D-01 0.234689D-01-0.441427D-01
              26           27           28           29           30
      1 0.269163D-01 0.344478D-01 0.120661D+00-0.104921D-01 0.843832D-01
      2 0.447892D-03 0.426048D-01-0.239704D-01 0.438048D-01-0.574020D-02
      3 0.215209D-01 0.592172D-01 0.994125D-01 0.172457D-02-0.254465D-01
              31           32           33           34           35
      1 0.174258D-01-0.879946D-01 0.269788D-01 0.669807D-01 0.376473D-01
      2-0.390685D-01-0.218967D-01 0.397649D-01 0.724283D-01-0.705622D-01
      3 0.885283D-01 0.667151D-01 0.614225D-03 0.928479D-03-0.133563D-01
              36           37           38           39           40
      1-0.459351D-01-0.564721D-01-0.759640D-02-0.733554D-01 0.421052D+00
      2 0.437567D-01-0.217454D-01 0.400589D-01-0.684068D-01 0.325332D+00
      3 0.512855D-01-0.977399D-01-0.279108D-01-0.231629D-01 0.229018D-01
              41           42           43           44           45
      1 0.590982D+00-0.419182D+00-0.781269D+00-0.633887D+00 0.371836D+00
      2-0.196353D+00 0.175889D-01-0.936288D-01-0.282912D+00 0.121152D+00
      3-0.270654D-01-0.355572D+00-0.480520D-01 0.713807D-01-0.137262D+00
              46           47           48
      1 0.319054D+00 0.357888D-01 0.116597D+00
      2 0.147315D-01 0.186802D+00-0.417653D-01
      3 0.548589D-01-0.261386D-01 0.189405D+00
 Hessian after L701:
                1             2             3             4             5
      1  0.220252D+02
      2  0.803797D+00  0.920908D+01
      3  0.433905D+01  0.409700D+01  0.176621D+02
      4 -0.392960D+01 -0.643408D+00 -0.143146D+01  0.364883D+01
      5 -0.650277D+00 -0.444943D+01  0.104285D+01  0.825006D+00  0.446494D+01
      6 -0.134581D+01  0.971815D+00 -0.273532D+01  0.145908D+01 -0.111049D+01
      7 -0.870436D+01  0.220805D+01 -0.211407D+01 -0.170954D-01 -0.132889D+00
      8  0.246383D+01 -0.433284D+01 -0.526249D+01 -0.106996D+00 -0.121397D-01
      9 -0.226279D+01 -0.505152D+01 -0.513852D+01  0.745688D-01  0.217830D+00
     10  0.169561D+00  0.783585D-01 -0.345592D-01  0.382325D-01 -0.424640D-02
     11 -0.449822D-01  0.196879D+00  0.381245D-01  0.491155D-02 -0.335425D-01
     12  0.363254D-01 -0.970869D-01  0.147946D+00 -0.902041D-01  0.777521D-02
     13 -0.105164D+02 -0.220739D+01 -0.111926D+01  0.192467D+00  0.932050D-01
     14 -0.246769D+01 -0.532009D+00  0.251399D+00  0.103165D+00 -0.798686D-01
     15 -0.115091D+01  0.211367D+00 -0.951585D+01  0.847340D-01 -0.239881D+00
     16 -0.784918D-01 -0.659947D-01  0.599873D-01 -0.168878D-01 -0.505918D-02
     17  0.208562D-02  0.143624D+00 -0.150938D+00 -0.188954D-01  0.135391D-01
     18  0.465481D-01 -0.106275D+00 -0.147541D-01 -0.722179D-02  0.546858D-02
     19 -0.471184D-02  0.124658D-01 -0.820108D-02 -0.266419D-01  0.767505D-02
     20  0.232802D-02 -0.252160D-01  0.252068D-01 -0.509543D-02  0.345601D-01
     21 -0.201048D-01 -0.189404D-01  0.195446D-02  0.110835D-01 -0.463827D-01
     22  0.229520D-01  0.464597D-01 -0.372747D-03 -0.789819D-02  0.994062D-02
     23  0.403533D-01  0.112352D-01  0.127229D-01 -0.383281D-02  0.175754D-01
     24  0.889537D-02  0.285783D-01 -0.200268D-01 -0.153113D-02  0.493346D-02
     25 -0.258767D-01 -0.750728D-01  0.384472D-01  0.403836D-02 -0.662064D-02
     26 -0.586032D-01  0.116182D+00 -0.869808D-01 -0.683694D-02  0.679256D-02
     27  0.308902D-01 -0.881928D-01 -0.198359D-02  0.178647D-02 -0.176974D-02
     28  0.168469D+00  0.530015D-01  0.501802D-01 -0.128330D-01 -0.450330D-01
     29  0.133609D+00  0.126348D+00  0.308906D-01 -0.601847D-01  0.500653D-01
     30  0.126718D+00 -0.133332D-01  0.102748D+00 -0.562724D-01  0.951327D-01
     31  0.178220D-01 -0.143338D-01 -0.125209D-01  0.493059D-02 -0.485160D-02
     32  0.749652D-02 -0.198342D-01 -0.221359D-01  0.122417D-02 -0.259592D-02
     33  0.353933D-02 -0.910291D-02 -0.238250D-01 -0.636919D-02  0.458490D-02
     34 -0.704875D-02 -0.949329D-01 -0.324846D-01  0.210174D-02 -0.152280D-02
     35 -0.948033D-01  0.145331D+00  0.726734D-01 -0.573655D-02  0.332934D-02
     36 -0.337074D-01  0.684789D-01 -0.306549D-01  0.354659D-03 -0.289372D-02
     37 -0.378908D-02  0.447813D-01  0.433576D-01 -0.643669D-02  0.393803D-02
     38  0.298911D-01  0.271207D-02  0.170544D-01 -0.237400D-02  0.287221D-02
     39  0.360797D-01  0.356335D-01  0.813331D-02 -0.502081D-02  0.904478D-02
     40  0.372878D+00 -0.115802D+00  0.235113D+00  0.668280D-01 -0.614876D-01
     41 -0.107231D+00 -0.248500D+00 -0.921047D-01 -0.590154D-01 -0.281056D-02
     42  0.169830D+00 -0.679381D-01 -0.112647D+00 -0.928562D-02  0.666370D-02
     43  0.430433D+00 -0.569030D-01 -0.320418D-01  0.560767D-01 -0.263916D-01
     44 -0.113631D+00 -0.334664D+00  0.169928D-01 -0.302307D-01 -0.863123D-02
     45 -0.288023D-01  0.267827D-01 -0.314430D+00 -0.303661D-01  0.946296D-02
     46  0.630163D-01  0.269280D-01  0.188393D-01  0.389732D-02 -0.138548D-02
     47  0.538325D-01 -0.889714D-02  0.973196D-02  0.829949D-02 -0.466217D-02
     48  0.442502D-01  0.127409D-01 -0.148575D-01  0.612333D-02 -0.233064D-02
                6             7             8             9            10
      6  0.252017D+01
      7  0.967916D-01  0.126649D+02
      8  0.146128D+00  0.100499D+00  0.943550D+01
      9  0.398946D-01  0.423957D+01  0.429555D+01  0.109045D+02
     10 -0.988716D-01 -0.400307D+01 -0.146596D+01 -0.260760D+01  0.391538D+01
     11 -0.380507D-02 -0.113560D+01 -0.664687D+01  0.908521D+00  0.134344D+01
     12  0.996181D-01 -0.287919D+01  0.129711D+01 -0.484340D+01  0.263291D+01
     13  0.501731D-01  0.893290D-01 -0.651422D-01  0.229028D+00  0.212006D-01
     14 -0.194673D+00 -0.108221D-01  0.650279D+00  0.812703D-01 -0.138666D-02
     15  0.868946D-01  0.194128D+00  0.127644D+00 -0.593108D-01  0.547646D-01
     16 -0.108294D-01 -0.151728D+00  0.866149D-01 -0.377778D-01 -0.553564D-02
     17  0.312185D-01  0.719261D-01  0.245708D+00 -0.223929D+00  0.262584D-01
     18 -0.144995D-01 -0.366468D-01 -0.236372D+00 -0.456401D-01 -0.205403D-01
     19  0.161657D-02 -0.165105D-01  0.194694D-01 -0.158472D-01  0.250110D-02
     20 -0.185328D-01  0.458489D-02 -0.536084D-02 -0.157799D-01 -0.999836D-03
     21 -0.212585D-01 -0.814711D-02 -0.548677D-01  0.287978D-01 -0.911472D-02
     22  0.768649D-02 -0.696076D-02  0.360297D-01 -0.827152D-02  0.563023D-02
     23  0.108223D-01  0.120335D-01  0.344476D-01 -0.137768D-01  0.580939D-02
     24 -0.370165D-03 -0.141292D-02 -0.600322D-03 -0.127152D-01  0.126106D-02
     25 -0.589078D-02 -0.712667D-02 -0.228106D-01  0.743614D-02 -0.545014D-02
     26  0.820956D-02 -0.634280D-02  0.336592D-01 -0.174151D-01  0.694532D-02
     27 -0.375115D-02  0.329004D-02 -0.191283D-01 -0.390816D-02 -0.381106D-02
     28 -0.500174D-01 -0.302270D+00 -0.118337D+00 -0.404535D-02 -0.551336D-01
     29  0.106450D+00 -0.203301D+00  0.472015D+00  0.102151D+00  0.823204D-01
     30  0.520897D-01 -0.613376D-02  0.233777D-02 -0.306412D+00 -0.138064D-01
     31 -0.985866D-02 -0.732939D-02 -0.846735D-01 -0.526782D-01 -0.533140D-01
     32 -0.256637D-02 -0.217006D-01 -0.259491D-01  0.412642D-01 -0.158305D-01
     33  0.745052D-02 -0.495992D-01  0.914874D-01  0.415377D-02  0.202653D-02
     34 -0.361091D-02 -0.102687D-01 -0.277908D-01 -0.364799D-02 -0.502898D-02
     35  0.846925D-02 -0.271724D-01  0.802676D-01  0.893133D-02  0.101007D-01
     36 -0.108361D-02  0.123095D-02  0.113310D-02 -0.178144D-01 -0.120759D-02
     37  0.683541D-02 -0.335120D-01  0.579772D-01  0.230837D-01  0.847770D-02
     38  0.780841D-02  0.732861D-02  0.741749D-01  0.374276D-01  0.141106D-02
     39  0.113767D-01  0.235027D-02  0.660013D-01 -0.124803D-01  0.604188D-02
     40 -0.455514D-01 -0.223679D-01 -0.357700D+00  0.221254D+00 -0.309840D-01
     41  0.232724D-01 -0.352304D+00  0.150074D+00 -0.259535D+00  0.934506D-02
     42 -0.298570D-01  0.250566D+00 -0.290929D+00 -0.135024D+00 -0.908508D-02
     43 -0.475779D-01  0.450043D+00 -0.467406D+00  0.146900D+00  0.565536D-02
     44  0.228921D-01 -0.536756D+00 -0.874651D-01 -0.116626D+00 -0.732175D-01
     45 -0.466281D-02  0.205527D+00 -0.126907D+00 -0.382018D+00  0.107373D+00
     46 -0.415908D-02  0.783356D-01 -0.475971D-01  0.508088D-01 -0.812257D-02
     47 -0.701807D-02  0.224726D-01 -0.655086D-01  0.563937D-02 -0.234443D-02
     48 -0.668665D-02  0.101742D+00 -0.361050D-01 -0.200715D-01 -0.579054D-02
               11            12            13            14            15
     11  0.653836D+01
     12 -0.104311D+01  0.479605D+01
     13 -0.683568D-01  0.740497D-01  0.200326D+02
     14 -0.693469D-01  0.117800D+00  0.123125D+01  0.111411D+02
     15  0.177276D+00 -0.128912D+00  0.223261D+01 -0.170401D+00  0.161456D+02
     16  0.835929D-02 -0.135785D-01 -0.552526D+01  0.144452D+01 -0.150614D+01
     17  0.685997D-02 -0.354262D-01  0.141915D+01 -0.407251D+01 -0.240895D+01
     18 -0.181344D-01  0.127162D-01 -0.141361D+01 -0.232244D+01 -0.354017D+01
     19 -0.116554D-03 -0.427689D-02  0.954052D-01  0.164001D-01 -0.261587D-01
     20 -0.207123D-03  0.614543D-03 -0.129005D-01  0.735480D-01  0.623290D-01
     21  0.266718D-03  0.894802D-02 -0.573274D-01 -0.760409D-02  0.284013D-01
     22 -0.978029D-03 -0.587744D-02  0.870401D-01  0.592050D-02  0.341457D-01
     23 -0.165489D-02 -0.530186D-02 -0.107278D-01  0.949039D-01  0.208299D-01
     24  0.155244D-03 -0.144255D-02  0.761387D-01  0.565672D-01  0.785119D-01
     25  0.115346D-02  0.366319D-02  0.113345D+00 -0.101571D+00  0.877496D-01
     26  0.257980D-02 -0.102032D-01 -0.427304D-01 -0.177892D-02 -0.111867D-01
     27 -0.335628D-02  0.449949D-02  0.326377D-01  0.304503D-01  0.932525D-01
     28  0.288008D-01 -0.122195D-01 -0.611855D+01 -0.525153D+00 -0.953958D+00
     29  0.746064D-01 -0.611946D-01 -0.594473D+00 -0.533703D+01  0.211976D+01
     30 -0.156326D-01 -0.518683D-01 -0.106080D+01  0.206425D+01 -0.171745D+01
     31 -0.298373D-01  0.349293D-02  0.473155D-01 -0.225615D-02 -0.335471D-01
     32  0.748523D-01  0.199317D-01  0.328022D-01  0.464249D-01 -0.341756D-01
     33  0.439063D-01 -0.469720D-01  0.217206D-01  0.375787D-01  0.120991D-01
     34  0.982297D-03  0.323010D-02  0.548400D-01 -0.304658D-02 -0.200653D-02
     35  0.189977D-02 -0.947750D-02 -0.132557D-02  0.448152D-01 -0.537528D-02
     36 -0.545180D-03 -0.121221D-02  0.383413D-01 -0.835558D-01  0.203866D-01
     37 -0.450365D-02 -0.701028D-02  0.116939D+00 -0.215756D-01 -0.172232D-01
     38 -0.100735D-01 -0.600188D-02 -0.396283D-01  0.813867D-01 -0.453014D-01
     39 -0.371564D-02 -0.456384D-02 -0.695026D-01 -0.384868D-01  0.838439D-01
     40 -0.605573D-02  0.373732D-01  0.978528D+00  0.351164D+00  0.875078D+00
     41 -0.620817D-02 -0.629675D-01  0.399470D+00 -0.181854D+01  0.112194D+00
     42 -0.201639D-01  0.381305D-01  0.777562D+00  0.819513D-01 -0.143348D+01
     43 -0.996895D-01  0.216675D+00  0.344732D+00 -0.376132D-01  0.124302D+00
     44 -0.128370D+00 -0.123374D+00 -0.165517D+00 -0.261273D+00  0.727812D-01
     45 -0.630671D-01 -0.389111D-01  0.171305D+00  0.744295D-01 -0.153431D+00
     46  0.247480D-02  0.462835D-02 -0.135489D-01  0.186963D-01  0.243261D-02
     47  0.227393D-03  0.109093D-01  0.323183D-01  0.398642D-01  0.110925D-01
     48  0.327785D-02  0.937385D-02  0.169312D-01  0.214689D-01 -0.349075D-03
               16            17            18            19            20
     16  0.148998D+02
     17 -0.137928D+01  0.141167D+02
     18  0.123521D+01  0.186314D+01  0.140192D+02
     19 -0.407831D+01 -0.468115D+00 -0.771117D+00  0.385976D+01
     20 -0.346761D+00 -0.377968D+01  0.989762D+00  0.347968D+00  0.379227D+01
     21 -0.687152D+00  0.120776D+01 -0.229913D+01  0.988946D+00 -0.966284D+00
     22 -0.249334D+01  0.113058D+01  0.797352D+00  0.730675D-01 -0.184433D-01
     23  0.117432D+01 -0.340557D+01  0.555872D+00 -0.396205D-01  0.105061D-01
     24  0.661477D+00  0.446985D+00 -0.390539D+01 -0.535667D-01 -0.709985D-01
     25 -0.296767D+01 -0.126127D+01  0.485824D+00  0.217468D-01  0.418616D-01
     26 -0.152194D+01 -0.299653D+01 -0.504799D+00  0.731073D-01  0.318701D-02
     27  0.652303D+00 -0.567111D+00 -0.412902D+01  0.460868D-01 -0.437329D-01
     28 -0.225542D-02  0.988783D-02 -0.148894D+00 -0.180168D-01 -0.968796D-02
     29  0.441193D-01 -0.681657D-01 -0.120637D+00 -0.861961D-02 -0.514344D-01
     30 -0.113450D+00 -0.286719D-01  0.215990D+00 -0.851842D-01  0.211072D-01
     31  0.176977D-01  0.406101D-01 -0.118848D+00  0.140646D-02 -0.306488D-02
     32  0.373241D-01 -0.360843D-01 -0.620080D-01  0.166909D-02 -0.122267D-02
     33 -0.115458D+00 -0.691441D-01  0.131667D+00  0.692185D-03  0.441379D-02
     34 -0.146606D-04 -0.566487D-02 -0.198809D-01  0.198688D-02 -0.448139D-02
     35 -0.114284D-01  0.247627D-02  0.171519D-01 -0.703000D-02  0.373524D-02
     36  0.246349D-02 -0.800787D-02 -0.138626D-01 -0.508003D-02  0.362379D-02
     37 -0.106766D-01  0.146938D-02  0.266152D-01 -0.306359D-02  0.254721D-02
     38 -0.856421D-04 -0.144804D-01 -0.844099D-02 -0.440598D-03 -0.600791D-03
     39  0.115188D-01  0.811975D-03  0.149115D-01 -0.191337D-02  0.396295D-02
     40  0.263973D+00  0.238889D+00  0.637042D-01  0.721289D-01  0.193135D-02
     41  0.339859D+00 -0.114776D+00  0.221938D-01  0.342219D-01 -0.402477D-01
     42 -0.106906D-01  0.222309D-01 -0.321067D+00 -0.454430D-01  0.493455D-02
     43  0.151220D+00  0.190655D+00 -0.118480D+00  0.186956D-01  0.729962D-03
     44  0.179203D+00 -0.428896D-01 -0.767507D-01  0.611157D-02 -0.113800D-01
     45 -0.135932D+00 -0.866936D-01 -0.105562D+00 -0.230864D-01  0.202070D-03
     46 -0.250771D-02  0.171256D-02 -0.165778D-04  0.554315D-03 -0.515869D-03
     47  0.162283D-01  0.174636D-02  0.226735D-02  0.485450D-02 -0.246272D-02
     48  0.805386D-02  0.671966D-02 -0.535595D-02  0.253301D-02 -0.828519D-03
               21            22            23            24            25
     21  0.202115D+01
     22 -0.348300D-01  0.226362D+01
     23 -0.842855D-01 -0.133957D+01  0.315715D+01
     24 -0.166636D-01 -0.606823D+00 -0.457342D+00  0.383804D+01
     25  0.165829D-01 -0.795053D-01  0.280808D-01 -0.596867D-01  0.293937D+01
     26 -0.277115D-01  0.123910D-01  0.105783D+00  0.206055D-02  0.132736D+01
     27  0.682834D-01 -0.895674D-01  0.117162D-01  0.582370D-01 -0.557336D+00
     28 -0.772014D-01  0.221080D-01  0.291269D-01 -0.328284D-01 -0.193136D-02
     29  0.209749D-01  0.334396D-01 -0.217595D-01 -0.116382D-01 -0.143357D-01
     30  0.164681D+00 -0.621305D-01 -0.276226D-01  0.567766D-02  0.175847D-01
     31 -0.393184D-02  0.891780D-02  0.747111D-02 -0.268946D-02 -0.513680D-02
     32 -0.420474D-02  0.745576D-02  0.205976D-02 -0.150143D-02 -0.298470D-02
     33 -0.271067D-03 -0.102468D-01 -0.670591D-02  0.628725D-03  0.423108D-02
     34 -0.996716D-02  0.771164D-02  0.411496D-02  0.724757D-03 -0.204952D-01
     35  0.143356D-01 -0.119797D-01 -0.653647D-02  0.225335D-03  0.501896D-02
     36  0.675049D-02 -0.133570D-02 -0.688841D-03 -0.337714D-02 -0.882752D-02
     37  0.707336D-02 -0.132049D-01 -0.128201D-02 -0.600919D-02  0.441343D-02
     38  0.102536D-02  0.411962D-02 -0.730681D-02 -0.746609D-02 -0.937925D-03
     39  0.766700D-02 -0.238419D-01 -0.182723D-01  0.205339D-01  0.851717D-02
     40 -0.807887D-01  0.903311D-01  0.745241D-01  0.116841D-01  0.520243D-01
     41 -0.230077D-01  0.677794D-01  0.817541D-02  0.802892D-02  0.714697D-01
     42 -0.486307D-02  0.642524D-02  0.329268D-02 -0.320503D-01 -0.325023D-01
     43 -0.330378D-01  0.179321D-01  0.171326D-01  0.380111D-02 -0.213525D-01
     44 -0.428345D-02  0.102099D-01 -0.323178D-02  0.230284D-03  0.102942D-01
     45  0.996393D-02 -0.612920D-02 -0.395138D-02 -0.100118D-01 -0.327080D-02
     46 -0.208361D-02  0.160000D-02  0.206318D-02  0.566053D-03 -0.394896D-03
     47 -0.679274D-02  0.664357D-02  0.421544D-02  0.178186D-02  0.362270D-03
     48 -0.440899D-02  0.381725D-02  0.269133D-02  0.419237D-03 -0.252162D-02
               26            27            28            29            30
     26  0.272318D+01
     27  0.741601D+00  0.398205D+01
     28  0.274878D-02 -0.733181D-02  0.161541D+02
     29  0.441283D-02  0.268158D-02  0.762729D-01  0.151183D+02
     30  0.116801D-01 -0.372394D-01  0.546652D+00 -0.135061D+01  0.132316D+02
     31  0.560218D-02 -0.430519D-02 -0.322192D+01  0.114852D+01 -0.980257D+00
     32  0.368433D-02 -0.480028D-02  0.103132D+01 -0.380700D+01 -0.732547D+00
     33 -0.723893D-02  0.456592D-02 -0.121729D+01 -0.997619D+00 -0.381200D+01
     34  0.629164D-02 -0.209919D-01 -0.400451D+01 -0.106849D+01  0.168530D+00
     35 -0.275161D-01  0.129711D-01 -0.116298D+01 -0.204931D+01 -0.420703D+00
     36 -0.110988D-01  0.415758D-01  0.742909D-01 -0.185091D+00 -0.448834D+01
     37 -0.584467D-02  0.625109D-02 -0.251943D+01  0.238599D+00  0.133031D+01
     38 -0.995595D-03 -0.164399D-02  0.335288D+00 -0.428725D+01  0.237627D+00
     39 -0.807614D-02  0.802867D-02  0.146049D+01  0.183472D+00 -0.326525D+01
     40  0.174873D+00 -0.742816D-01 -0.147522D+00 -0.316423D-01  0.122376D+00
     41 -0.370392D-02 -0.456859D-01  0.432347D-01 -0.179172D+00  0.736003D-01
     42 -0.550005D-01 -0.752802D-01  0.175140D+00  0.137852D-01  0.772204D-01
     43  0.276380D-01 -0.139790D-01  0.598932D-01  0.207754D+00  0.514275D-01
     44  0.197029D-01 -0.197736D-01  0.219331D+00 -0.586982D-01  0.612052D-01
     45 -0.266899D-01 -0.660501D-02  0.169592D+00  0.118726D+00 -0.175546D+00
     46  0.534334D-02 -0.164052D-02 -0.168353D-03  0.164108D-01  0.144350D-01
     47  0.113583D-01 -0.422569D-02  0.321804D-01  0.141159D-01  0.221816D-01
     48  0.284884D-02 -0.270546D-02  0.274411D-01  0.279011D-01  0.413888D-02
               31            32            33            34            35
     31  0.326002D+01
     32 -0.103234D+01  0.380239D+01
     33  0.118476D+01  0.736849D+00  0.346395D+01
     34  0.686534D-01 -0.403797D-01  0.126609D-01  0.400592D+01
     35  0.908917D-02 -0.111911D-01  0.364502D-01  0.110255D+01  0.167380D+01
     36 -0.982866D-02  0.317493D-01  0.479938D-01 -0.715717D-01  0.567711D-01
     37 -0.106983D+00 -0.766505D-01 -0.778726D-02 -0.305450D-01  0.665710D-01
     38 -0.112273D+00  0.679001D-01 -0.932016D-02  0.881285D-01  0.468432D-01
     39 -0.871365D-02 -0.809867D-02  0.123614D+00 -0.694247D-01  0.465208D-01
     40 -0.216142D-01 -0.439047D-02 -0.100088D-01 -0.423577D-01  0.793275D-01
     41  0.436368D-02 -0.586894D-03  0.397649D-01  0.263415D-01  0.298354D-01
     42 -0.484415D-01 -0.144641D-01  0.370219D-01  0.423345D-01  0.116141D+00
     43 -0.521290D-02  0.831864D-01  0.196421D+00 -0.201340D-01  0.448161D-01
     44  0.806662D-01 -0.844345D-01  0.109608D+00  0.166269D-01  0.478967D-01
     45  0.110013D+00  0.687536D-01  0.535752D-01  0.600310D-02  0.350675D-01
     46 -0.525218D-02 -0.819787D-02 -0.929507D-02 -0.815169D-03  0.498461D-02
     47 -0.126943D-01 -0.841286D-02 -0.551250D-02  0.127732D-02  0.143231D-01
     48 -0.126467D-01 -0.120458D-01 -0.365122D-02  0.102682D-03  0.984735D-02
               36            37            38            39            40
     36  0.440597D+01
     37 -0.549400D-01  0.251651D+01
     38  0.506810D-01 -0.353156D+00  0.408367D+01
     39  0.468777D-01 -0.147238D+01 -0.310179D+00  0.289498D+01
     40  0.615235D-01  0.547920D-01  0.264748D-01  0.979107D-01  0.131018D+01
     41  0.609631D-01  0.264575D-01 -0.307265D-01  0.283411D-01 -0.319788D+01
     42  0.633643D-02  0.934712D-01  0.262359D-01  0.581506D-01  0.123172D+01
     43  0.673295D-02  0.247948D-01  0.150231D-01  0.262931D-01 -0.298102D+01
     44  0.150815D-01  0.139105D-01 -0.966654D-02  0.776915D-02  0.298107D+01
     45 -0.192783D-01  0.230283D-01  0.860593D-02  0.563654D-03 -0.292762D+01
     46  0.156076D-02  0.170772D-02  0.123060D-02  0.159693D-02 -0.157990D-01
     47  0.339956D-02  0.676144D-02  0.154127D-02  0.527114D-02 -0.153301D+00
     48 -0.274150D-03  0.532386D-02  0.188851D-02  0.360612D-02  0.180514D+00
               41            42            43            44            45
     41  0.396562D+01
     42  0.302223D+01  0.417237D+01
     43  0.290737D+01 -0.277839D+01  0.796018D+01
     44 -0.186908D+01 -0.317377D+01 -0.333892D+01  0.572484D+01
     45 -0.326819D+01 -0.234354D+01  0.209313D+01  0.116905D+01  0.876252D+01
     46 -0.213484D+00  0.186785D+00 -0.649194D+01  0.740850D+00  0.269240D+00
     47  0.160647D+00  0.324794D+00  0.532622D+00 -0.289265D+01  0.206442D+01
     48  0.360899D+00  0.985783D-01  0.157825D+00  0.203896D+01 -0.527263D+01
               46            47            48
     46  0.638944D+01
     47 -0.549514D+00  0.273455D+01
     48 -0.533699D+00 -0.243794D+01  0.521487D+01
 ReadGW:  IGet=0 IStart=         114 Next=        7220 LGW=        7106.
 ICntrl=12127.
 Symmetry not used in FoFDir.
 MinBra= 0 MaxBra= 2 Meth= 1.
 IRaf=       0 NMat=   1 IRICut=       1 DoRegI=T DoRafI=F ISym2E= 0 JSym2E=0.
 PrsmSu:  NPrtUS=   8 ThrOK=T
 PRISM was handed    16286905 working-precision words and  2490 shell-pairs
 PRISM was handed    16286905 working-precision words and  2490 shell-pairs
 PRISM was handed    16286905 working-precision words and  2490 shell-pairs
 PRISM was handed    16286905 working-precision words and  2490 shell-pairs
 PRISM was handed    16286905 working-precision words and  2490 shell-pairs
 PRISM was handed    16286905 working-precision words and  2490 shell-pairs
 PRISM was handed    16286905 working-precision words and  2490 shell-pairs
 PRISM was handed    16286905 working-precision words and  2490 shell-pairs
 Pruned (  75, 302) grid will be used in CalDFT.
 CkSvGd:  ISavGI=        -1 IRadAn=       4 IRASav=       4 ISavGd=        -1.
 CalDSu:  NPrtUS=   8 ThrOK=T
 IPart= 0 IRanGd=          0 ScrnBf=T ScrnGd=T RCrit=4.00D+00 DoMicB=T.
 IPart= 5 IRanGd=          0 ScrnBf=T ScrnGd=T RCrit=4.00D+00 DoMicB=T.
 IPart= 1 IRanGd=          0 ScrnBf=T ScrnGd=T RCrit=4.00D+00 DoMicB=T.
 IPart= 3 IRanGd=          0 ScrnBf=T ScrnGd=T RCrit=4.00D+00 DoMicB=T.
 IPart= 7 IRanGd=          0 ScrnBf=T ScrnGd=T RCrit=4.00D+00 DoMicB=T.
 CutRad = 1000.00    CtRdIn =    0.00    XCrit =  15.00   ICut = 0
 IPart= 4 IRanGd=          0 ScrnBf=T ScrnGd=T RCrit=4.00D+00 DoMicB=T.
 IPart= 2 IRanGd=          0 ScrnBf=T ScrnGd=T RCrit=4.00D+00 DoMicB=T.
 CutRad = 1000.00    CtRdIn =    0.00    XCrit =  15.00   ICut = 0
 IPart= 6 IRanGd=          0 ScrnBf=T ScrnGd=T RCrit=4.00D+00 DoMicB=T.
 CutRad = 1000.00    CtRdIn =    0.00    XCrit =  15.00   ICut = 0
 CutRad = 1000.00    CtRdIn =    0.00    XCrit =  15.00   ICut = 0
 CutRad = 1000.00    CtRdIn =    0.00    XCrit =  15.00   ICut = 0
 CutRad = 1000.00    CtRdIn =    0.00    XCrit =  15.00   ICut = 0
 CutRad = 1000.00    CtRdIn =    0.00    XCrit =  15.00   ICut = 0
 CutRad = 1000.00    CtRdIn =    0.00    XCrit =  15.00   ICut = 0
 IPart= 3        12853 of        14380 points in      30 batches and      109 microbatches, Max-NSigAt=      16 Max-NSgAt2=      16
 IPart= 0        14320 of        15712 points in      32 batches and       95 microbatches, Max-NSigAt=      16 Max-NSgAt2=      16
 IPart= 1        13689 of        15362 points in      30 batches and       83 microbatches, Max-NSigAt=      16 Max-NSgAt2=      16
 IPart= 7        14153 of        16958 points in      36 batches and      105 microbatches, Max-NSigAt=      16 Max-NSgAt2=      16
 IPart= 6        14381 of        16308 points in      33 batches and      106 microbatches, Max-NSigAt=      16 Max-NSgAt2=      16
 IPart= 2        14403 of        16018 points in      32 batches and      101 microbatches, Max-NSigAt=      16 Max-NSgAt2=      16
 IPart= 4        13924 of        15934 points in      33 batches and       92 microbatches, Max-NSigAt=      16 Max-NSgAt2=      16
 IPart= 5        14685 of        17118 points in      36 batches and       96 microbatches, Max-NSigAt=      16 Max-NSgAt2=      16
 Polarizability after L703:
                1             2             3
      1  0.738800D+02
      2  0.253241D+01  0.672072D+02
      3  0.605499D-01 -0.285386D+01  0.568104D+02
 Dipole Derivatives after L703:
               1            2            3            4            5
      1-0.146940D-01-0.652559D+00-0.427856D-01 0.137568D+00 0.326470D-01
      2 0.242320D+00 0.541259D+00-0.510787D+00-0.239116D-01 0.254136D-01
      3-0.206316D+00-0.397344D+00 0.418773D+00 0.812106D-01-0.281112D-01
               6            7            8            9           10
      1 0.122678D+00-0.161612D+00 0.176206D+00-0.194211D+00 0.215181D+00
      2-0.483365D-01-0.296131D+00-0.892312D+00 0.614136D+00 0.180365D-01
      3-0.542412D-02 0.137477D+00 0.341032D+00-0.684917D+00 0.351300D-01
              11           12           13           14           15
      1 0.853535D-01 0.405330D-01-0.353076D+00 0.505918D+00-0.371342D-01
      2 0.266782D+00-0.980983D-01-0.155365D+00 0.340314D+00-0.496383D-01
      3-0.441905D-01 0.320995D+00-0.177218D+00 0.132014D+00 0.215905D+00
              16           17           18           19           20
      1 0.845029D-01-0.404883D-01 0.542312D-02 0.507878D-01 0.408693D-01
      2-0.247385D-01 0.295813D-01 0.942691D-03 0.110096D-01 0.408056D-02
      3 0.304047D-01 0.471864D-01 0.326833D-01 0.576121D-01-0.103466D+00
              21           22           23           24           25
      1 0.656566D-01-0.531051D-01-0.993106D-01-0.559310D-01-0.129828D-01
      2-0.389812D-01-0.119114D+00-0.145084D-01-0.181922D-01 0.113815D+00
      3-0.805625D-01-0.349954D-01-0.139908D-01 0.234689D-01-0.441427D-01
              26           27           28           29           30
      1 0.269163D-01 0.344478D-01 0.120661D+00-0.104921D-01 0.843832D-01
      2 0.447892D-03 0.426048D-01-0.239704D-01 0.438048D-01-0.574020D-02
      3 0.215209D-01 0.592172D-01 0.994125D-01 0.172457D-02-0.254465D-01
              31           32           33           34           35
      1 0.174258D-01-0.879946D-01 0.269788D-01 0.669807D-01 0.376473D-01
      2-0.390685D-01-0.218967D-01 0.397649D-01 0.724283D-01-0.705622D-01
      3 0.885283D-01 0.667151D-01 0.614225D-03 0.928479D-03-0.133563D-01
              36           37           38           39           40
      1-0.459351D-01-0.564721D-01-0.759640D-02-0.733554D-01 0.421052D+00
      2 0.437567D-01-0.217454D-01 0.400589D-01-0.684068D-01 0.325332D+00
      3 0.512855D-01-0.977399D-01-0.279108D-01-0.231629D-01 0.229018D-01
              41           42           43           44           45
      1 0.590982D+00-0.419182D+00-0.781269D+00-0.633887D+00 0.371836D+00
      2-0.196353D+00 0.175889D-01-0.936288D-01-0.282912D+00 0.121152D+00
      3-0.270654D-01-0.355572D+00-0.480520D-01 0.713807D-01-0.137262D+00
              46           47           48
      1 0.319054D+00 0.357888D-01 0.116597D+00
      2 0.147315D-01 0.186802D+00-0.417653D-01
      3 0.548589D-01-0.261386D-01 0.189405D+00
 Hessian after L703:
                1             2             3             4             5
      1  0.271395D+00
      2 -0.846086D-01  0.668861D+00
      3 -0.250717D+00 -0.513372D-02  0.531700D+00
      4 -0.972779D-01  0.576293D-01  0.114475D+00  0.984031D-01
      5  0.644479D-01 -0.997859D-01 -0.922240D-01 -0.583060D-01  0.105321D+00
      6  0.119203D+00 -0.891782D-01 -0.219462D+00 -0.134287D+00  0.852639D-01
      7 -0.755988D-01 -0.539310D-01  0.874880D-01 -0.749249D-02 -0.177231D-01
      8 -0.184151D-01 -0.217750D+00  0.936852D-01 -0.111972D-02  0.743024D-02
      9  0.715126D-01  0.130020D+00 -0.175832D+00  0.997767D-02  0.251198D-01
     10 -0.117771D-01 -0.588480D-03  0.146650D-01  0.282405D-02 -0.853581D-03
     11 -0.244750D-01  0.110228D-01  0.224988D-01 -0.390764D-03 -0.246670D-02
     12  0.246578D-01 -0.849460D-02 -0.288497D-01  0.370249D-02  0.470444D-02
     13 -0.377929D-01  0.112222D-01  0.276621D-01  0.137591D-02  0.117982D-01
     14  0.591246D-01 -0.326045D+00 -0.207519D-01  0.340105D-02 -0.709319D-02
     15  0.469483D-01 -0.476710D-01 -0.970349D-01  0.824679D-02 -0.226299D-01
     16  0.349302D-02  0.447885D-02 -0.803421D-02 -0.219131D-02  0.160220D-03
     17 -0.141269D-01 -0.245993D-01  0.237223D-01 -0.345141D-03  0.710621D-03
     18  0.207376D-04  0.832318D-02 -0.188953D-02 -0.154401D-02 -0.236173D-02
     19  0.127904D-03  0.524943D-03 -0.455346D-03  0.459096D-03 -0.185958D-03
     20 -0.460933D-03 -0.370715D-04  0.169479D-02  0.629398D-04 -0.188072D-03
     21 -0.164423D-03 -0.175194D-02  0.210232D-03 -0.306635D-03  0.100547D-02
     22 -0.230971D-03  0.136672D-02  0.117344D-03 -0.173788D-03 -0.406161D-05
     23 -0.103765D-02  0.363471D-03  0.349454D-03 -0.684836D-03 -0.194471D-03
     24  0.893323D-03 -0.105717D-03  0.644933D-04 -0.262894D-04  0.121655D-03
     25 -0.920834D-03 -0.137975D-02  0.170144D-02  0.216835D-04 -0.187239D-03
     26 -0.505672D-03 -0.170325D-02  0.367197D-02  0.357244D-03  0.256026D-03
     27  0.430189D-03  0.130189D-02 -0.286706D-02 -0.591659D-04  0.260891D-03
     28 -0.147393D-02  0.145702D-01  0.835216D-02  0.345114D-02  0.211588D-02
     29  0.855604D-02 -0.150524D-01 -0.298452D-01  0.437126D-03 -0.406412D-02
     30  0.145922D-03 -0.912851D-02 -0.301868D-03 -0.410549D-03  0.241209D-02
     31 -0.468917D-03 -0.178793D-02  0.263988D-02  0.154310D-03  0.857783D-04
     32  0.677323D-03 -0.152058D-02  0.613192D-03 -0.396302D-03  0.163963D-03
     33  0.464726D-03  0.475596D-03 -0.927023D-03 -0.118833D-03 -0.500920D-04
     34 -0.560016D-03  0.137338D-03  0.255975D-02  0.364952D-03  0.390670D-03
     35  0.116465D-02 -0.633017D-03 -0.133358D-02  0.140071D-04 -0.598092D-03
     36  0.244943D-02 -0.139012D-02 -0.577941D-02 -0.419473D-04 -0.155492D-02
     37  0.613700D-03  0.142482D-02  0.706828D-03 -0.403805D-03 -0.222214D-03
     38  0.623169D-03  0.530191D-03 -0.204870D-02  0.232463D-03  0.118530D-03
     39  0.880885D-03  0.282789D-02 -0.922536D-03  0.437748D-03  0.140679D-03
     40 -0.458995D-01  0.613848D-01 -0.351188D-02  0.143360D-03 -0.153252D-02
     41  0.100585D-01  0.258743D-01 -0.162447D-02 -0.150861D-02  0.866387D-04
     42 -0.180394D-01  0.262848D-03  0.594701D-02  0.477858D-03 -0.173499D-04
     43 -0.126966D-02 -0.962168D-02  0.900148D-03  0.518709D-03 -0.994034D-04
     44 -0.192942D-02 -0.221177D-01  0.737122D-02  0.776289D-03  0.372740D-03
     45  0.180282D-02  0.190411D-01 -0.495797D-02 -0.559369D-03 -0.253138D-03
     46 -0.235947D-02 -0.821710D-03  0.145102D-02 -0.177026D-03  0.115418D-03
     47  0.907006D-03  0.259203D-02 -0.645288D-03 -0.159031D-03 -0.688668D-04
     48 -0.489228D-03  0.600804D-03  0.903300D-03  0.361449D-04  0.622719D-04
                6             7             8             9            10
      6  0.237170D+00
      7  0.147716D-01  0.329115D+00
      8 -0.214896D-02 -0.924073D-01  0.366154D+00
      9 -0.204700D-01 -0.290838D+00 -0.467895D-01  0.366197D+00
     10 -0.685043D-03 -0.252065D+00  0.124144D+00  0.206241D+00  0.260098D+00
     11  0.298748D-02  0.152201D+00 -0.119228D+00 -0.116023D+00 -0.125460D+00
     12 -0.961337D-03  0.191030D+00 -0.837413D-01 -0.172531D+00 -0.218889D+00
     13  0.156870D-02  0.230561D-02 -0.153539D-01  0.598129D-02  0.881825D-04
     14  0.240368D-02  0.392903D-02 -0.327782D-01  0.924394D-02  0.372244D-02
     15  0.173801D-02 -0.378195D-02  0.385628D-01 -0.268492D-02 -0.163735D-02
     16 -0.196401D-02  0.563182D-02  0.537288D-02  0.342207D-02 -0.774193D-03
     17  0.103420D-02  0.138705D-02 -0.371318D-02 -0.336697D-03  0.370791D-03
     18 -0.398941D-05  0.230815D-02 -0.363844D-02  0.461405D-02 -0.442198D-04
     19 -0.608139D-04 -0.975643D-04 -0.118060D-03 -0.280439D-03  0.117552D-04
     20 -0.120500D-03  0.137663D-03  0.532554D-03 -0.407429D-03 -0.690187D-04
     21  0.472915D-03 -0.205262D-03  0.404707D-03  0.531046D-03  0.151554D-04
     22 -0.102114D-03 -0.252581D-04 -0.671270D-03  0.793805D-03 -0.670740D-04
     23 -0.309216D-03  0.836691D-03 -0.115638D-02  0.186661D-02 -0.383080D-04
     24  0.173915D-03 -0.650237D-03  0.637553D-03 -0.118757D-02  0.140669D-03
     25  0.477124D-04 -0.323386D-04 -0.975390D-03 -0.398643D-03  0.176341D-03
     26  0.258905D-03 -0.932483D-03 -0.135715D-02 -0.323998D-03  0.211212D-03
     27  0.602384D-04  0.784307D-03  0.181453D-02  0.135673D-03 -0.199046D-03
     28  0.223560D-02 -0.413664D-02 -0.109611D-02  0.208034D-02  0.132546D-03
     29  0.553415D-03  0.183118D-02  0.331660D-02 -0.243700D-02  0.417418D-03
     30  0.134181D-02  0.166423D-02  0.200186D-02 -0.193034D-02 -0.178232D-02
     31 -0.569347D-04  0.914194D-03  0.550241D-03 -0.304199D-02  0.826193D-03
     32 -0.326692D-03  0.991413D-03 -0.155311D-02 -0.102091D-02  0.584892D-03
     33 -0.104894D-03 -0.130327D-02 -0.157787D-03  0.199741D-02  0.101424D-02
     34  0.214691D-03  0.487221D-03 -0.466858D-03 -0.136505D-02 -0.148556D-03
     35 -0.113279D-03  0.429515D-03  0.509788D-03 -0.987352D-03  0.146315D-03
     36 -0.930416D-04  0.212261D-03  0.409724D-03  0.624344D-03 -0.300729D-03
     37 -0.300819D-03  0.256985D-03 -0.641503D-03  0.131801D-03 -0.452192D-03
     38  0.206882D-03  0.253206D-03 -0.278469D-03  0.130923D-02 -0.113363D-02
     39  0.236888D-03 -0.117763D-02 -0.118710D-02  0.113983D-02 -0.541185D-05
     40 -0.912487D-03  0.531917D-03 -0.466006D-02 -0.534497D-03  0.304447D-02
     41 -0.785889D-03 -0.672448D-02 -0.784150D-02  0.825089D-02  0.325329D-02
     42  0.245226D-03  0.656226D-02  0.596834D-02 -0.698026D-02 -0.193819D-02
     43  0.425113D-03 -0.213173D-02  0.407363D-02 -0.318144D-02 -0.879351D-03
     44  0.376116D-03  0.107381D-01  0.924399D-02 -0.816655D-02 -0.483261D-02
     45 -0.172062D-03 -0.803597D-02 -0.632036D-02  0.638188D-02  0.432380D-02
     46 -0.977951D-04  0.233657D-02  0.178395D-02 -0.500567D-03 -0.103841D-02
     47 -0.101863D-03 -0.101657D-02 -0.153099D-02  0.682029D-03  0.124447D-03
     48 -0.171346D-03  0.117157D-02  0.498695D-03 -0.550091D-05 -0.918946D-03
               11            12            13            14            15
     11  0.112605D+00
     12  0.900624D-01  0.200523D+00
     13 -0.358196D-02 -0.201311D-02  0.113905D+00
     14  0.344290D-03  0.248592D-03 -0.137362D-02  0.655951D+00
     15  0.309976D-02  0.199360D-02 -0.160188D+00  0.214752D-02  0.470009D+00
     16  0.555498D-04 -0.131618D-03 -0.811803D-01 -0.296156D-01  0.402764D-01
     17 -0.340083D-03 -0.698283D-03 -0.256875D-01 -0.129727D+00  0.510697D-01
     18 -0.361219D-03 -0.110779D-02  0.377719D-01  0.551362D-01 -0.141831D+00
     19  0.124555D-03  0.371526D-05 -0.530341D-02  0.702389D-02  0.941018D-02
     20  0.725960D-04  0.125129D-03 -0.653400D-02  0.117628D-01  0.181672D-01
     21 -0.321178D-03  0.943441D-04  0.614062D-02 -0.122401D-01 -0.186855D-01
     22 -0.127165D-03 -0.277831D-03 -0.822547D-02 -0.559629D-02 -0.392722D-02
     23 -0.509520D-04 -0.339474D-03 -0.174776D-01 -0.142134D-01 -0.655850D-02
     24  0.148444D-03  0.364626D-03  0.181811D-01  0.114014D-01  0.920170D-02
     25  0.112318D-03  0.280713D-04  0.925146D-02 -0.836706D-02  0.299009D-02
     26 -0.505281D-04 -0.333043D-04  0.112702D-01 -0.176053D-01  0.664046D-02
     27  0.519742D-04  0.221106D-03 -0.132757D-01  0.150704D-01 -0.602511D-02
     28 -0.321562D-02 -0.226184D-02 -0.674828D-01  0.545236D-02  0.372186D-01
     29 -0.569915D-03  0.348886D-03  0.150301D-01 -0.106725D+00 -0.427778D-01
     30  0.161478D-02  0.179797D-02  0.396789D-01 -0.385292D-01 -0.167285D+00
     31  0.256492D-02  0.164548D-02 -0.409474D-02 -0.345136D-02  0.266711D-02
     32 -0.111176D-02 -0.315686D-03  0.878107D-02  0.115456D-01 -0.472399D-02
     33 -0.254711D-02  0.360292D-04  0.154405D-01  0.195281D-01 -0.162400D-01
     34  0.114309D-02  0.530942D-03 -0.309937D-02  0.657201D-02 -0.110341D-02
     35  0.103119D-02  0.270167D-03  0.460859D-02 -0.131562D-01  0.390016D-03
     36 -0.243062D-03 -0.329617D-03  0.110844D-01 -0.296210D-01  0.145896D-02
     37  0.444167D-03 -0.685731D-04  0.764573D-02 -0.301601D-04  0.465373D-02
     38  0.220558D-03 -0.387781D-03 -0.107724D-01 -0.369179D-02 -0.744016D-02
     39 -0.369209D-03 -0.340732D-03 -0.210643D-01 -0.521091D-02 -0.173726D-01
     40  0.146446D-02  0.160572D-02  0.875367D-01 -0.382286D-01  0.858809D-02
     41 -0.209784D-02  0.831167D-03  0.395044D-01 -0.361926D-01  0.133694D-01
     42  0.158591D-02 -0.145174D-02  0.960235D-02  0.807344D-02 -0.221686D-01
     43 -0.421155D-03  0.237595D-02 -0.183300D-01  0.167030D-02  0.949200D-02
     44 -0.600865D-04 -0.267064D-02 -0.229254D-01  0.878033D-02 -0.222307D-02
     45 -0.115387D-02  0.175280D-02  0.221880D-01 -0.155143D-01  0.598078D-02
     46 -0.438795D-03 -0.193855D-02  0.340044D-02 -0.423305D-02  0.146853D-03
     47  0.678618D-03  0.903207D-04  0.149160D-02 -0.115595D-02  0.577605D-03
     48 -0.103041D-02 -0.121130D-02  0.124138D-02 -0.138595D-02 -0.105540D-02
               16            17            18            19            20
     16  0.540973D+00
     17 -0.252604D-01  0.529177D+00
     18  0.779134D-02  0.458725D-01  0.533943D+00
     19 -0.699994D-01  0.378484D-01  0.636915D-01  0.711843D-01
     20  0.393297D-01 -0.113082D+00 -0.108370D+00 -0.412944D-01  0.121104D+00
     21  0.643802D-01 -0.104648D+00 -0.223878D+00 -0.725780D-01  0.114870D+00
     22 -0.199708D+00 -0.100370D+00 -0.750601D-01  0.892884D-02  0.568290D-02
     23 -0.100983D+00 -0.108469D+00 -0.511014D-01 -0.121872D-01 -0.806446D-02
     24 -0.745837D-01 -0.496318D-01 -0.849532D-01 -0.210041D-01 -0.115616D-01
     25 -0.177720D+00  0.124910D+00 -0.472773D-01 -0.599235D-02  0.430240D-02
     26  0.123129D+00 -0.156178D+00  0.424660D-01  0.102659D-01 -0.101872D-01
     27 -0.465677D-01  0.429356D-01 -0.641990D-01  0.194771D-01 -0.174927D-01
     28 -0.270533D-02  0.608028D-02  0.144500D-01  0.115624D-03 -0.126190D-02
     29 -0.375881D-02  0.104487D-01  0.163768D-01 -0.142361D-02 -0.256042D-02
     30  0.762599D-02 -0.660766D-02 -0.219974D-01  0.102079D-02  0.195411D-02
     31 -0.756088D-04  0.102849D-02  0.165089D-03  0.240378D-03 -0.306592D-03
     32 -0.231033D-03 -0.768537D-03 -0.146783D-02  0.398868D-04  0.356917D-03
     33  0.125213D-02 -0.435918D-02 -0.399564D-02  0.640180D-03  0.992999D-03
     34  0.277893D-03  0.215595D-03 -0.425152D-03  0.656342D-04 -0.266400D-03
     35 -0.104727D-02  0.712605D-03  0.132208D-02 -0.307502D-03  0.112581D-03
     36  0.186307D-03 -0.735615D-03  0.161141D-02 -0.300081D-03  0.520745D-04
     37  0.814694D-04 -0.658335D-04 -0.366163D-03  0.000000D+00  0.345213D-04
     38  0.143422D-03 -0.153154D-03  0.299062D-03 -0.972850D-04 -0.366646D-04
     39 -0.316498D-03 -0.569443D-03  0.473077D-03  0.542546D-03  0.827824D-04
     40 -0.115709D-01 -0.343686D-02  0.139677D-02  0.315030D-03  0.468309D-03
     41 -0.114052D-01 -0.315173D-02 -0.880254D-03  0.177214D-03  0.625554D-04
     42  0.837927D-02  0.348612D-02  0.154330D-02  0.428223D-04  0.824634D-04
     43 -0.413530D-02 -0.211679D-02 -0.303340D-02  0.257407D-04  0.220625D-03
     44 -0.337500D-03 -0.878955D-03 -0.173142D-02 -0.329539D-03  0.146447D-03
     45 -0.185147D-02 -0.866413D-03  0.131406D-02 -0.268027D-03 -0.159444D-04
     46 -0.396727D-03 -0.430594D-03  0.154876D-03 -0.812404D-04 -0.458295D-04
     47 -0.306570D-04  0.127642D-04  0.116144D-03 -0.612509D-04  0.539976D-05
     48  0.135573D-03  0.332467D-03  0.356008D-03  0.117891D-03 -0.534156D-04
               21            22            23            24            25
     21  0.244092D+00
     22  0.330483D-02  0.216869D+00
     23 -0.518455D-02  0.112661D+00  0.119097D+00
     24 -0.916489D-02  0.824058D-01  0.522813D-01  0.894645D-01
     25 -0.209408D-02 -0.176771D-01  0.162841D-01 -0.576511D-02  0.192403D+00
     26  0.414540D-02 -0.120163D-01  0.120217D-01 -0.440992D-02 -0.133594D+00
     27  0.812979D-02 -0.887547D-02  0.818279D-02 -0.398164D-02  0.508537D-01
     28  0.251855D-02  0.820498D-03  0.753499D-03 -0.189983D-03  0.323815D-03
     29  0.393944D-02  0.214070D-03  0.784425D-03 -0.332874D-03 -0.205509D-03
     30 -0.125138D-02 -0.458267D-03 -0.968787D-03  0.103540D-02 -0.420405D-03
     31  0.108164D-03  0.109812D-03  0.214694D-03 -0.248363D-03  0.379235D-04
     32 -0.487271D-03  0.186540D-03 -0.148765D-03 -0.538653D-04 -0.631590D-04
     33 -0.127950D-02 -0.676757D-04 -0.104597D-03  0.409969D-03 -0.874332D-04
     34 -0.186217D-03 -0.402184D-03  0.876737D-04  0.384385D-04  0.207140D-03
[...]
    Z6        2.80958   0.00000   0.00000   0.00001  -0.00001   2.80957
    X7       -6.71146   0.00000   0.00000   0.00000   0.00004  -6.71142
    Y7       -1.71606   0.00000   0.00000  -0.00003  -0.00005  -1.71610
    Z7        4.50800   0.00000   0.00000   0.00004   0.00002   4.50801
    X8       -7.70012   0.00000   0.00000  -0.00009  -0.00005  -7.70016
    Y8       -3.76619   0.00000   0.00000   0.00006   0.00002  -3.76617
    Z8        2.04279   0.00000   0.00000   0.00001   0.00000   2.04279
    X9       -4.63881   0.00000   0.00000  -0.00008  -0.00002  -4.63883
    Y9       -4.07253  -0.00001   0.00000  -0.00009  -0.00008  -4.07261
    Z9        3.34991   0.00000   0.00000  -0.00004  -0.00009   3.34982
   X10       -4.33715   0.00000   0.00000  -0.00011  -0.00014  -4.33728
   Y10       -2.07279   0.00000   0.00000  -0.00010  -0.00008  -2.07288
   Z10       -1.65588   0.00000   0.00000   0.00002  -0.00003  -1.65591
   X11       -2.95420   0.00000   0.00000  -0.00041  -0.00047  -2.95466
   Y11       -0.93507   0.00000   0.00000   0.00001   0.00005  -0.93501
   Z11       -2.68208   0.00000   0.00000  -0.00024  -0.00031  -2.68239
   X12       -3.48902   0.00000   0.00000   0.00015   0.00015  -3.48887
   Y12       -3.92791   0.00000   0.00000   0.00002   0.00006  -3.92785
   Z12       -1.36714   0.00000   0.00000   0.00006   0.00000  -1.36714
   X13       -6.01811   0.00000   0.00000  -0.00022  -0.00026  -6.01837
   Y13       -2.28658   0.00000   0.00000  -0.00036  -0.00037  -2.28695
   Z13       -2.84576   0.00000   0.00000   0.00022   0.00019  -2.84557
   X14       -1.62617   0.00000   0.00000   0.00010   0.00009  -1.62608
   Y14       -0.71548   0.00000   0.00000   0.00003   0.00009  -0.71539
   Z14        2.21917   0.00000   0.00000  -0.00020  -0.00029   2.21889
   X15       -0.21876   0.00000   0.00000  -0.00012  -0.00017  -0.21893
   Y15        0.94710   0.00000   0.00000   0.00036   0.00044   0.94754
   Z15        0.66865   0.00000   0.00000  -0.00010  -0.00020   0.66845
   X16       -0.07127   0.00000   0.00000   0.00054   0.00048  -0.07079
   Y16        2.43462   0.00000   0.00000  -0.00011  -0.00002   2.43459
   Z16        1.72130   0.00000   0.00000   0.00046   0.00036   1.72165
         Item               Value     Threshold  Converged?
 Maximum Force            0.000007     0.000450     YES
 RMS     Force            0.000003     0.000300     YES
 Maximum Displacement     0.000899     0.001800     YES
 RMS     Displacement     0.000254     0.001200     YES
 Predicted change in Energy=-1.595161D-09
 Optimization completed.
    -- Stationary point found.
 GradGradGradGradGradGradGradGradGradGradGradGradGradGradGradGradGradGrad


 Test job not archived.
 1\1\GINC-NODE06\Freq\UB3LYP\CBSB7\C4H9O3(2)\NYEE\17-Jun-2013\0\\# freq
  nosymm b3lyp/cbsb7 iop(7/33=1)\\Title Card Required\\0,2\C,-3.039551,
 0.84635,0.536747\H,-3.561217,1.256214,1.392266\O,-2.642752,1.800233,-0
 .337065\H,-1.952115,1.42899,-0.903178\C,-2.665718,-0.488319,0.456337\C
 ,-3.22486,-1.434211,1.486765\H,-3.551552,-0.908099,2.385529\H,-4.07472
 7,-1.99298,1.081\H,-2.454753,-2.15509,1.772696\C,-2.295119,-1.096875,-
 0.876255\H,-1.563293,-0.494816,-1.419295\H,-1.846311,-2.07856,-0.72345
 9\H,-3.184648,-1.210006,-1.505911\O,-0.860533,-0.378616,1.174336\O,-0.
 115763,0.501182,0.353834\H,-0.037713,1.288343,0.910871\\Version=AM64L-
 G03RevD.01\HF=-383.4590475\S2=0.771768\S2-1=0.\S2A=0.750096\RMSD=8.935
 e-09\RMSF=2.960e-06\ZeroPoint=0.1286864\Thermal=0.1377761\Dipole=-0.48
 76759,0.13931,-0.0957561\DipoleDeriv=-0.014694,0.2423198,-0.2063162,-0
 .6525585,0.5412595,-0.3973436,-0.0427856,-0.5107872,0.4187729,0.137567
 7,-0.0239116,0.0812106,0.032647,0.0254136,-0.0281112,0.1226775,-0.0483
 365,-0.0054241,-0.1616124,-0.2961308,0.1374767,0.176206,-0.8923118,0.3
 410321,-0.1942106,0.6141363,-0.6849167,0.2151813,0.0180365,0.03513,0.0
 853535,0.2667816,-0.0441905,0.040533,-0.0980983,0.3209949,-0.3530764,-
 0.1553649,-0.177218,0.5059183,0.3403137,0.1320138,-0.0371342,-0.049638
 3,0.2159052,0.0845029,-0.0247385,0.0304047,-0.0404883,0.0295813,0.0471
 864,0.0054231,0.0009427,0.0326833,0.0507878,0.0110096,0.0576121,0.0408
 693,0.0040806,-0.1034665,0.0656566,-0.0389812,-0.0805625,-0.0531051,-0
 .1191145,-0.0349954,-0.0993106,-0.0145084,-0.0139908,-0.055931,-0.0181
 922,0.0234689,-0.0129828,0.1138155,-0.0441427,0.0269163,0.0004479,0.02
 15209,0.0344478,0.0426048,0.0592172,0.1206608,-0.0239704,0.0994125,-0.
 0104921,0.0438048,0.0017246,0.0843832,-0.0057402,-0.0254465,0.0174258,
 -0.0390685,0.0885283,-0.0879946,-0.0218967,0.0667151,0.0269788,0.03976
 49,0.0006142,0.0669807,0.0724283,0.0009285,0.0376473,-0.0705622,-0.013
 3563,-0.0459351,0.0437567,0.0512855,-0.0564721,-0.0217454,-0.0977399,-
 0.0075964,0.0400589,-0.0279108,-0.0733554,-0.0684068,-0.0231629,0.4210
 517,0.325332,0.0229018,0.5909816,-0.1963526,-0.0270654,-0.4191817,0.01
 75889,-0.3555724,-0.7812694,-0.0936288,-0.048052,-0.6338875,-0.2829122
 ,0.0713807,0.3718361,0.1211517,-0.1372618,0.3190536,0.0147315,0.054858
 9,0.0357888,0.1868021,-0.0261386,0.1165974,-0.0417653,0.1894047\Polar=
 73.8800111,2.5324085,67.2072076,0.0605499,-2.8538586,56.8103607\PG=C01
  [X(C4H9O3)]\NImag=1\\0.27139542,-0.08460861,0.66886139,-0.25071715,-0
 .00513372,0.53169965,-0.09727790,0.05762928,0.11447489,0.09840311,0.06
 444792,-0.09978594,-0.09222404,-0.05830599,0.10532070,0.11920340,-0.08
 917817,-0.21946248,-0.13428680,0.08526390,0.23717012,-0.07559884,-0.05
 393099,0.08748798,-0.00749249,-0.01772314,0.01477160,0.32911531,-0.018
 41506,-0.21775037,0.09368522,-0.00111972,0.00743024,-0.00214896,-0.092
 40726,0.36615379,0.07151264,0.13002045,-0.17583224,0.00997767,0.025119
 79,-0.02046997,-0.29083823,-0.04678950,0.36619745,-0.01177709,-0.00058
 848,0.01466505,0.00282405,-0.00085358,-0.00068504,-0.25206478,0.124144
 48,0.20624123,0.26009810,-0.02447498,0.01102282,0.02249881,-0.00039076
 ,-0.00246670,0.00298748,0.15220104,-0.11922761,-0.11602349,-0.12545966
 ,0.11260541,0.02465783,-0.00849460,-0.02884967,0.00370249,0.00470444,-
 0.00096134,0.19103020,-0.08374132,-0.17253088,-0.21888889,0.09006239,0
 .20052260,-0.03779292,0.01122220,0.02766210,0.00137591,0.01179823,0.00
 156870,0.00230561,-0.01535390,0.00598129,0.00008818,-0.00358196,-0.002
 01311,0.11390504,0.05912460,-0.32604460,-0.02075190,0.00340105,-0.0070
 9319,0.00240368,0.00392903,-0.03277820,0.00924394,0.00372244,0.0003442
 9,0.00024859,-0.00137362,0.65595067,0.04694833,-0.04767100,-0.09703489
 ,0.00824679,-0.02262991,0.00173801,-0.00378195,0.03856282,-0.00268492,
 -0.00163735,0.00309976,0.00199360,-0.16018818,0.00214752,0.47000938,0.
 00349302,0.00447885,-0.00803421,-0.00219131,0.00016022,-0.00196401,0.0
 0563182,0.00537288,0.00342207,-0.00077419,0.00005555,-0.00013162,-0.08
 118034,-0.02961557,0.04027635,0.54097337,-0.01412692,-0.02459926,0.023
 72228,-0.00034514,0.00071062,0.00103420,0.00138705,-0.00371318,-0.0003
 3670,0.00037079,-0.00034008,-0.00069828,-0.02568749,-0.12972746,0.0510
 6968,-0.02526043,0.52917665,0.00002074,0.00832318,-0.00188953,-0.00154
 401,-0.00236173,-0.00000399,0.00230815,-0.00363844,0.00461405,-0.00004
 422,-0.00036122,-0.00110779,0.03777192,0.05513622,-0.14183075,0.007791
 34,0.04587245,0.53394344,0.00012790,0.00052494,-0.00045535,0.00045910,
 -0.00018596,-0.00006081,-0.00009756,-0.00011806,-0.00028044,0.00001176
 ,0.00012455,0.00000372,-0.00530341,0.00702389,0.00941018,-0.06999939,0
 .03784844,0.06369148,0.07118432,-0.00046093,-0.00003707,0.00169479,0.0
 0006294,-0.00018807,-0.00012050,0.00013766,0.00053255,-0.00040743,-0.0
 0006902,0.00007260,0.00012513,-0.00653400,0.01176280,0.01816718,0.0393
 2973,-0.11308176,-0.10836979,-0.04129442,0.12110377,-0.00016442,-0.001
 75194,0.00021023,-0.00030663,0.00100547,0.00047291,-0.00020526,0.00040
 471,0.00053105,0.00001516,-0.00032118,0.00009434,0.00614062,-0.0122401
 0,-0.01868552,0.06438019,-0.10464772,-0.22387797,-0.07257799,0.1148698
 6,0.24409196,-0.00023097,0.00136672,0.00011734,-0.00017379,-0.00000406
 ,-0.00010211,-0.00002526,-0.00067127,0.00079381,-0.00006707,-0.0001271
 6,-0.00027783,-0.00822547,-0.00559629,-0.00392722,-0.19970849,-0.10037
 018,-0.07506012,0.00892884,0.00568290,0.00330483,0.21686875,-0.0010376
 5,0.00036347,0.00034945,-0.00068484,-0.00019447,-0.00030922,0.00083669
 ,-0.00115638,0.00186661,-0.00003831,-0.00005095,-0.00033947,-0.0174776
 5,-0.01421336,-0.00655850,-0.10098289,-0.10846943,-0.05110135,-0.01218
 723,-0.00806446,-0.00518455,0.11266068,0.11909726,0.00089332,-0.000105
 72,0.00006449,-0.00002629,0.00012166,0.00017391,-0.00065024,0.00063755
 ,-0.00118757,0.00014067,0.00014844,0.00036463,0.01818113,0.01140137,0.
 00920170,-0.07458372,-0.04963183,-0.08495324,-0.02100405,-0.01156156,-
 0.00916489,0.08240578,0.05228130,0.08946454,-0.00092083,-0.00137975,0.
 00170144,0.00002168,-0.00018724,0.00004771,-0.00003234,-0.00097539,-0.
 00039864,0.00017634,0.00011232,0.00002807,0.00925146,-0.00836706,0.002
 99009,-0.17771995,0.12490960,-0.04727732,-0.00599235,0.00430240,-0.002
 09408,-0.01767715,0.01628406,-0.00576511,0.19240316,-0.00050567,-0.001
 70325,0.00367197,0.00035724,0.00025603,0.00025890,-0.00093248,-0.00135
 715,-0.00032400,0.00021121,-0.00005053,-0.00003330,0.01127021,-0.01760
 526,0.00664046,0.12312874,-0.15617781,0.04246605,0.01026592,-0.0101871
 7,0.00414540,-0.01201627,0.01202167,-0.00440992,-0.13359433,0.17290398
 ,0.00043019,0.00130189,-0.00286706,-0.00005917,0.00026089,0.00006024,0
 .00078431,0.00181453,0.00013567,-0.00019905,0.00005197,0.00022111,-0.0
 1327572,0.01507038,-0.00602511,-0.04656769,0.04293564,-0.06419902,0.01
 947713,-0.01749274,0.00812979,-0.00887547,0.00818279,-0.00398164,0.050
 85365,-0.05086835,0.06780533,-0.00147393,0.01457017,0.00835216,0.00345
 114,0.00211588,0.00223560,-0.00413664,-0.00109611,0.00208034,0.0001325
 5,-0.00321562,-0.00226184,-0.06748281,0.00545236,0.03721859,-0.0027053
 3,0.00608028,0.01445002,0.00011562,-0.00126190,0.00251855,0.00082050,0
 .00075350,-0.00018998,0.00032382,-0.00019543,-0.00072681,0.55557888,0.
 00855604,-0.01505238,-0.02984523,0.00043713,-0.00406412,0.00055342,0.0
 0183118,0.00331660,-0.00243700,0.00041742,-0.00056992,0.00034889,0.015
 03010,-0.10672503,-0.04277778,-0.00375881,0.01044872,0.01637683,-0.001
 42361,-0.00256042,0.00393944,0.00021407,0.00078443,-0.00033287,-0.0002
 0551,0.00027129,0.00089846,0.00251373,0.55856713,0.00014592,-0.0091285
 1,-0.00030187,-0.00041055,0.00241209,0.00134181,0.00166423,0.00200186,
 -0.00193034,-0.00178232,0.00161478,0.00179797,0.03967888,-0.03852918,-
 0.16728469,0.00762599,-0.00660766,-0.02199741,0.00102079,0.00195411,-0
 .00125138,-0.00045827,-0.00096879,0.00103540,-0.00042041,-0.00114406,0
 .00091545,0.00665290,-0.03925594,0.48747603,-0.00046892,-0.00178793,0.
 00263988,0.00015431,0.00008578,-0.00005693,0.00091419,0.00055024,-0.00
 304199,0.00082619,0.00256492,0.00164548,-0.00409474,-0.00345136,0.0026
 6711,-0.00007561,0.00102849,0.00016509,0.00024038,-0.00030659,0.000108
 16,0.00010981,0.00021469,-0.00024836,0.00003792,-0.00005566,0.00017190
 ,-0.16313478,-0.09893142,0.08881708,0.17490395,0.00067732,-0.00152058,
 0.00061319,-0.00039630,0.00016396,-0.00032669,0.00099141,-0.00155311,-
 0.00102091,0.00058489,-0.00111176,-0.00031569,0.00878107,0.01154556,-0
 .00472399,-0.00023103,-0.00076854,-0.00146783,0.00003989,0.00035692,-0
 .00048727,0.00018654,-0.00014876,-0.00005387,-0.00006316,0.00009063,-0
 .00035038,-0.09694431,-0.12938419,0.07041413,0.10758624,0.14109338,0.0
 0046473,0.00047560,-0.00092702,-0.00011883,-0.00005009,-0.00010489,-0.
 00130327,-0.00015779,0.00199741,0.00101424,-0.00254711,0.00003603,0.01
 544052,0.01952814,-0.01624000,0.00125213,-0.00435918,-0.00399564,0.000
 64018,0.00099300,-0.00127950,-0.00006768,-0.00010460,0.00040997,-0.000
 08743,-0.00011672,0.00028710,0.08565287,0.07043146,-0.10700790,-0.0963
 9752,-0.07632394,0.11819874,-0.00056002,0.00013734,0.00255975,0.000364
 95,0.00039067,0.00021469,0.00048722,-0.00046686,-0.00136505,-0.0001485
 6,0.00114309,0.00053094,-0.00309937,0.00657201,-0.00110341,0.00027789,
 0.00021559,-0.00042515,0.00006563,-0.00026640,-0.00018622,-0.00040218,
 0.00008767,0.00003844,0.00020714,-0.00001339,0.00029564,-0.09063579,0.
 09973059,-0.01570686,0.00954665,-0.02059826,0.00310136,0.09540574,0.00
 116465,-0.00063302,-0.00133358,0.00001401,-0.00059809,-0.00011328,0.00
 042952,0.00050979,-0.00098735,0.00014631,0.00103119,0.00027017,0.00460
 859,-0.01315621,0.00039002,-0.00104727,0.00071261,0.00132208,-0.000307
 50,0.00011258,0.00010214,0.00014513,0.00012288,-0.00010976,0.00012468,
 0.00056641,-0.00065768,0.09894863,-0.26428636,0.03677624,0.00734824,-0
 .01602072,0.00277710,-0.10955003,0.28546108,0.00244943,-0.00139012,-0.
 00577941,-0.00004195,-0.00155492,-0.00009304,0.00021226,0.00040972,0.0
 0062434,-0.00030073,-0.00024306,-0.00032962,0.01108440,-0.02962097,0.0
 0145896,0.00018631,-0.00073561,0.00161141,-0.00030008,0.00005207,0.000
 30410,0.00004906,0.00011806,-0.00001774,-0.00023988,0.00024579,-0.0004
 5899,-0.01786782,0.04041882,-0.05115734,-0.00717957,0.01370998,-0.0028
 1773,0.01625372,-0.03899685,0.05875859,0.00061370,0.00142482,0.0007068
 3,-0.00040380,-0.00022221,-0.00030082,0.00025698,-0.00064150,0.0001318
 0,-0.00045219,0.00044417,-0.00006857,0.00764573,-0.00003016,0.00465373
 ,0.00008147,-0.00006583,-0.00036616,-0.00000036,0.00003452,-0.00016876
 ,-0.00000538,0.00003448,-0.00013030,-0.00003400,0.00010340,0.00007184,
 -0.21675239,-0.01969280,-0.11638392,-0.01680510,-0.00101269,-0.0118039
 3,-0.01025999,-0.00197083,-0.00592545,0.23564627,0.00062317,0.00053019
 ,-0.00204870,0.00023246,0.00011853,0.00020688,0.00025321,-0.00027847,0
 .00130923,-0.00113363,0.00022056,-0.00038778,-0.01077238,-0.00369179,-
 0.00744016,0.00014342,-0.00015315,0.00029906,-0.00009728,-0.00003666,0
 .00002300,-0.00007521,0.00012728,0.00008436,-0.00003124,0.00014502,0.0
 0001344,-0.01992768,-0.04943811,-0.01438138,-0.01462595,-0.00243252,-0
 .01109785,0.02355497,0.00500739,0.01670771,0.02190155,0.04925494,0.000
 88089,0.00282789,-0.00092254,0.00043775,0.00014068,0.00023689,-0.00117
 763,-0.00118710,0.00113983,-0.00000541,-0.00036921,-0.00034073,-0.0210
 6430,-0.00521091,-0.01737258,-0.00031650,-0.00056944,0.00047308,0.0005
 4255,0.00008278,0.00017021,0.00053106,0.00057613,-0.00023867,-0.000006
 47,-0.00013993,0.00017725,-0.11887956,-0.01366347,-0.12807407,0.012954
 51,0.00071509,0.00997932,-0.00342019,-0.00024492,-0.00315038,0.1301651
 6,0.01804978,0.14040100,-0.04589950,0.06138483,-0.00351188,0.00014336,
 -0.00153252,-0.00091249,0.00053192,-0.00466006,-0.00053450,0.00304447,
 0.00146446,0.00160572,0.08753672,-0.03822858,0.00858809,-0.01157093,-0
 .00343686,0.00139677,0.00031503,0.00046831,-0.00081451,0.00060226,0.00
 201677,-0.00039387,0.00028688,0.00176245,-0.00234306,-0.01491386,-0.00
 364049,-0.01163090,-0.00123131,0.00061305,0.00301144,-0.00092410,0.000
 75026,0.00164181,-0.00012039,-0.00043843,-0.00102394,0.06553383,0.0100
 5854,0.02587427,-0.00162447,-0.00150861,0.00008664,-0.00078589,-0.0067
 2448,-0.00784150,0.00825089,0.00325329,-0.00209784,0.00083117,0.039504
 36,-0.03619260,0.01336936,-0.01140523,-0.00315173,-0.00088025,0.000177
 21,0.00006256,-0.00000103,-0.00097093,-0.00034071,0.00083190,-0.001315
 69,0.00023506,-0.00124248,-0.00695559,-0.00072123,-0.00681872,-0.00043
 872,-0.00033632,0.00209448,-0.00104244,0.00185675,0.00091963,-0.001368
 58,0.00004521,-0.00096416,0.07000282,0.16847042,-0.01803944,0.00026285
 ,0.00594701,0.00047786,-0.00001735,0.00024523,0.00656226,0.00596834,-0
 .00698026,-0.00193819,0.00158591,-0.00145174,0.00960235,0.00807344,-0.
 02216857,0.00837927,0.00348612,0.00154330,0.00004282,0.00008246,0.0001
 5339,0.00174581,0.00077267,-0.00107155,0.00132869,-0.00059938,0.000655
 10,-0.01804641,-0.00402349,-0.01064012,-0.00035021,0.00079368,-0.00033
 437,-0.00009901,0.00063260,0.00059840,0.00044684,-0.00109780,-0.003247
 38,-0.04967575,-0.10312260,0.13731467,-0.00126966,-0.00962168,0.000900
 15,0.00051871,-0.00009940,0.00042511,-0.00213173,0.00407363,-0.0031814
 4,-0.00087935,-0.00042115,0.00237595,-0.01833004,0.00167030,0.00949200
 ,-0.00413530,-0.00211679,-0.00303340,0.00002574,0.00022063,-0.00002974
 ,-0.00066130,-0.00068987,0.00118951,-0.00013179,-0.00003025,0.00004504
 ,0.00148258,-0.00076318,0.00133296,-0.00099175,-0.00032905,-0.00071982
 ,-0.00016054,-0.00089047,-0.00008502,0.00046999,0.00028180,0.00054857,
 -0.07221354,-0.06706922,0.06520216,0.11438011,-0.00192942,-0.02211771,
 0.00737122,0.00077629,0.00037274,0.00037612,0.01073814,0.00924399,-0.0
 0816655,-0.00483261,-0.00006009,-0.00267064,-0.02292536,0.00878033,-0.
 00222307,-0.00033750,-0.00087895,-0.00173142,-0.00032954,0.00014645,0.
 00015759,-0.00043641,-0.00000610,0.00074349,0.00034590,0.00046265,0.00
 027322,-0.00134962,-0.00061582,0.00153364,0.00051690,0.00014866,-0.001
 26903,0.00014416,-0.00076027,-0.00011334,0.00105689,0.00052939,-0.0001
 5046,-0.07368459,-0.12023806,0.08549105,0.10838765,0.43973329,0.001802
 82,0.01904113,-0.00495797,-0.00055937,-0.00025314,-0.00017206,-0.00803
 597,-0.00632036,0.00638188,0.00432380,-0.00115387,0.00175280,0.0221880
 0,-0.01551427,0.00598078,-0.00185147,-0.00086641,0.00131406,-0.0002680
 3,-0.00001594,0.00009452,-0.00032613,0.00037908,0.00001692,-0.00056817
 ,0.00030292,-0.00091620,-0.00107896,-0.00084049,-0.00220332,-0.0020426
 4,-0.00095706,0.00116810,-0.00063982,0.00011836,0.00046842,-0.00084665
 ,-0.00011756,0.00057216,0.04340003,0.05109053,-0.11070810,-0.06126993,
 0.17353129,0.31639732,-0.00235947,-0.00082171,0.00145102,-0.00017703,0
 .00011542,-0.00009780,0.00233657,0.00178395,-0.00050057,-0.00103841,-0
 .00043880,-0.00193855,0.00340044,-0.00423305,0.00014685,-0.00039673,-0
 .00043059,0.00015488,-0.00008124,-0.00004583,0.00008012,-0.00015310,0.
 00020989,0.00014308,-0.00020000,0.00024432,-0.00008274,-0.00066956,-0.
 00031444,-0.00014554,0.00006880,0.00011439,-0.00007898,-0.00016469,0.0
 0008609,0.00006350,0.00011947,0.00011122,-0.00016647,-0.01112084,-0.02
 419675,-0.00563905,-0.01597213,-0.01614089,0.00577249,0.02640791,0.000
 90701,0.00259203,-0.00064529,-0.00015903,-0.00006887,-0.00010186,-0.00
 101657,-0.00153099,0.00068203,0.00012445,0.00067862,0.00009032,0.00149
 160,-0.00115595,0.00057761,-0.00003066,0.00001276,0.00011614,-0.000061
 25,0.00000540,-0.00001382,0.00001175,0.00012763,-0.00004456,0.00004040
 ,0.00012841,-0.00019159,0.00051171,0.00002941,0.00012738,-0.00029789,-
 0.00012260,-0.00027347,-0.00003871,0.00007398,0.00007310,0.00000477,0.
 00005219,0.00010724,-0.01284142,-0.02571091,0.00171149,-0.03260293,-0.
 31474049,-0.21842420,0.04395676,0.33962936,-0.00048923,0.00060080,0.00
 090330,0.00003614,0.00006227,-0.00017135,0.00117157,0.00049870,-0.0000
 0550,-0.00091895,-0.00103041,-0.00121130,0.00124138,-0.00138595,-0.001
 05540,0.00013557,0.00033247,0.00035601,0.00011789,-0.00005342,0.000006
 74,0.00014715,0.00004037,-0.00011627,-0.00009213,-0.00009584,0.0000609
 8,-0.00010965,0.00020895,-0.00071822,0.00014802,-0.00021844,0.00063041
 ,-0.00004884,0.00005471,-0.00001998,-0.00018163,-0.00012223,0.00019660
 ,0.01119703,0.03805165,0.01014499,-0.01319210,-0.25315312,-0.21518931,
 0.00083778,0.21620950,0.20618829\\-0.00000600,-0.00000496,0.00000095,-
 0.00000156,-0.00000003,-0.00000283,0.00000554,-0.00000369,-0.00000661,
 -0.00000503,0.00000272,-0.00000281,-0.00000027,-0.00000085,0.00000215,
 0.00000638,-0.00000076,0.00000248,0.00000139,0.00000191,0.00000147,0.0
 0000222,-0.00000090,0.00000291,-0.00000102,0.00000538,0.00000176,0.000
 00088,-0.00000272,0.00000037,0.00000082,-0.00000130,0.00000040,0.00000
 095,-0.00000134,0.00000256,0.00000108,-0.00000387,0.00000102,-0.000000
 11,0.00000358,0.00000172,-0.00000241,0.00000227,-0.00000138,-0.0000028
 6,0.00000458,-0.00000414\\\@


 ROSE IS A RED
 TY COBB IS BLUE
 'CAUSE PETE JUST HIT
 NO. 4592.
 Job cpu time:  0 days  1 hours 25 minutes 26.5 seconds.
 File lengths (MBytes):  RWF=    125 Int=      0 D2E=      0 Chk=      8 Scr=      1
 Normal termination of Gaussian 03 at Mon Jun 17 13:35:42 2013.
