 Entering Gaussian System, Link 0=g03
 Input=ts7-freq.gjf
 Output=ts7-freq.log
 Initial command:
 /opt/g03/l1.exe /scratch/shamel/Gau-14676.inp -scrdir=/scratch/shamel/
 Entering Link 1 = /opt/g03/l1.exe PID=     14678.
  
 Copyright (c) 1988,1990,1992,1993,1995,1998,2003,2004, Gaussian, Inc.
                  All Rights Reserved.
  
 This is the Gaussian(R) 03 program.  It is based on the
 the Gaussian(R) 98 system (copyright 1998, Gaussian, Inc.),
 the Gaussian(R) 94 system (copyright 1995, Gaussian, Inc.),
 the Gaussian 92(TM) system (copyright 1992, Gaussian, Inc.),
 the Gaussian 90(TM) system (copyright 1990, Gaussian, Inc.),
 the Gaussian 88(TM) system (copyright 1988, Gaussian, Inc.),
 the Gaussian 86(TM) system (copyright 1986, Carnegie Mellon
 University), and the Gaussian 82(TM) system (copyright 1983,
 Carnegie Mellon University). Gaussian is a federally registered
 trademark of Gaussian, Inc.
  
 This software contains proprietary and confidential information,
 including trade secrets, belonging to Gaussian, Inc.
  
 This software is provided under written license and may be
 used, copied, transmitted, or stored only in accord with that
 written license.
  
 The following legend is applicable only to US Government
 contracts under FAR:
  
                    RESTRICTED RIGHTS LEGEND
  
 Use, reproduction and disclosure by the US Government is
 subject to restrictions as set forth in subparagraphs (a)
 and (c) of the Commercial Computer Software - Restricted
 Rights clause in FAR 52.227-19.
  
 Gaussian, Inc.
 340 Quinnipiac St., Bldg. 40, Wallingford CT 06492
  
  
 ---------------------------------------------------------------
 Warning -- This program may not be used in any manner that
 competes with the business of Gaussian, Inc. or will provide
 assistance to any competitor of Gaussian, Inc.  The licensee
 of this program is prohibited from giving any competitor of
 Gaussian, Inc. access to this program.  By using this program,
 the user acknowledges that Gaussian, Inc. is engaged in the
 business of creating and licensing software in the field of
 computational chemistry and represents and warrants to the
 licensee that it is not a competitor of Gaussian, Inc. and that
 it will not use this program in any manner prohibited above.
 ---------------------------------------------------------------
  

 Cite this work as:
 Gaussian 03, Revision D.01,
 M. J. Frisch, G. W. Trucks, H. B. Schlegel, G. E. Scuseria, 
 M. A. Robb, J. R. Cheeseman, J. A. Montgomery, Jr., T. Vreven, 
 K. N. Kudin, J. C. Burant, J. M. Millam, S. S. Iyengar, J. Tomasi, 
 V. Barone, B. Mennucci, M. Cossi, G. Scalmani, N. Rega, 
 G. A. Petersson, H. Nakatsuji, M. Hada, M. Ehara, K. Toyota, 
 R. Fukuda, J. Hasegawa, M. Ishida, T. Nakajima, Y. Honda, O. Kitao, 
 H. Nakai, M. Klene, X. Li, J. E. Knox, H. P. Hratchian, J. B. Cross, 
 V. Bakken, C. Adamo, J. Jaramillo, R. Gomperts, R. E. Stratmann, 
 O. Yazyev, A. J. Austin, R. Cammi, C. Pomelli, J. W. Ochterski, 
 P. Y. Ayala, K. Morokuma, G. A. Voth, P. Salvador, J. J. Dannenberg, 
 V. G. Zakrzewski, S. Dapprich, A. D. Daniels, M. C. Strain, 
 O. Farkas, D. K. Malick, A. D. Rabuck, K. Raghavachari, 
 J. B. Foresman, J. V. Ortiz, Q. Cui, A. G. Baboul, S. Clifford, 
 J. Cioslowski, B. B. Stefanov, G. Liu, A. Liashenko, P. Piskorz, 
 I. Komaromi, R. L. Martin, D. J. Fox, T. Keith, M. A. Al-Laham, 
 C. Y. Peng, A. Nanayakkara, M. Challacombe, P. M. W. Gill, 
 B. Johnson, W. Chen, M. W. Wong, C. Gonzalez, and J. A. Pople, 
 Gaussian, Inc., Wallingford CT, 2004.
 
 ******************************************
 Gaussian 03:  AM64L-G03RevD.01 13-Oct-2005
                18-Jun-2013 
 ******************************************
 %chk=ts7-freq.chk
 %mem=1000mb
 %nproc=8
 Will use up to    8 processors via shared memory.
 -------------------------------------
 # freq nosymm b3lyp/cbsb7 iop(7/33=1)
 -------------------------------------
 1/10=4,30=1,38=1/1,3;
 2/15=1,17=6,18=5,40=1/2;
 3/5=4,6=6,7=700,11=2,16=1,25=1,30=1,74=-5/1,2,3;
 4//1;
 5/5=2,38=5/2;
 8/6=4,10=90,11=11/1;
 11/6=1,8=1,9=11,15=111,16=1,31=1/1,2,10;
 10/6=1,31=1/2;
 6/7=2,8=2,9=2,10=2,18=1,28=1/1;
 7/8=1,10=1,25=1,30=1,33=1/1,2,3,16;
 1/10=4,30=1/3;
 99//99;
 -------------------
 Title Card Required
 -------------------
 Symbolic Z-matrix:
 Charge =  0 Multiplicity = 2
 C                     0.33018   1.08215   1.43897 
 H                     0.75511   0.27306   2.0199 
 H                     1.00913   1.73419   0.90688 
 C                    -1.10105   1.49632   1.66851 
 H                    -1.37982   1.5136    2.72942 
 C                    -1.7611    0.33791   0.91321 
 H                    -2.67194   0.59143   0.36432 
 H                    -1.9486   -0.54067   1.53861 
 C                    -1.41591   2.86059   1.03866 
 H                    -2.50537   3.0129    1.05658 
 H                    -0.9621    3.65829   1.63452 
 O                    -0.90107   3.00117  -0.27631 
 H                    -0.97863   2.14819  -0.72417 
 O                    -0.67764   0.07528  -0.00677 
 O                    -1.46769  -0.89147  -1.1698 
 H                    -0.66863  -1.36745  -1.43458 
 

 GradGradGradGradGradGradGradGradGradGradGradGradGradGradGradGradGradGrad
 Berny optimization.
 Initialization pass.
 Trust Radius=3.00D-01 FncErr=1.00D-07 GrdErr=1.00D-07
 Number of steps in this run=   2 maximum allowed number of steps=   2.
 GradGradGradGradGradGradGradGradGradGradGradGradGradGradGradGradGradGrad

                          Input orientation:                          
 ---------------------------------------------------------------------
 Center     Atomic     Atomic              Coordinates (Angstroms)
 Number     Number      Type              X           Y           Z
 ---------------------------------------------------------------------
    1          6             0        0.330178    1.082146    1.438974
    2          1             0        0.755109    0.273060    2.019904
    3          1             0        1.009129    1.734193    0.906878
    4          6             0       -1.101048    1.496321    1.668508
    5          1             0       -1.379816    1.513596    2.729416
    6          6             0       -1.761100    0.337905    0.913205
    7          1             0       -2.671942    0.591425    0.364315
    8          1             0       -1.948602   -0.540673    1.538610
    9          6             0       -1.415913    2.860594    1.038658
   10          1             0       -2.505371    3.012901    1.056583
   11          1             0       -0.962100    3.658294    1.634516
   12          8             0       -0.901069    3.001168   -0.276308
   13          1             0       -0.978630    2.148192   -0.724170
   14          8             0       -0.677636    0.075278   -0.006769
   15          8             0       -1.467690   -0.891467   -1.169799
   16          1             0       -0.668632   -1.367445   -1.434577
 ---------------------------------------------------------------------
                    Distance matrix (angstroms):
                    1          2          3          4          5
     1  C    0.000000
     2  H    1.082897   0.000000
     3  H    1.081326   1.854255   0.000000
     4  C    1.507526   2.250592   2.255994   0.000000
     5  H    2.185285   2.569094   3.012867   1.097058   0.000000
     6  C    2.281178   2.749599   3.102230   1.532344   2.196873
     7  H    3.226209   3.819294   3.892374   2.233263   2.848454
     8  H    2.799340   2.864238   3.784478   2.210105   2.441630
     9  C    2.524275   3.517316   2.677120   1.535282   2.162029
    10  H    3.451721   4.366400   3.742889   2.155595   2.512600
    11  H    2.888729   3.815382   2.849099   2.166700   2.443977
    12  O    2.853210   3.931678   2.579537   2.467157   3.387690
    13  H    2.743834   3.748588   2.604400   2.482908   3.534249
    14  O    2.029691   2.489835   2.536124   2.237229   3.169941
    15  O    3.732717   4.058468   4.164290   3.727190   4.582131
    16  H    3.905818   4.080654   4.232901   4.244676   5.113220
                    6          7          8          9         10
     6  C    0.000000
     7  H    1.093246   0.000000
     8  H    1.094618   1.784331   0.000000
     9  C    2.549285   2.679827   3.478840   0.000000
    10  H    2.780306   2.523990   3.629081   1.100199   0.000000
    11  H    3.490512   3.733987   4.314361   1.094220   1.769809
    12  O    3.040981   3.058308   4.115324   1.419141   2.085790
    13  H    2.563278   2.544726   3.645684   1.950973   2.499948
    14  O    1.445413   2.093172   2.093549   3.065282   3.619525
    15  O    2.436463   2.450040   2.773051   4.354070   4.612770
    16  H    3.100610   3.329630   3.340915   4.954961   5.363480
                   11         12         13         14         15
    11  H    0.000000
    12  O    2.021581   0.000000
    13  H    2.800729   0.966522   0.000000
    14  O    3.951296   2.946762   2.214099   0.000000
    15  O    5.368438   4.033856   3.110835   1.706288   0.000000
    16  H    5.896059   4.525527   3.600067   2.029819   0.967035
                   16
    16  H    0.000000
 Symmetry turned off by external request.
 Stoichiometry    C4H9O3(2)
 Framework group  C1[X(C4H9O3)]
 Deg. of freedom    42
 Full point group                 C1
 Rotational constants (GHZ):      3.9376658      1.8240917      1.5973979
 Standard basis: CBSB7 (5D, 7F)
 Integral buffers will be    131072 words long.
 Raffenetti 2 integral format.
 Two-electron integral symmetry is turned off.
   180 basis functions,   296 primitive gaussians,   187 cartesian basis functions
    29 alpha electrons       28 beta electrons
       nuclear repulsion energy       330.7065974975 Hartrees.
 NAtoms=   16 NActive=   16 NUniq=   16 SFac= 7.50D-01 NAtFMM=   80 NAOKFM=F Big=F
 One-electron integrals computed using PRISM.
 NBasis=   180 RedAO= T  NBF=   180
 NBsUse=   180 1.00D-06 NBFU=   180
 Harris functional with IExCor=  402 diagonalized for initial guess.
 ExpMin= 1.03D-01 ExpMax= 8.59D+03 ExpMxC= 1.30D+03 IAcc=1 IRadAn=         1 AccDes= 1.00D-06
 HarFok:  IExCor= 402 AccDes= 1.00D-06 IRadAn=         1 IDoV=1
 ScaDFX=  1.000000  1.000000  1.000000  1.000000
 <S**2> of initial guess= 0.7500
 Requested convergence on RMS density matrix=1.00D-08 within 128 cycles.
 Requested convergence on MAX density matrix=1.00D-06.
 Requested convergence on             energy=1.00D-06.
 No special actions if energy rises.
 Integral accuracy reduced to 1.0D-05 until final iterations.
 Initial convergence to 1.0D-05 achieved.  Increase integral accuracy.
 SCF Done:  E(UB+HF-LYP) =  -383.424011377     A.U. after   22 cycles
             Convg  =    0.6459D-08             -V/T =  2.0033
             S**2   =   0.7950
 Annihilation of the first spin contaminant:
 S**2 before annihilation     0.7950,   after     0.7503
 Range of M.O.s used for correlation:     1   180
 NBasis=   180 NAE=    29 NBE=    28 NFC=     0 NFV=     0
 NROrb=    180 NOA=    29 NOB=    28 NVA=   151 NVB=   152
 Symmetrizing basis deriv contribution to polar:
 IMax=3 JMax=2 DiffMx= 0.00D+00
 G2DrvN: will do   17 centers at a time, making    1 passes doing MaxLOS=2.
 FoFDir/FoFCou used for L=0 through L=2.
 DoAtom=TTTTTTTTTTTTTTTT
          Differentiating once with respect to electric field.
                with respect to dipole field.
          Differentiating once with respect to nuclear coordinates.
 Symmetry not used in FoFDir.
 MinBra= 0 MaxBra= 2 Meth= 1.
 IRaf=       0 NMat=  51 IRICut=      51 DoRegI=T DoRafI=T ISym2E= 0 JSym2E=0.
          There are  51 degrees of freedom in the 1st order CPHF.
    48 vectors were produced by pass  0.
 AX will form  48 AO Fock derivatives at one time.
    48 vectors were produced by pass  1.
    48 vectors were produced by pass  2.
    48 vectors were produced by pass  3.
    48 vectors were produced by pass  4.
    48 vectors were produced by pass  5.
    34 vectors were produced by pass  6.
     3 vectors were produced by pass  7.
     3 vectors were produced by pass  8.
 Inv2:  IOpt= 1 Iter= 1 AM= 3.39D-15 Conv= 1.00D-12.
 Inverted reduced A of dimension  328 with in-core refinement.
 Isotropic polarizability for W=    0.000000       68.84 Bohr**3.
 End of Minotr Frequency-dependent properties file   721 does not exist.

 **********************************************************************

            Population analysis using the SCF density.

 **********************************************************************

 Alpha  occ. eigenvalues --  -19.16972 -19.13391 -19.10807 -10.22784 -10.22190
 Alpha  occ. eigenvalues --  -10.21909 -10.20035  -1.04416  -1.01724  -0.93938
 Alpha  occ. eigenvalues --   -0.80241  -0.69668  -0.67365  -0.57969  -0.51839
 Alpha  occ. eigenvalues --   -0.51253  -0.48637  -0.45609  -0.45115  -0.42043
 Alpha  occ. eigenvalues --   -0.40821  -0.39600  -0.38780  -0.35965  -0.34187
 Alpha  occ. eigenvalues --   -0.31047  -0.27451  -0.26270  -0.21764
 Alpha virt. eigenvalues --   -0.05734   0.03216   0.05051   0.07211   0.07919
 Alpha virt. eigenvalues --    0.08443   0.09987   0.11049   0.12110   0.14286
 Alpha virt. eigenvalues --    0.14656   0.18512   0.19574   0.20977   0.27167
 Alpha virt. eigenvalues --    0.30966   0.33739   0.35689   0.37748   0.39808
 Alpha virt. eigenvalues --    0.41372   0.42081   0.45481   0.46845   0.48391
 Alpha virt. eigenvalues --    0.49805   0.51088   0.51343   0.54018   0.56927
 Alpha virt. eigenvalues --    0.57249   0.58697   0.59236   0.61189   0.63634
 Alpha virt. eigenvalues --    0.65529   0.70879   0.74965   0.78146   0.78903
 Alpha virt. eigenvalues --    0.85266   0.86955   0.89238   0.91206   0.92398
 Alpha virt. eigenvalues --    0.97281   0.99370   1.02599   1.07526   1.09413
 Alpha virt. eigenvalues --    1.14168   1.16492   1.22506   1.26902   1.30948
 Alpha virt. eigenvalues --    1.33964   1.35618   1.36626   1.40436   1.43811
 Alpha virt. eigenvalues --    1.44032   1.45646   1.49845   1.52165   1.53452
 Alpha virt. eigenvalues --    1.55430   1.57101   1.58875   1.61411   1.62046
 Alpha virt. eigenvalues --    1.63017   1.64417   1.64962   1.70003   1.73307
 Alpha virt. eigenvalues --    1.73676   1.75209   1.77077   1.84548   1.88363
 Alpha virt. eigenvalues --    1.92359   1.95360   1.97543   2.00729   2.03508
 Alpha virt. eigenvalues --    2.09338   2.09537   2.13805   2.17794   2.21604
 Alpha virt. eigenvalues --    2.24215   2.29975   2.34534   2.38881   2.40426
 Alpha virt. eigenvalues --    2.42126   2.43460   2.47419   2.51951   2.54771
 Alpha virt. eigenvalues --    2.57097   2.58834   2.60664   2.62736   2.65774
 Alpha virt. eigenvalues --    2.70257   2.77428   2.79433   2.81823   2.84342
 Alpha virt. eigenvalues --    2.86264   2.90606   2.92926   2.96716   3.02081
 Alpha virt. eigenvalues --    3.08814   3.10125   3.11774   3.14143   3.16699
 Alpha virt. eigenvalues --    3.20345   3.22775   3.30864   3.40143   3.42713
 Alpha virt. eigenvalues --    3.68729   3.72055   3.75363   3.76565   3.86793
 Alpha virt. eigenvalues --    3.93678   3.95873   4.05223   4.10159   4.36529
 Alpha virt. eigenvalues --    4.78945   4.83761   4.89907   4.96548   5.23149
 Alpha virt. eigenvalues --    5.28342   5.36415   5.44500   5.65973  23.74889
 Alpha virt. eigenvalues --   23.80907  23.83183  23.85301  49.79430  49.84360
 Alpha virt. eigenvalues --   49.89745
  Beta  occ. eigenvalues --  -19.17113 -19.12164 -19.10801 -10.22695 -10.22187
  Beta  occ. eigenvalues --  -10.20854 -10.20097  -1.03997  -1.01612  -0.91892
  Beta  occ. eigenvalues --   -0.79604  -0.68111  -0.67097  -0.57413  -0.51630
  Beta  occ. eigenvalues --   -0.50490  -0.48307  -0.45217  -0.44512  -0.41811
  Beta  occ. eigenvalues --   -0.40293  -0.39007  -0.37745  -0.34715  -0.33612
  Beta  occ. eigenvalues --   -0.30504  -0.27370  -0.25656
  Beta virt. eigenvalues --   -0.09737  -0.01573   0.03397   0.05349   0.07344
  Beta virt. eigenvalues --    0.08376   0.08525   0.10157   0.11139   0.12202
  Beta virt. eigenvalues --    0.14396   0.14876   0.18686   0.19759   0.21237
  Beta virt. eigenvalues --    0.27303   0.31664   0.33869   0.36795   0.38006
  Beta virt. eigenvalues --    0.41052   0.41654   0.42396   0.45618   0.47766
  Beta virt. eigenvalues --    0.49037   0.50069   0.51258   0.51789   0.54245
  Beta virt. eigenvalues --    0.57238   0.57685   0.58942   0.59580   0.61387
  Beta virt. eigenvalues --    0.63906   0.66033   0.71406   0.75443   0.78694
  Beta virt. eigenvalues --    0.80481   0.85699   0.87907   0.89521   0.92088
  Beta virt. eigenvalues --    0.92943   0.97389   0.99817   1.02946   1.08162
  Beta virt. eigenvalues --    1.10682   1.14235   1.16802   1.23326   1.27653
  Beta virt. eigenvalues --    1.31624   1.34364   1.35755   1.36877   1.40793
  Beta virt. eigenvalues --    1.44072   1.44192   1.45831   1.50319   1.52360
  Beta virt. eigenvalues --    1.53696   1.55823   1.57226   1.59219   1.61673
  Beta virt. eigenvalues --    1.62180   1.63394   1.64487   1.65356   1.70441
  Beta virt. eigenvalues --    1.73740   1.74679   1.75637   1.77300   1.84864
  Beta virt. eigenvalues --    1.89657   1.93794   1.96214   1.98059   2.00997
  Beta virt. eigenvalues --    2.03714   2.09598   2.09756   2.13912   2.18121
  Beta virt. eigenvalues --    2.21814   2.24521   2.30257   2.34676   2.38994
  Beta virt. eigenvalues --    2.40528   2.42412   2.43579   2.47818   2.52640
  Beta virt. eigenvalues --    2.54949   2.57216   2.59183   2.61614   2.63019
  Beta virt. eigenvalues --    2.66336   2.70513   2.77771   2.79772   2.82669
  Beta virt. eigenvalues --    2.85235   2.87123   2.91112   2.94739   2.96818
  Beta virt. eigenvalues --    3.02551   3.09795   3.11191   3.12078   3.14803
  Beta virt. eigenvalues --    3.18130   3.20770   3.22882   3.31170   3.41259
  Beta virt. eigenvalues --    3.43239   3.69207   3.72682   3.75750   3.77666
  Beta virt. eigenvalues --    3.86842   3.93742   3.96106   4.05536   4.10734
  Beta virt. eigenvalues --    4.36779   4.80135   4.88462   4.89921   4.96614
  Beta virt. eigenvalues --    5.21833   5.28145   5.36712   5.45353   5.65974
  Beta virt. eigenvalues --   23.75095  23.81183  23.83951  23.85300  49.80669
  Beta virt. eigenvalues --   49.84258  49.89752
          Condensed to atoms (all electrons):
              1          2          3          4          5          6
     1  C    5.192727   0.389269   0.404625   0.279988  -0.029271  -0.148685
     2  H    0.389269   0.534540  -0.026968  -0.031943  -0.004496  -0.000368
     3  H    0.404625  -0.026968   0.507119  -0.043372   0.003326   0.002683
     4  C    0.279988  -0.031943  -0.043372   5.361650   0.378209   0.304875
     5  H   -0.029271  -0.004496   0.003326   0.378209   0.575979  -0.038336
     6  C   -0.148685  -0.000368   0.002683   0.304875  -0.038336   4.906962
     7  H    0.015497  -0.000665  -0.000296  -0.055415   0.002528   0.415691
     8  H   -0.006301   0.002929  -0.000939  -0.016011  -0.003956   0.376339
     9  C   -0.064774   0.005530  -0.008591   0.331920  -0.018113  -0.049728
    10  H    0.013036  -0.000282   0.002061  -0.049503   0.001165  -0.014538
    11  H   -0.007766  -0.000061  -0.002302  -0.032327  -0.006414   0.010992
    12  O    0.008720   0.000525   0.019895  -0.065507   0.004283   0.004195
    13  H   -0.001962   0.000089  -0.003501  -0.009018  -0.000274   0.003642
    14  O    0.046421  -0.004139  -0.002985  -0.044042   0.004875   0.177545
    15  O    0.008814  -0.000209  -0.000164   0.005760   0.000002  -0.024635
    16  H   -0.001738   0.000059   0.000070  -0.000672  -0.000001  -0.000398
              7          8          9         10         11         12
     1  C    0.015497  -0.006301  -0.064774   0.013036  -0.007766   0.008720
     2  H   -0.000665   0.002929   0.005530  -0.000282  -0.000061   0.000525
     3  H   -0.000296  -0.000939  -0.008591   0.002061  -0.002302   0.019895
     4  C   -0.055415  -0.016011   0.331920  -0.049503  -0.032327  -0.065507
     5  H    0.002528  -0.003956  -0.018113   0.001165  -0.006414   0.004283
     6  C    0.415691   0.376339  -0.049728  -0.014538   0.010992   0.004195
     7  H    0.570833  -0.046806  -0.005876   0.002127   0.000651   0.001909
     8  H   -0.046806   0.603925   0.005259  -0.000387  -0.000461  -0.000054
     9  C   -0.005876   0.005259   4.698051   0.400044   0.398898   0.306586
    10  H    0.002127  -0.000387   0.400044   0.633039  -0.047098  -0.034223
    11  H    0.000651  -0.000461   0.398898  -0.047098   0.605339  -0.036281
    12  O    0.001909  -0.000054   0.306586  -0.034223  -0.036281   7.876052
    13  H   -0.003131   0.001441  -0.048148  -0.003871   0.007663   0.327566
    14  O   -0.033641  -0.033876  -0.003805  -0.000253  -0.000610  -0.005693
    15  O    0.005705   0.006395  -0.000415  -0.000068  -0.000002  -0.000008
    16  H   -0.000443  -0.000197   0.000049   0.000009   0.000001   0.000004
             13         14         15         16
     1  C   -0.001962   0.046421   0.008814  -0.001738
     2  H    0.000089  -0.004139  -0.000209   0.000059
     3  H   -0.003501  -0.002985  -0.000164   0.000070
     4  C   -0.009018  -0.044042   0.005760  -0.000672
     5  H   -0.000274   0.004875   0.000002  -0.000001
     6  C    0.003642   0.177545  -0.024635  -0.000398
     7  H   -0.003131  -0.033641   0.005705  -0.000443
     8  H    0.001441  -0.033876   0.006395  -0.000197
     9  C   -0.048148  -0.003805  -0.000415   0.000049
    10  H   -0.003871  -0.000253  -0.000068   0.000009
    11  H    0.007663  -0.000610  -0.000002   0.000001
    12  O    0.327566  -0.005693  -0.000008   0.000004
    13  H    0.455260   0.022839   0.003502  -0.000273
    14  O    0.022839   8.210063   0.012948  -0.002332
    15  O    0.003502   0.012948   8.042586   0.268925
    16  H   -0.000273  -0.002332   0.268925   0.486953
 Mulliken atomic charges:
              1
     1  C   -0.098599
     2  H    0.136192
     3  H    0.149339
     4  C   -0.314591
     5  H    0.130494
     6  C    0.073764
     7  H    0.131332
     8  H    0.112700
     9  C    0.053111
    10  H    0.098742
    11  H    0.109776
    12  O   -0.407968
    13  H    0.248174
    14  O   -0.343313
    15  O   -0.329137
    16  H    0.249984
 Sum of Mulliken charges=   0.00000
 Atomic charges with hydrogens summed into heavy atoms:
              1
     1  C    0.186932
     2  H    0.000000
     3  H    0.000000
     4  C   -0.184097
     5  H    0.000000
     6  C    0.317795
     7  H    0.000000
     8  H    0.000000
     9  C    0.261629
    10  H    0.000000
    11  H    0.000000
    12  O   -0.159794
    13  H    0.000000
    14  O   -0.343313
    15  O   -0.079152
    16  H    0.000000
 Sum of Mulliken charges=   0.00000
          Atomic-Atomic Spin Densities.
              1          2          3          4          5          6
     1  C    0.815173  -0.000076  -0.002245  -0.029143  -0.010715  -0.037109
     2  H   -0.000076  -0.034703   0.003133  -0.000638  -0.001123   0.001922
     3  H   -0.002245   0.003133  -0.032324  -0.001601  -0.001037   0.001637
     4  C   -0.029143  -0.000638  -0.001601  -0.049191   0.008901   0.009359
     5  H   -0.010715  -0.001123  -0.001037   0.008901   0.045865  -0.015982
     6  C   -0.037109   0.001922   0.001637   0.009359  -0.015982   0.080178
     7  H    0.002653  -0.000088  -0.000076   0.001205   0.000900  -0.005116
     8  H    0.002212  -0.000238  -0.000034  -0.000123   0.000945  -0.002625
     9  C   -0.005513  -0.000136   0.000624   0.005044   0.001466   0.001378
    10  H   -0.000080   0.000029   0.000012  -0.000128  -0.000695   0.001082
    11  H    0.002043   0.000072   0.000362  -0.001365  -0.001663   0.000897
    12  O   -0.000334   0.000001   0.000244   0.000588   0.000170  -0.000452
    13  H    0.000323   0.000003  -0.000136  -0.000048   0.000107  -0.000344
    14  O   -0.017134   0.000931   0.000487   0.008153  -0.000218   0.002904
    15  O    0.009332  -0.000270  -0.000241  -0.000035   0.000209  -0.000084
    16  H   -0.001585   0.000060   0.000050   0.000034  -0.000034   0.000144
              7          8          9         10         11         12
     1  C    0.002653   0.002212  -0.005513  -0.000080   0.002043  -0.000334
     2  H   -0.000088  -0.000238  -0.000136   0.000029   0.000072   0.000001
     3  H   -0.000076  -0.000034   0.000624   0.000012   0.000362   0.000244
     4  C    0.001205  -0.000123   0.005044  -0.000128  -0.001365   0.000588
     5  H    0.000900   0.000945   0.001466  -0.000695  -0.001663   0.000170
     6  C   -0.005116  -0.002625   0.001378   0.001082   0.000897  -0.000452
     7  H   -0.000344   0.001007  -0.000278  -0.000270  -0.000062   0.000073
     8  H    0.001007  -0.001106  -0.000072  -0.000026  -0.000024   0.000006
     9  C   -0.000278  -0.000072   0.001669  -0.000340  -0.000865  -0.000732
    10  H   -0.000270  -0.000026  -0.000340  -0.000032   0.000855  -0.000290
    11  H   -0.000062  -0.000024  -0.000865   0.000855   0.001094  -0.000485
    12  O    0.000073   0.000006  -0.000732  -0.000290  -0.000485   0.002690
    13  H    0.000014   0.000049   0.000121  -0.000077  -0.000073   0.000029
    14  O    0.000119  -0.001404  -0.000235  -0.000001  -0.000018  -0.000046
    15  O   -0.000108   0.000833  -0.000131  -0.000012  -0.000011  -0.000003
    16  H   -0.000021  -0.000129   0.000016   0.000002   0.000002   0.000002
             13         14         15         16
     1  C    0.000323  -0.017134   0.009332  -0.001585
     2  H    0.000003   0.000931  -0.000270   0.000060
     3  H   -0.000136   0.000487  -0.000241   0.000050
     4  C   -0.000048   0.008153  -0.000035   0.000034
     5  H    0.000107  -0.000218   0.000209  -0.000034
     6  C   -0.000344   0.002904  -0.000084   0.000144
     7  H    0.000014   0.000119  -0.000108  -0.000021
     8  H    0.000049  -0.001404   0.000833  -0.000129
     9  C    0.000121  -0.000235  -0.000131   0.000016
    10  H   -0.000077  -0.000001  -0.000012   0.000002
    11  H   -0.000073  -0.000018  -0.000011   0.000002
    12  O    0.000029  -0.000046  -0.000003   0.000002
    13  H   -0.000142   0.000131   0.000138  -0.000022
    14  O    0.000131  -0.029352  -0.087111   0.004334
    15  O    0.000138  -0.087111   0.518807   0.001331
    16  H   -0.000022   0.004334   0.001331  -0.013029
 Mulliken atomic spin densities:
              1
     1  C    0.727803
     2  H   -0.031121
     3  H   -0.031144
     4  C   -0.048986
     5  H    0.027096
     6  C    0.037791
     7  H   -0.000392
     8  H   -0.000728
     9  C    0.002016
    10  H    0.000026
    11  H    0.000761
    12  O    0.001461
    13  H    0.000075
    14  O   -0.118459
    15  O    0.442646
    16  H   -0.008844
 Sum of Mulliken spin densities=   1.00000
 APT atomic charges:
              1
     1  C   -0.209433
     2  H    0.009388
     3  H    0.044610
     4  C    0.041872
     5  H   -0.025418
     6  C    0.401426
     7  H   -0.018638
     8  H   -0.058040
     9  C    0.494632
    10  H   -0.077839
    11  H   -0.042383
    12  O   -0.586036
    13  H    0.270197
    14  O    0.278288
    15  O   -0.769914
    16  H    0.247289
 Sum of APT charges=   0.00000
 APT Atomic charges with hydrogens summed into heavy atoms:
              1
     1  C   -0.155435
     2  H    0.000000
     3  H    0.000000
     4  C    0.016454
     5  H    0.000000
     6  C    0.324748
     7  H    0.000000
     8  H    0.000000
     9  C    0.374409
    10  H    0.000000
    11  H    0.000000
    12  O   -0.315839
    13  H    0.000000
    14  O    0.278288
    15  O   -0.522625
    16  H    0.000000
 Sum of APT charges=   0.00000
 Electronic spatial extent (au):  <R**2>=  1331.4568
 Charge=     0.0000 electrons
 Dipole moment (field-independent basis, Debye):
    X=     0.6234    Y=    -0.8790    Z=     2.6472  Tot=     2.8581
 Quadrupole moment (field-independent basis, Debye-Ang):
   XX=   -42.2095   YY=   -47.8972   ZZ=   -38.5930
   XY=    -1.9482   XZ=    -4.2387   YZ=     5.2915
 Traceless Quadrupole moment (field-independent basis, Debye-Ang):
   XX=     0.6904   YY=    -4.9973   ZZ=     4.3069
   XY=    -1.9482   XZ=    -4.2387   YZ=     5.2915
 Octapole moment (field-independent basis, Debye-Ang**2):
  XXX=   127.6153  YYY=  -177.9870  ZZZ=   -68.2136  XYY=    47.2584
  XXY=   -41.9087  XXZ=   -15.6884  XZZ=    42.5569  YZZ=   -47.8795
  YYZ=   -13.2225  XYZ=    -3.1082
 Hexadecapole moment (field-independent basis, Debye-Ang**3):
 XXXX=  -440.1201 YYYY=  -964.0017 ZZZZ=  -370.3389 XXXY=   127.1698
 XXXZ=    40.0228 YYYX=   159.6853 YYYZ=   -94.6938 ZZZX=    44.9634
 ZZZY=  -140.6082 XXYY=  -219.4126 XXZZ=  -140.0765 YYZZ=  -192.2853
 XXYZ=   -47.8927 YYXZ=     4.0180 ZZXY=    41.8772
 N-N= 3.307065974975D+02 E-N=-1.561591859456D+03  KE= 3.821749386308D+02
  Exact polarizability:  62.013   7.722  70.919   9.971  19.701  73.574
 Approx polarizability:  94.598  19.764  97.364  23.995  35.391 117.343
                          Isotropic Fermi Contact Couplings
        Atom                 a.u.       MegaHertz       Gauss      10(-4) cm-1
     1  C(13)              0.07052      79.27388      28.28689      26.44292
     2  H(1)              -0.00951     -42.51956     -15.17204     -14.18300
     3  H(1)              -0.00977     -43.68902     -15.58933     -14.57309
     4  C(13)             -0.02450     -27.53726      -9.82598      -9.18544
     5  H(1)               0.01346      60.15971      21.46648      20.06712
     6  C(13)              0.01914      21.51296       7.67636       7.17595
     7  H(1)               0.00011       0.50963       0.18185       0.17000
     8  H(1)              -0.00055      -2.44160      -0.87123      -0.81443
     9  C(13)              0.00082       0.91951       0.32810       0.30671
    10  H(1)               0.00002       0.10394       0.03709       0.03467
    11  H(1)              -0.00024      -1.07401      -0.38323      -0.35825
    12  O(17)              0.00001      -0.00318      -0.00113      -0.00106
    13  H(1)               0.00002       0.07880       0.02812       0.02628
    14  O(17)              0.47463    -287.71874    -102.66520     -95.97264
    15  O(17)              0.01357      -8.22335      -2.93430      -2.74302
    16  H(1)              -0.00665     -29.70353     -10.59896      -9.90803
 --------------------------------------------------------
       Center         ----  Spin Dipole Couplings  ----
                      3XX-RR        3YY-RR        3ZZ-RR
 --------------------------------------------------------
     1   Atom       -0.356660     -0.012244      0.368904
     2   Atom       -0.033442      0.024600      0.008842
     3   Atom       -0.008681      0.001973      0.006708
     4   Atom        0.001064     -0.000067     -0.000997
     5   Atom        0.004487     -0.004981      0.000494
     6   Atom       -0.022205      0.014862      0.007343
     7   Atom        0.002449     -0.001601     -0.000848
     8   Atom       -0.001473      0.001129      0.000344
     9   Atom        0.000842      0.001955     -0.002797
    10   Atom        0.001254      0.000692     -0.001946
    11   Atom       -0.001370      0.004941     -0.003571
    12   Atom        0.001944      0.004976     -0.006920
    13   Atom       -0.002390      0.000816      0.001574
    14   Atom       -0.215435      0.294927     -0.079493
    15   Atom       -0.045091     -0.150257      0.195348
    16   Atom        0.040302     -0.009953     -0.030348
 --------------------------------------------------------
                        XY            XZ            YZ
 --------------------------------------------------------
     1   Atom        0.148388      0.208438      0.554916
     2   Atom       -0.024193      0.029899     -0.020849
     3   Atom        0.045494     -0.024439     -0.009985
     4   Atom       -0.005018     -0.003347      0.013233
     5   Atom       -0.002424     -0.006623      0.000153
     6   Atom        0.017725      0.018277      0.048308
     7   Atom       -0.003526      0.002121      0.004840
     8   Atom        0.005203     -0.000843     -0.000234
     9   Atom       -0.006441      0.002666     -0.002358
    10   Atom       -0.003153      0.000597      0.000019
    11   Atom       -0.003888     -0.000050      0.000298
    12   Atom       -0.010659     -0.000507      0.000266
    13   Atom       -0.001431      0.004583     -0.002287
    14   Atom       -0.379139     -0.532979     -0.158293
    15   Atom        0.836926      1.005959      0.942627
    16   Atom       -0.047866     -0.021616      0.036719
 --------------------------------------------------------


 ---------------------------------------------------------------------------------
              Anisotropic Spin Dipole Couplings in Principal Axis System
 ---------------------------------------------------------------------------------

       Atom             a.u.   MegaHertz   Gauss  10(-4) cm-1        Axes

              Baa    -0.4123   -55.326   -19.742   -18.455  0.9737 -0.0541 -0.2214
     1 C(13)  Bbb    -0.4084   -54.799   -19.554   -18.279 -0.0826  0.8214 -0.5643
              Bcc     0.8207   110.125    39.295    36.734  0.2124  0.5677  0.7954
 
              Baa    -0.0511   -27.280    -9.734    -9.100  0.9038  0.1821 -0.3873
     2 H(1)   Bbb    -0.0037    -1.954    -0.697    -0.652  0.1712  0.6756  0.7171
              Bcc     0.0548    29.234    10.431     9.751 -0.3922  0.7144 -0.5794
 
              Baa    -0.0517   -27.602    -9.849    -9.207  0.7645 -0.6074  0.2159
     3 H(1)   Bbb    -0.0028    -1.493    -0.533    -0.498  0.1392  0.4825  0.8647
              Bcc     0.0545    29.095    10.382     9.705  0.6295  0.6310 -0.4534
 
              Baa    -0.0139    -1.860    -0.664    -0.620  0.0790  0.7050 -0.7048
     4 C(13)  Bbb    -0.0013    -0.181    -0.065    -0.060  0.9183  0.2236  0.3266
              Bcc     0.0152     2.041     0.728     0.681 -0.3878  0.6730  0.6298
 
              Baa    -0.0062    -3.320    -1.184    -1.107  0.4357  0.8005  0.4115
     5 H(1)   Bbb    -0.0035    -1.852    -0.661    -0.618  0.4073 -0.5831  0.7029
              Bcc     0.0097     5.172     1.845     1.725  0.8026 -0.1387 -0.5801
 
              Baa    -0.0376    -5.041    -1.799    -1.682 -0.1562 -0.6402  0.7522
     6 C(13)  Bbb    -0.0292    -3.925    -1.401    -1.309  0.9488 -0.3090 -0.0660
              Bcc     0.0668     8.966     3.199     2.991  0.2747  0.7033  0.6557
 
              Baa    -0.0077    -4.103    -1.464    -1.369  0.3711  0.7000 -0.6102
     7 H(1)   Bbb     0.0030     1.622     0.579     0.541  0.5581  0.3571  0.7490
              Bcc     0.0046     2.481     0.885     0.828  0.7422 -0.6185 -0.2581
 
              Baa    -0.0056    -2.978    -1.063    -0.993  0.7886 -0.6085  0.0881
     8 H(1)   Bbb     0.0003     0.155     0.055     0.052  0.0176  0.1657  0.9860
              Bcc     0.0053     2.824     1.008     0.942  0.6146  0.7761 -0.1414
 
              Baa    -0.0052    -0.693    -0.247    -0.231  0.7576  0.6011 -0.2544
     9 C(13)  Bbb    -0.0038    -0.506    -0.180    -0.169  0.0044  0.3851  0.9229
              Bcc     0.0089     1.199     0.428     0.400 -0.6527  0.7003 -0.2891
 
              Baa    -0.0025    -1.342    -0.479    -0.447 -0.5631 -0.5575  0.6100
    10 H(1)   Bbb    -0.0017    -0.883    -0.315    -0.294  0.3695  0.4904  0.7893
              Bcc     0.0042     2.224     0.794     0.742  0.7391 -0.6699  0.0702
 
              Baa    -0.0036    -1.919    -0.685    -0.640 -0.1825 -0.1171  0.9762
    11 H(1)   Bbb    -0.0032    -1.709    -0.610    -0.570  0.8844  0.4143  0.2150
              Bcc     0.0068     3.628     1.295     1.210 -0.4297  0.9026  0.0280
 
              Baa    -0.0074     0.535     0.191     0.179  0.6961  0.5908  0.4079
    12 O(17)  Bbb    -0.0068     0.495     0.177     0.165 -0.2930 -0.2849  0.9127
              Bcc     0.0142    -1.030    -0.368    -0.344 -0.6554  0.7549  0.0252
 
              Baa    -0.0054    -2.882    -1.028    -0.961  0.8341 -0.0109 -0.5515
    13 H(1)   Bbb    -0.0006    -0.314    -0.112    -0.105  0.2630  0.8867  0.3802
              Bcc     0.0060     3.196     1.141     1.066  0.4849 -0.4622  0.7425
 
              Baa    -0.8221    59.486    21.226    19.842  0.7312  0.3326  0.5957
    14 O(17)  Bbb     0.2852   -20.635    -7.363    -6.883 -0.3204 -0.6035  0.7302
              Bcc     0.5369   -38.851   -13.863   -12.959 -0.6023  0.7247  0.3347
 
              Baa    -0.9380    67.873    24.219    22.640  0.7676 -0.0511 -0.6388
    15 O(17)  Bbb    -0.9354    67.688    24.153    22.578 -0.3053  0.8473 -0.4347
              Bcc     1.8734  -135.561   -48.371   -45.218  0.5635  0.5287  0.6348
 
              Baa    -0.0603   -32.183   -11.484   -10.735 -0.1714 -0.6815  0.7114
    16 H(1)   Bbb    -0.0218   -11.633    -4.151    -3.880  0.6018  0.4993  0.6233
              Bcc     0.0821    43.816    15.635    14.615  0.7801 -0.5350 -0.3246
 

 ---------------------------------------------------------------------------------

 Use density number 0.
 Entering OneElI...
 Calculate overlap and kinetic energy integrals
    NBasis = 187  MinDer = 2  MaxDer = 2
 Requested accuracy = 0.1000D-12
 PrsmSu:  NPrtUS=   1 ThrOK=F
 PRISM was handed   130759715 working-precision words and  2546 shell-pairs
 Entering OneElI...
 Calculate potential energy integrals
    NBasis = 187  MinDer = 2  MaxDer = 2
 Requested accuracy = 0.1000D-12
 PrsmSu:  NPrtUS=   8 ThrOK=T
 PRISM was handed    16301249 working-precision words and  2390 shell-pairs
 PRISM was handed    16301249 working-precision words and  2390 shell-pairs
 PRISM was handed    16301249 working-precision words and  2390 shell-pairs
 PRISM was handed    16301249 working-precision words and  2390 shell-pairs
 PRISM was handed    16301249 working-precision words and  2390 shell-pairs
 PRISM was handed    16301249 working-precision words and  2390 shell-pairs
 PRISM was handed    16301249 working-precision words and  2390 shell-pairs
 PRISM was handed    16301249 working-precision words and  2390 shell-pairs
 Polarizability after L701:
                1             2             3
      1  0.620133D+02
      2  0.772155D+01  0.709189D+02
      3  0.997058D+01  0.197008D+02  0.735745D+02
 Dipole Derivatives after L701:
               1            2            3            4            5
      1-0.150202D+00-0.217788D+00-0.302578D+00 0.109440D-01 0.465170D-01
      2-0.298147D+00-0.150813D+00-0.389051D+00 0.481272D-01-0.142367D-01
      3-0.350057D+00-0.392131D+00-0.327283D+00-0.978564D-02 0.589852D-01
               6            7            8            9           10
      1-0.426138D-01 0.261796D-01-0.486690D-01 0.309505D-01-0.989532D-01
      2 0.655181D-01-0.841368D-02 0.536562D-01 0.604193D-02-0.830719D-01
      3 0.314557D-01 0.154308D-01 0.403299D-01 0.539939D-01-0.134928D+00
              11           12           13           14           15
      1-0.708728D-02 0.204428D-01 0.434147D-01 0.294402D-01 0.787334D-01
      2 0.498918D-01 0.531854D-01 0.403808D-01 0.109901D-01-0.269095D-02
      3 0.144633D+00 0.174678D+00 0.895847D-01-0.149470D-02-0.130660D+00
              16           17           18           19           20
      1 0.561441D+00-0.196436D-02-0.159915D+00-0.100282D+00 0.485282D-01
      2 0.892083D-01 0.275394D+00-0.921773D-01 0.393997D-01 0.385767D-01
      3-0.484578D-01-0.811799D-01 0.367443D+00-0.218350D-01 0.372834D-01
              21           22           23           24           25
      1-0.873251D-01 0.140459D-02-0.594343D-01 0.603063D-01 0.445499D+00
      2 0.224684D-01-0.930704D-02-0.123797D+00 0.831550D-01-0.237086D-01
      3 0.579111D-02 0.213687D-01 0.100618D+00-0.517259D-01-0.120300D+00
              26           27           28           29           30
      1-0.852470D-02-0.175810D+00-0.221137D+00 0.420730D-02 0.173529D-01
      2 0.402983D+00-0.789583D-01 0.786623D-01-0.485296D-02 0.309373D-01
      3 0.180262D-01 0.635413D+00 0.707005D-01-0.153642D-02-0.752836D-02
              31           32           33           34           35
      1 0.794929D-02-0.347189D-01-0.261885D-01-0.484430D+00 0.671308D-01
      2-0.993392D-01-0.910372D-01-0.718497D-01 0.118198D+00-0.465469D+00
      3-0.588999D-01-0.703730D-01-0.440625D-01 0.119241D+00 0.547228D-01
              36           37           38           39           40
      1 0.157681D+00 0.239859D+00-0.685976D-01 0.100397D-01 0.946794D-01
      2 0.188930D+00-0.103290D+00 0.283083D+00-0.881374D-01 0.538914D+00
      3-0.808208D+00 0.993402D-02-0.774391D-01 0.287648D+00 0.837129D+00
              41           42           43           44           45
      1 0.639522D+00 0.865063D+00-0.477819D+00-0.463283D+00-0.461795D+00
      2 0.230024D+00 0.778391D+00-0.322329D+00-0.815638D+00-0.488164D+00
      3 0.706329D+00 0.510160D+00-0.346888D+00-0.553995D+00-0.101628D+01
              46           47           48
      1 0.101453D+00 0.747209D-01 0.156552D-01
      2-0.528463D-02 0.321245D+00-0.175980D-01
      3-0.722367D-01 0.172225D-01 0.319170D+00
 Hessian after L701:
                1             2             3             4             5
      1  0.892388D+01
      2  0.690225D+00  0.118565D+02
      3 -0.127789D+00  0.957336D+00  0.130163D+02
      4 -0.392020D+01 -0.100363D+01  0.685040D+00  0.370262D+01
      5 -0.834387D+00 -0.275806D+01 -0.110545D+01  0.102452D+01  0.281925D+01
      6  0.640578D+00 -0.122842D+01 -0.354237D+01 -0.935670D+00  0.120844D+01
      7 -0.333649D+01  0.139985D+01 -0.117240D+01  0.109407D+00 -0.318395D-01
      8  0.119083D+01 -0.352413D+01 -0.946750D+00 -0.327660D-01 -0.734714D-01
      9 -0.898734D+00 -0.865118D+00 -0.390749D+01  0.250144D-01  0.128107D+00
     10 -0.124109D+01 -0.151151D+01 -0.782575D+00 -0.141408D-01  0.693935D-01
     11 -0.157852D+01 -0.547757D+01  0.257266D+00  0.133134D+00  0.302275D-02
     12 -0.977857D+00  0.315424D+00 -0.597797D+01 -0.747446D-02 -0.125426D-01
     13 -0.880449D-01  0.904139D-02 -0.376785D-01 -0.206032D-01  0.126607D-01
     14  0.216041D-01  0.535039D-01  0.257053D-01  0.192997D-01  0.147010D-02
     15 -0.246950D-01  0.300888D-01  0.239080D+00  0.567490D-02  0.498579D-02
     16  0.322712D+00  0.110582D+00  0.118741D+00  0.538187D-01 -0.321688D-01
     17  0.331392D-01  0.498920D+00  0.568563D-01 -0.187690D-01 -0.266909D-01
     18  0.266590D+00  0.113243D+00  0.541497D+00  0.561240D-01 -0.241682D-01
     19  0.296061D+00  0.479074D-01  0.146990D+00 -0.122236D-02 -0.789215D-02
     20  0.353990D-01 -0.962904D-01  0.875180D-02 -0.166190D-02  0.228527D-02
     21  0.135789D+00  0.124258D-01 -0.401921D-01  0.156908D-03 -0.380059D-02
     22 -0.902921D-02  0.150725D-01 -0.258043D-01  0.456925D-01  0.647439D-02
     23  0.131704D-01  0.211930D-01 -0.213242D-01  0.292713D-01 -0.173472D-01
     24 -0.214629D-01 -0.210873D-01 -0.567428D-02  0.113198D-02  0.521818D-02
     25  0.154722D+00 -0.125116D+00  0.881094D-01  0.318820D-01 -0.923519D-01
     26  0.127558D-01  0.596821D-01 -0.451394D-02 -0.950961D-01  0.689463D-01
     27  0.133771D+00 -0.786487D-01  0.932044D-01  0.391928D-01 -0.469574D-01
     28  0.170852D+00 -0.180170D+00  0.506070D-01  0.275791D-02 -0.682355D-02
     29 -0.166603D+00  0.423960D-01 -0.292848D-01  0.197368D-02  0.170098D-03
     30  0.329402D-01 -0.166883D-01 -0.665687D-01 -0.108218D-02  0.283070D-03
     31  0.215265D-01  0.840140D-02  0.269683D-02 -0.209031D-02  0.229432D-03
     32  0.741344D-02 -0.562951D-01 -0.283718D-02 -0.728968D-02  0.126906D-01
     33  0.129104D-02  0.706110D-02  0.355397D-02 -0.246199D-02  0.454208D-02
     34 -0.357203D+00 -0.145010D+00  0.126173D+00 -0.266104D-02 -0.278837D-01
     35 -0.666611D-01  0.150392D+00 -0.453080D+00 -0.377163D-01  0.439543D-01
     36  0.512563D-01 -0.408573D+00 -0.191134D-01  0.232404D-01 -0.436909D-01
     37  0.119550D-02 -0.146415D-01  0.298508D-01  0.730868D-03 -0.440748D-02
     38  0.356827D-02 -0.510391D-01  0.400894D-01  0.220615D-02 -0.713370D-02
     39  0.201902D-01 -0.168314D-01  0.933477D-02  0.740451D-02 -0.106843D-01
     40 -0.890644D+00  0.525185D+00  0.669842D+00  0.916434D-02 -0.683945D-01
     41  0.498524D+00 -0.677449D+00  0.100457D+01 -0.248248D-01 -0.505027D-01
     42  0.572052D+00  0.969867D+00 -0.441537D+00  0.736383D-01 -0.944488D-01
     43 -0.444733D-01  0.190108D+00  0.245026D+00  0.910848D-02 -0.108982D-01
     44  0.148038D+00 -0.433077D-01  0.204951D+00  0.768985D-02 -0.144124D-01
     45  0.203262D+00  0.225488D+00  0.999642D-01  0.262687D-01 -0.830034D-02
     46 -0.377369D-02 -0.162988D-01 -0.168252D-01 -0.425913D-02  0.376956D-02
     47 -0.849778D-02  0.154717D-02  0.770733D-02  0.365746D-02 -0.416508D-02
     48 -0.718217D-02  0.443818D-02 -0.198578D-02  0.380154D-02 -0.153641D-02
                6             7             8             9            10
      6  0.336312D+01
      7  0.271345D-01  0.297269D+01
      8  0.141672D+00 -0.142560D+01  0.343881D+01
      9 -0.316333D-03  0.891703D+00  0.843704D+00  0.403103D+01
     10 -0.378003D-02 -0.197138D-02  0.580108D-01  0.458507D-01  0.174871D+02
     11  0.554196D-02  0.123514D-01  0.155929D+00 -0.105185D-01  0.741854D+00
     12  0.100224D+00  0.131519D+00 -0.163011D-01  0.818318D-01 -0.997250D-01
     13  0.115129D-01  0.352935D-01  0.121463D-01 -0.374046D-01 -0.425481D+01
     14 -0.684706D-02  0.342615D-02 -0.160249D-01 -0.303689D-02 -0.365705D-01
     15  0.152520D-02 -0.560837D-01 -0.158801D-01  0.223118D-01 -0.770345D+00
     16  0.573797D-01  0.104837D+00  0.826865D-01 -0.221258D-01 -0.547330D+01
     17 -0.119848D-01  0.783675D-01 -0.102762D-02 -0.127003D-01  0.150911D+01
     18  0.134368D-02 -0.101836D-01 -0.483355D-02 -0.436608D-01  0.971647D+00
     19  0.321058D-02  0.932171D-02  0.856612D-02 -0.582330D-02 -0.461234D-01
     20 -0.141378D-02 -0.260031D-02 -0.166103D-02  0.205700D-03 -0.132387D+00
     21  0.245582D-02  0.453706D-02  0.367631D-02 -0.300809D-02 -0.155006D+00
     22  0.175284D-01 -0.464172D-02 -0.292358D-02 -0.897100D-03  0.696952D-01
     23  0.118904D-01  0.912129D-03  0.371637D-02 -0.354411D-02  0.588176D-01
     24 -0.169701D-01 -0.364662D-02 -0.336046D-02  0.398631D-02 -0.240832D-01
     25  0.425383D-01 -0.227185D-01  0.267447D-01 -0.134885D-01 -0.607682D+01
     26 -0.486580D-01  0.102897D-01 -0.353900D-02  0.344003D-02 -0.893023D+00
     27 -0.195820D-01  0.163598D-01 -0.123214D-02 -0.452645D-02  0.478084D+00
     28  0.492162D-02  0.486801D-01 -0.878010D-02 -0.694405D-02 -0.101968D+00
     29 -0.165554D-02 -0.202882D-01 -0.449948D-02  0.188038D-02  0.228233D+00
     30 -0.165053D-03 -0.331817D-02  0.103241D-02 -0.873448D-02 -0.105300D+00
     31 -0.798729D-03 -0.366197D-02  0.537287D-02  0.116469D-02  0.738725D-01
     32 -0.593857D-02 -0.448603D-02 -0.985664D-02  0.562358D-02 -0.122955D+00
     33 -0.437835D-02 -0.475138D-02 -0.582187D-02  0.516163D-02  0.368045D-02
     34  0.216460D-01  0.252171D-01 -0.680999D-01  0.628333D-01  0.830402D-01
     35 -0.524528D-01 -0.186881D+00 -0.702019D-01 -0.722736D-01 -0.368342D-01
     36  0.127338D-01  0.136507D+00 -0.679787D-01 -0.798809D-01  0.187007D+00
     37  0.507677D-02 -0.732520D-02  0.636835D-02 -0.154397D-01  0.184313D-01
     38  0.243813D-02  0.189171D-01  0.103819D-01  0.330293D-02 -0.231498D-01
     39  0.886318D-02 -0.619663D-02  0.910761D-02 -0.789167D-02  0.978385D-01
     40  0.779577D-01  0.576784D-01  0.117073D+00 -0.279710D-01 -0.336908D+00
     41 -0.293271D-01  0.116831D+00  0.790015D-01 -0.228498D-01  0.596548D-01
     42  0.672236D-01  0.244476D-01  0.364027D-01 -0.768754D-01  0.121767D+00
     43  0.351523D-01  0.190844D-01  0.345943D-01  0.220072D-03 -0.181528D+00
     44  0.100915D-01  0.240940D-01  0.973653D-02  0.357704D-02  0.318916D-01
     45  0.206550D-01  0.201917D-01  0.211049D-01 -0.109016D-01  0.344783D-01
     46 -0.438839D-02 -0.540523D-02 -0.422401D-02  0.204196D-02 -0.343661D-02
     47  0.662918D-02  0.666318D-02  0.683470D-02  0.200856D-03 -0.539137D-03
     48  0.563453D-02  0.418430D-02  0.545799D-02 -0.102846D-02  0.461413D-03
               11            12            13            14            15
     11  0.141655D+02
     12 -0.557425D+00  0.169490D+02
     13 -0.390955D-01 -0.726135D+00  0.428973D+01
     14 -0.449994D+01  0.152597D+00  0.537428D-01  0.458787D+01
     15  0.175177D+00 -0.196930D+01  0.920370D+00 -0.141073D+00  0.116631D+01
     16  0.159221D+01  0.107772D+01  0.103542D+00 -0.214095D-01 -0.414870D-01
     17 -0.305268D+01  0.205600D+01 -0.132579D-01  0.829825D-03 -0.101702D+00
     18  0.191891D+01 -0.483064D+01 -0.324182D-01 -0.951942D-01  0.814851D-01
     19 -0.105017D+00 -0.206897D+00 -0.286229D-02  0.113781D-01  0.441797D-01
     20  0.170314D+00 -0.970282D-01  0.754659D-02 -0.893450D-02  0.150475D-01
     21 -0.518521D-01  0.709919D-01  0.197904D-01  0.161690D-01  0.428855D-01
     22  0.167307D-01 -0.470463D-02  0.737047D-02 -0.123299D-01 -0.524962D-02
     23 -0.454637D-01 -0.401952D-01 -0.135624D-01 -0.288448D-01 -0.137740D-01
     24 -0.711229D-01  0.370535D-01 -0.535802D-02 -0.263947D-01 -0.938301D-02
     25 -0.896150D+00  0.490713D+00  0.194183D-01 -0.192063D-01  0.443963D-02
     26 -0.187405D+01 -0.220339D+01 -0.109781D-01 -0.609504D-02  0.178401D-01
     27 -0.206915D+01 -0.510465D+01 -0.948891D-02  0.449202D-01  0.482982D-01
     28  0.149893D+00 -0.139261D+00 -0.416893D-02 -0.102414D-01  0.275362D-01
     29  0.810950D-01  0.918602D-01 -0.599427D-02  0.172586D-03 -0.174292D-01
     30  0.533414D-01  0.114075D+00  0.597411D-02 -0.934990D-02  0.603092D-02
     31 -0.572184D-01  0.170585D-01  0.147471D-01 -0.670601D-02 -0.132690D-02
     32 -0.517086D-01 -0.753969D-02 -0.556220D-02 -0.284969D-01  0.148900D-01
     33  0.169936D-01  0.975174D-01  0.595694D-02  0.223642D-01 -0.229398D-02
     34 -0.217720D-01  0.207518D+00 -0.392246D-01  0.181978D-01 -0.455571D-01
     35  0.430519D+00 -0.307852D+00  0.276877D-01 -0.198539D-01 -0.112136D+00
     36 -0.347978D+00 -0.234202D-01 -0.456494D-01 -0.668423D-01  0.151699D+00
     37 -0.213291D-01  0.902482D-01 -0.212747D-02  0.257211D-03  0.301299D-03
     38  0.217914D-01  0.563508D-01 -0.205996D-02 -0.333799D-02  0.119849D-01
     39 -0.110132D-01 -0.158955D+00 -0.286417D-02 -0.257187D-02  0.147070D-01
     40  0.243840D-01  0.842563D-01 -0.481949D-01 -0.232542D-01 -0.582363D-01
     41 -0.150697D+00  0.227127D+00 -0.299042D-01 -0.323033D-01  0.102529D+00
     42  0.360768D+00  0.438395D+00 -0.626274D-01  0.719858D-01  0.171336D+00
     43  0.604857D-01  0.727922D-01 -0.108591D-01  0.349054D-02  0.739900D-02
     44  0.117992D+00  0.334339D+00 -0.680926D-03 -0.755021D-03  0.233464D-01
     45  0.323692D+00  0.179513D+00 -0.251304D-02  0.162320D-01  0.310833D-01
     46 -0.119395D-01 -0.977008D-02  0.799360D-03 -0.167856D-02 -0.691997D-02
     47  0.590739D-02  0.857251D-02 -0.172995D-02  0.737522D-03  0.610373D-02
     48  0.737035D-02 -0.370428D-02 -0.146722D-02  0.133605D-02  0.422940D-02
               16            17            18            19            20
     16  0.150217D+02
     17 -0.697959D+00  0.163148D+02
     18  0.173747D+01 -0.157848D+01  0.161207D+02
     19 -0.224751D+01 -0.722380D+00  0.148482D+01  0.184640D+01
     20 -0.587625D+00 -0.487006D+01 -0.304811D+00  0.737189D+00  0.459276D+01
     21  0.126802D+01 -0.324082D+00 -0.428831D+01 -0.145191D+01  0.147493D+00
     22 -0.444246D+01  0.600652D+00 -0.500881D+00  0.117584D+00  0.107667D+00
     23  0.515631D+00 -0.279373D+01 -0.144457D+01  0.127459D+00  0.731848D-02
     24 -0.431044D+00 -0.146385D+01 -0.346710D+01 -0.128150D+00  0.183476D+00
     25 -0.163005D-01  0.173284D+00  0.163846D-02  0.921291D-02 -0.179976D-02
     26  0.744389D-02  0.309637D+00  0.675191D-02  0.188938D-01 -0.135251D-01
     27 -0.106491D-01 -0.426468D-01 -0.452824D-01 -0.147797D-01 -0.285834D-01
     28  0.232895D-01  0.508547D-01 -0.439371D-02 -0.245540D-01 -0.314062D-02
     29  0.479680D-01 -0.103823D+00  0.120295D-01  0.159708D-01  0.297239D-01
     30 -0.339778D-03  0.905324D-02  0.278168D-01  0.449030D-02  0.123158D-01
     31 -0.487599D-01  0.736671D-01  0.134648D-01  0.579757D-02  0.766087D-02
     32  0.675580D-01  0.240611D+00  0.662442D-01  0.186616D-01  0.105938D-01
     33  0.117793D-01  0.865787D-01 -0.475506D-01  0.101603D-01  0.665338D-02
     34 -0.284766D+00  0.112614D+00 -0.578774D-01  0.257205D-01  0.467848D-01
     35  0.498098D-01  0.329234D+00 -0.319377D+00  0.115382D+00  0.218870D-01
     36 -0.900897D-02 -0.252795D+00 -0.165993D+00 -0.228552D-01 -0.193020D-01
     37 -0.476729D-01  0.311406D-01 -0.384810D-01 -0.750614D-02 -0.103649D-01
     38  0.266463D-01 -0.175220D-01 -0.674876D-01 -0.254743D-01 -0.749817D-02
     39 -0.417316D-01 -0.129258D+00  0.787634D-01 -0.944580D-03  0.576114D-02
     40 -0.274059D+01 -0.111878D+01 -0.376870D+01  0.425676D-01 -0.165522D+00
     41 -0.115591D+01 -0.660257D+01  0.154136D+01 -0.179077D+00  0.211248D+00
     42 -0.373613D+01  0.145672D+01 -0.409422D+01  0.259260D+00 -0.244085D-01
     43 -0.320040D+00 -0.475628D-01 -0.761928D-01 -0.329480D-01 -0.330197D-01
     44  0.165259D-01 -0.250401D+00  0.134080D+00 -0.538917D-01 -0.491315D-01
     45  0.470592D-01  0.206497D+00  0.106752D+00 -0.116521D+00  0.948507D-01
     46 -0.852732D-02 -0.441183D-01 -0.426309D-01  0.100602D-01 -0.412612D-02
     47 -0.219917D-01  0.244201D-01  0.463015D-01 -0.767635D-02  0.976193D-03
     48 -0.256425D-01  0.457917D-01  0.244157D-01 -0.522848D-02  0.992140D-03
               21            22            23            24            25
     21  0.425489D+01
     22 -0.104608D+00  0.451277D+01
     23  0.178925D+00 -0.894119D+00  0.238722D+01
     24 -0.903052D-02  0.536244D+00  0.168345D+01  0.317035D+01
     25  0.516067D-02 -0.361795D-01  0.294784D-01 -0.118851D-01  0.187306D+02
     26 -0.660757D-02  0.360851D-01  0.154390D+00 -0.427326D-01  0.414575D+00
     27 -0.240253D-01 -0.611725D-02 -0.320443D-01 -0.353928D-01  0.216884D+01
     28 -0.617484D-02 -0.208399D-02 -0.106484D-01  0.559213D-02 -0.141027D+01
     29  0.186835D-01 -0.708247D-05  0.567628D-02 -0.347354D-02 -0.613125D+00
     30 -0.955488D-02  0.107655D-03 -0.815012D-03 -0.119434D-02 -0.279752D+00
     31  0.630104D-02  0.919207D-03  0.222828D-02 -0.163743D-02 -0.410996D+01
     32  0.116055D-01 -0.446570D-03 -0.920801D-03 -0.544014D-02  0.886754D+00
     33  0.185689D-02  0.119563D-02  0.492456D-02 -0.207318D-02  0.707602D+00
     34  0.151439D-02 -0.103252D-01  0.142534D-01 -0.934236D-02 -0.714667D+01
     35  0.545228D-02  0.181748D-01  0.518390D-01 -0.433965D-01  0.314277D+00
     36 -0.441818D-01 -0.576141D-02 -0.246933D-01 -0.820610D-03 -0.317480D+01
     37  0.768322D-02 -0.488473D-02  0.724447D-02 -0.565898D-02  0.174072D+00
     38  0.548867D-02  0.691299D-02  0.759155D-02 -0.135882D-01  0.798837D-02
     39 -0.128154D-02 -0.936846D-02 -0.261141D-01  0.140253D-01  0.131737D-02
     40  0.305131D+00 -0.178433D+00  0.118623D+00  0.141259D+00 -0.206151D+00
     41 -0.562247D-01  0.119064D+00  0.316922D+00 -0.252620D+00 -0.122851D+00
     42  0.288910D-01  0.148613D+00 -0.270235D+00  0.174136D+00 -0.419788D-01
     43 -0.404061D-01 -0.682861D-01 -0.392522D-02 -0.300506D-01 -0.886151D-01
     44  0.459904D-01 -0.140585D-01 -0.639829D-01  0.673824D-01  0.185488D-01
     45  0.219218D-01 -0.370887D-01  0.101321D-02  0.140542D+00  0.123847D-01
     46  0.402759D-02  0.229701D-02  0.516621D-02 -0.119079D-01 -0.619935D-02
     47 -0.334299D-02 -0.294884D-02 -0.558008D-02  0.754075D-02 -0.105100D-02
     48 -0.430980D-02 -0.320859D-02 -0.289346D-02  0.754204D-02 -0.843743D-03
               26            27            28            29            30
     26  0.163077D+02
     27  0.146737D+01  0.130632D+02
     28 -0.409364D+00 -0.215390D+00  0.989723D+00
     29 -0.447783D+01  0.402746D-01  0.699534D+00  0.414966D+01
     30  0.372642D-01 -0.450152D+01  0.332975D+00 -0.958074D-01  0.461081D+01
     31  0.763069D+00  0.622887D+00 -0.143885D+00 -0.122215D+00 -0.114138D+00
     32 -0.292165D+01  0.133756D+01 -0.153191D+00  0.124433D+00 -0.464272D-01
     33  0.129632D+01 -0.342890D+01 -0.127605D+00 -0.414941D-01  0.126319D+00
     34  0.238459D+00 -0.316094D+01  0.446046D+00 -0.379919D-01  0.121370D+00
     35 -0.811229D+01 -0.919787D+00 -0.192663D-01  0.100106D+00  0.308865D-01
     36 -0.633710D+00  0.639900D-01  0.105771D+00  0.380554D-02 -0.267369D+00
     37  0.451882D-01  0.118839D-01 -0.248869D-02  0.839465D-02  0.182899D-01
     38  0.140941D+00  0.392852D-02 -0.125942D-01  0.958777D-02 -0.300841D-02
     39 -0.177678D+00  0.770321D-01  0.693374D-02 -0.956532D-02 -0.116422D-01
     40 -0.134193D+00 -0.510176D-01  0.107765D-01 -0.269988D-01 -0.889364D-02
     41  0.298822D+00  0.219818D+00 -0.601992D-01  0.293662D-01  0.146478D-01
     42  0.194433D+00 -0.146095D+00 -0.214816D-01  0.166452D-01 -0.154127D-01
     43  0.386125D-02  0.386387D-02 -0.782993D-02 -0.607218D-02 -0.224367D-02
     44  0.595603D-01  0.951089D-01 -0.206863D-01  0.114372D-01  0.119278D-01
     45  0.854459D-01 -0.356934D-01 -0.104197D-01  0.118712D-01 -0.293038D-02
     46 -0.796775D-02 -0.649851D-02  0.512760D-02 -0.277960D-02 -0.107879D-02
     47  0.934312D-02  0.100750D-01 -0.517699D-02  0.233448D-02  0.134404D-02
     48  0.842422D-02 -0.457254D-04 -0.266719D-02  0.165969D-02  0.432080D-04
               31            32            33            34            35
     31  0.416355D+01
     32 -0.801027D+00  0.241999D+01
     33 -0.872130D+00 -0.158081D+01  0.331623D+01
     34  0.834375D-01  0.114775D+00  0.266655D+00  0.149873D+02
     35  0.983168D-01  0.169353D+00  0.330713D-01 -0.478285D+00  0.879022D+01
     36  0.306641D+00  0.712041D-01 -0.173408D+00  0.236655D+01 -0.789235D+00
     37 -0.354428D-01  0.108862D-02  0.158933D-03 -0.730164D+01  0.213004D+00
     38  0.949919D-02  0.351376D-01  0.100421D+00  0.227069D+00 -0.291505D+01
     39  0.120041D-01  0.105817D+00  0.105068D+00  0.778646D-01  0.299600D+01
     40 -0.134245D-01 -0.451341D-02 -0.253653D-02 -0.353155D+00 -0.763559D-01
     41  0.105110D-01  0.358467D-01  0.301789D-01 -0.620385D-01  0.680332D+00
     42  0.358805D-02  0.197372D-01 -0.755281D-03  0.491897D-02 -0.977932D-01
     43 -0.450811D-02  0.761625D-02  0.422181D-02 -0.146975D+00  0.973710D-01
     44  0.672283D-02  0.161020D-01  0.155804D-01  0.716625D-01  0.307674D+00
     45  0.343326D-02  0.137763D-01  0.229144D-02  0.177352D-01  0.839901D-01
     46 -0.211956D-02 -0.439555D-02 -0.321709D-02 -0.811576D-02 -0.320237D-01
     47  0.148727D-02  0.417859D-02  0.343120D-02 -0.273436D-02  0.418915D-01
     48  0.791459D-03  0.253546D-02  0.136849D-02 -0.105423D-02  0.179814D-01
               36            37            38            39            40
     36  0.658012D+01
     37  0.639418D-01  0.744209D+01
     38  0.245464D+01 -0.196513D+00  0.266804D+01
     39 -0.553436D+01 -0.187055D+00 -0.258072D+01  0.562472D+01
     40 -0.284738D-02 -0.186666D+00 -0.579495D-01  0.249028D-01  0.667790D+01
     41 -0.884485D-02 -0.783205D-01  0.823105D-01 -0.149107D+00  0.257400D-01
     42 -0.362567D+00  0.163438D-01 -0.371235D-01 -0.179220D+00  0.151104D+01
     43  0.287616D-01 -0.408564D-01  0.110647D-01 -0.318903D-02 -0.181156D+01
     44  0.119147D+00  0.136796D-01  0.315778D-01  0.533561D-03  0.885894D+00
     45 -0.131826D+00  0.345506D-02  0.254761D-01 -0.372099D-01  0.111831D+01
     46 -0.875279D-02  0.913448D-04  0.386807D-02  0.289339D-02 -0.323528D-01
     47  0.148435D-01 -0.789288D-03 -0.577476D-02 -0.367391D-02 -0.209366D-01
     48 -0.560127D-02 -0.599221D-03 -0.219380D-02 -0.194662D-02 -0.125043D-01
               41            42            43            44            45
     41  0.678976D+01
     42 -0.398714D+01  0.497112D+01
     43  0.989039D+00  0.122860D+01  0.575495D+01
     44 -0.104287D+01  0.129117D+01  0.649173D+00  0.567816D+01
     45  0.130058D+01 -0.532132D+00 -0.412557D+00 -0.318886D+01  0.572325D+01
     46 -0.106238D+00 -0.102046D+00 -0.302466D+01 -0.178460D+01 -0.907482D+00
     47  0.327827D-01  0.934154D-01 -0.194533D+01 -0.476737D+01  0.787145D+00
     48  0.653012D-01 -0.229011D-02 -0.106140D+01  0.831628D+00 -0.557528D+01
               46            47            48
     46  0.308047D+01
     47  0.200759D+01  0.465194D+01
     48  0.111256D+01 -0.986293D+00  0.555296D+01
 ReadGW:  IGet=0 IStart=         114 Next=        7241 LGW=        7127.
 ICntrl=12127.
 Symmetry not used in FoFDir.
 MinBra= 0 MaxBra= 2 Meth= 1.
 IRaf=       0 NMat=   1 IRICut=       1 DoRegI=T DoRafI=F ISym2E= 0 JSym2E=0.
 PrsmSu:  NPrtUS=   8 ThrOK=T
 PRISM was handed    16287094 working-precision words and  2464 shell-pairs
 PRISM was handed    16287094 working-precision words and  2464 shell-pairs
 PRISM was handed    16287094 working-precision words and  2464 shell-pairs
 PRISM was handed    16287094 working-precision words and  2464 shell-pairs
 PRISM was handed    16287094 working-precision words and  2464 shell-pairs
 PRISM was handed    16287094 working-precision words and  2464 shell-pairs
 PRISM was handed    16287094 working-precision words and  2464 shell-pairs
 PRISM was handed    16287094 working-precision words and  2464 shell-pairs
 Pruned (  75, 302) grid will be used in CalDFT.
 CkSvGd:  ISavGI=        -1 IRadAn=       4 IRASav=       4 ISavGd=        -1.
 CalDSu:  NPrtUS=   8 ThrOK=T
 IPart= 0 IRanGd=          0 ScrnBf=T ScrnGd=T RCrit=4.00D+00 DoMicB=T.
 IPart= 5 IRanGd=          0 ScrnBf=T ScrnGd=T RCrit=4.00D+00 DoMicB=T.
 IPart= 1 IRanGd=          0 ScrnBf=T ScrnGd=T RCrit=4.00D+00 DoMicB=T.
 CutRad = 1000.00    CtRdIn =    0.00    XCrit =  15.00   ICut = 0
 IPart= 6 IRanGd=          0 ScrnBf=T ScrnGd=T RCrit=4.00D+00 DoMicB=T.
 IPart= 2 IRanGd=          0 ScrnBf=T ScrnGd=T RCrit=4.00D+00 DoMicB=T.
 CutRad = 1000.00    CtRdIn =    0.00    XCrit =  15.00   ICut = 0
 CutRad = 1000.00    CtRdIn =    0.00    XCrit =  15.00   ICut = 0
 CutRad = 1000.00    CtRdIn =    0.00    XCrit =  15.00   ICut = 0
 IPart= 4 IRanGd=          0 ScrnBf=T ScrnGd=T RCrit=4.00D+00 DoMicB=T.
 CutRad = 1000.00    CtRdIn =    0.00    XCrit =  15.00   ICut = 0
 IPart= 3 IRanGd=          0 ScrnBf=T ScrnGd=T RCrit=4.00D+00 DoMicB=T.
 IPart= 7 IRanGd=          0 ScrnBf=T ScrnGd=T RCrit=4.00D+00 DoMicB=T.
 CutRad = 1000.00    CtRdIn =    0.00    XCrit =  15.00   ICut = 0
 CutRad = 1000.00    CtRdIn =    0.00    XCrit =  15.00   ICut = 0
 CutRad = 1000.00    CtRdIn =    0.00    XCrit =  15.00   ICut = 0
 IPart= 0        14671 of        16812 points in      35 batches and      113 microbatches, Max-NSigAt=      16 Max-NSgAt2=      16
 IPart= 7        13910 of        15392 points in      30 batches and       76 microbatches, Max-NSigAt=      16 Max-NSgAt2=      16
 IPart= 4        14515 of        16714 points in      35 batches and       85 microbatches, Max-NSigAt=      16 Max-NSgAt2=      16
 IPart= 6        14496 of        16470 points in      34 batches and      111 microbatches, Max-NSigAt=      16 Max-NSgAt2=      16
 IPart= 5        14042 of        16894 points in      37 batches and       98 microbatches, Max-NSigAt=      16 Max-NSgAt2=      16
 IPart= 1        13966 of        15398 points in      30 batches and       93 microbatches, Max-NSigAt=      16 Max-NSgAt2=      16
 IPart= 3        12484 of        14446 points in      31 batches and      106 microbatches, Max-NSigAt=      16 Max-NSgAt2=      16
 IPart= 2        14335 of        15956 points in      32 batches and       95 microbatches, Max-NSigAt=      16 Max-NSgAt2=      16
 Polarizability after L703:
                1             2             3
      1  0.620133D+02
      2  0.772155D+01  0.709189D+02
      3  0.997058D+01  0.197008D+02  0.735745D+02
 Dipole Derivatives after L703:
               1            2            3            4            5
      1-0.150202D+00-0.217788D+00-0.302578D+00 0.109440D-01 0.465170D-01
      2-0.298147D+00-0.150813D+00-0.389051D+00 0.481272D-01-0.142367D-01
      3-0.350057D+00-0.392131D+00-0.327283D+00-0.978564D-02 0.589852D-01
               6            7            8            9           10
      1-0.426138D-01 0.261796D-01-0.486690D-01 0.309505D-01-0.989532D-01
      2 0.655181D-01-0.841368D-02 0.536562D-01 0.604193D-02-0.830719D-01
      3 0.314557D-01 0.154308D-01 0.403299D-01 0.539939D-01-0.134928D+00
              11           12           13           14           15
      1-0.708728D-02 0.204428D-01 0.434147D-01 0.294402D-01 0.787334D-01
      2 0.498918D-01 0.531854D-01 0.403808D-01 0.109901D-01-0.269095D-02
      3 0.144633D+00 0.174678D+00 0.895847D-01-0.149470D-02-0.130660D+00
              16           17           18           19           20
      1 0.561441D+00-0.196436D-02-0.159915D+00-0.100282D+00 0.485282D-01
      2 0.892083D-01 0.275394D+00-0.921773D-01 0.393997D-01 0.385767D-01
      3-0.484578D-01-0.811799D-01 0.367443D+00-0.218350D-01 0.372834D-01
              21           22           23           24           25
      1-0.873251D-01 0.140459D-02-0.594343D-01 0.603063D-01 0.445499D+00
      2 0.224684D-01-0.930704D-02-0.123797D+00 0.831550D-01-0.237086D-01
      3 0.579111D-02 0.213687D-01 0.100618D+00-0.517259D-01-0.120300D+00
              26           27           28           29           30
      1-0.852470D-02-0.175810D+00-0.221137D+00 0.420730D-02 0.173529D-01
      2 0.402983D+00-0.789583D-01 0.786623D-01-0.485296D-02 0.309373D-01
      3 0.180262D-01 0.635413D+00 0.707005D-01-0.153642D-02-0.752836D-02
              31           32           33           34           35
      1 0.794929D-02-0.347189D-01-0.261885D-01-0.484430D+00 0.671308D-01
      2-0.993392D-01-0.910372D-01-0.718497D-01 0.118198D+00-0.465469D+00
      3-0.588999D-01-0.703730D-01-0.440625D-01 0.119241D+00 0.547228D-01
              36           37           38           39           40
      1 0.157681D+00 0.239859D+00-0.685976D-01 0.100397D-01 0.946794D-01
      2 0.188930D+00-0.103290D+00 0.283083D+00-0.881374D-01 0.538914D+00
      3-0.808208D+00 0.993402D-02-0.774391D-01 0.287648D+00 0.837129D+00
              41           42           43           44           45
      1 0.639522D+00 0.865063D+00-0.477819D+00-0.463283D+00-0.461795D+00
      2 0.230024D+00 0.778391D+00-0.322329D+00-0.815638D+00-0.488164D+00
      3 0.706329D+00 0.510160D+00-0.346888D+00-0.553995D+00-0.101628D+01
              46           47           48
      1 0.101453D+00 0.747209D-01 0.156552D-01
      2-0.528463D-02 0.321245D+00-0.175980D-01
      3-0.722367D-01 0.172225D-01 0.319170D+00
 Hessian after L703:
                1             2             3             4             5
      1  0.503106D+00
      2 -0.420814D-01  0.440332D+00
      3 -0.930971D-01 -0.282385D+00  0.257086D+00
      4 -0.965394D-01  0.872287D-01 -0.539408D-01  0.949818D-01
      5  0.866145D-01 -0.206844D+00  0.132586D+00 -0.939566D-01  0.214505D+00
      6 -0.535988D-01  0.137258D+00 -0.119597D+00  0.588429D-01 -0.139517D+00
      7 -0.165360D+00 -0.106950D+00  0.988767D-01  0.103422D-01  0.919603D-02
      8 -0.108586D+00 -0.154914D+00  0.106068D+00 -0.126000D-01 -0.646179D-02
      9  0.978838D-01  0.101105D+00 -0.104334D+00  0.102443D-01  0.822941D-02
     10 -0.190332D+00  0.282255D-01  0.192602D-01 -0.392776D-02  0.285238D-03
     11  0.446400D-01 -0.784791D-01  0.163702D-01  0.197448D-01 -0.390568D-02
     12  0.361171D-01  0.219009D-01 -0.579763D-01 -0.153546D-01  0.348478D-02
     13 -0.100886D-01 -0.222454D-02  0.286923D-01  0.123722D-02 -0.344595D-03
     14  0.310743D-02  0.143690D-02 -0.328070D-02  0.453731D-04  0.742923D-03
     15  0.392410D-02 -0.684607D-03  0.437803D-03  0.691785D-03  0.200839D-03
     16 -0.420590D-01 -0.220745D-01 -0.809041D-02  0.639119D-03  0.119009D-02
     17 -0.118583D-01  0.848658D-02  0.235575D-02  0.944597D-03 -0.416967D-03
     18 -0.840729D-02 -0.108903D-02  0.475559D-02  0.310908D-04 -0.896490D-03
     19 -0.246975D-02 -0.585983D-03 -0.293362D-03 -0.200187D-03 -0.123011D-03
     20 -0.237134D-02 -0.378674D-02 -0.223446D-02 -0.281509D-03  0.148413D-03
     21 -0.192669D-03 -0.244585D-02 -0.336027D-03  0.196771D-03  0.396484D-03
     22  0.129442D-03 -0.407552D-03 -0.551896D-03 -0.342796D-03  0.659183D-04
     23  0.746022D-03  0.559786D-04 -0.804594D-03 -0.649733D-03 -0.130987D-03
     24  0.133528D-02  0.124289D-03 -0.357271D-03 -0.254983D-04  0.168066D-03
     25 -0.119874D-01  0.362400D-01 -0.160432D-01 -0.591073D-02  0.126120D-02
     26  0.114135D-01 -0.973547D-02  0.269340D-02 -0.127846D-02  0.574321D-03
     27 -0.726237D-02 -0.230111D-02  0.275711D-02  0.250093D-02  0.345582D-03
     28  0.138030D-02  0.913104D-03 -0.928628D-03 -0.242841D-03  0.127708D-03
     29 -0.351008D-04 -0.550100D-02  0.345233D-02  0.155154D-02 -0.386239D-03
     30  0.247759D-03  0.316768D-02 -0.736880D-03 -0.755381D-03  0.286570D-03
     31  0.996803D-03 -0.412174D-03  0.209491D-03  0.739683D-04 -0.314087D-04
     32 -0.509514D-03  0.173934D-02  0.331703D-03  0.232503D-04  0.426495D-04
     33  0.488238D-03 -0.566967D-03  0.587889D-04  0.841143D-04 -0.522004D-04
     34 -0.202078D-02  0.833888D-03 -0.458646D-03  0.166018D-02  0.735966D-03
     35  0.703585D-03  0.173548D-02 -0.250774D-03 -0.843945D-03 -0.608169D-04
     36  0.321388D-02 -0.410645D-03  0.178982D-03 -0.311361D-03 -0.298136D-03
     37 -0.217568D-03  0.184660D-03 -0.142258D-02 -0.253324D-03 -0.207963D-03
     38 -0.754956D-03 -0.778886D-03 -0.223551D-03  0.717700D-04 -0.232280D-03
     39 -0.149430D-02  0.378912D-03 -0.124551D-02  0.321153D-05 -0.147285D-03
     40  0.386663D-01  0.462647D-01  0.609100D-01 -0.196581D-02 -0.476786D-02
     41  0.450985D-01  0.381372D-01  0.697609D-01 -0.139953D-03  0.218130D-02
     42  0.518478D-01  0.657569D-01  0.706826D-01 -0.260045D-02 -0.500488D-02
     43 -0.219789D-01 -0.236789D-01 -0.312000D-01  0.447940D-03 -0.489999D-04
     44 -0.262231D-01 -0.315836D-01 -0.432072D-01  0.168177D-03  0.191189D-03
     45 -0.310586D-01 -0.384965D-01 -0.502560D-01  0.460458D-03  0.696185D-04
     46 -0.122627D-02 -0.147580D-02 -0.192193D-02  0.000000D+00  0.377993D-05
     47  0.963612D-04 -0.300758D-03 -0.123119D-02 -0.279620D-04  0.533846D-04
     48  0.532556D-04 -0.131166D-02 -0.111742D-02 -0.674023D-04  0.148524D-03
                6             7             8             9            10
      6  0.118578D+00
      7 -0.622701D-02  0.170941D+00
      8  0.864745D-02  0.114280D+00  0.154026D+00
      9 -0.152828D-02 -0.104054D+00 -0.109045D+00  0.105813D+00
     10  0.443444D-02 -0.104701D-01  0.695358D-02  0.179450D-02  0.435341D+00
     11 -0.666775D-02 -0.146137D-01  0.107383D-01  0.406079D-02 -0.334749D-01
     12  0.608479D-02  0.111562D-01 -0.382660D-02  0.310223D-02 -0.573115D-01
     13 -0.118532D-02 -0.276010D-02  0.149854D-02  0.536895D-03 -0.599138D-01
     14  0.221129D-03 -0.143190D-03 -0.676459D-03 -0.171658D-03  0.305807D-02
     15  0.968035D-03 -0.567008D-03 -0.110962D-02 -0.871364D-03  0.564017D-01
     16  0.535131D-03 -0.365925D-02  0.792707D-03  0.304795D-03 -0.798122D-01
     17 -0.288634D-03  0.166466D-02 -0.817739D-03 -0.107322D-02 -0.316559D-01
     18 -0.513318D-03  0.103318D-02 -0.581287D-03 -0.169593D-02 -0.334095D-01
     19 -0.150006D-03 -0.295481D-03 -0.145579D-05 -0.581143D-03 -0.587311D-02
     20  0.271462D-03 -0.748285D-03  0.344726D-03 -0.653197D-05 -0.197915D-01
     21  0.255760D-03 -0.481514D-03  0.698119D-04 -0.205142D-04 -0.110460D-01
     22 -0.180223D-03  0.634805D-04  0.286761D-03 -0.632263D-04 -0.121816D-02
     23 -0.144166D-03 -0.124337D-03  0.213844D-03  0.178502D-03 -0.117105D-02
     24 -0.237304D-04 -0.589473D-04  0.190649D-03  0.285673D-03 -0.269260D-02
     25  0.226259D-02 -0.136157D-03  0.337964D-03 -0.468818D-03 -0.842728D-01
     26 -0.317153D-03 -0.136297D-02  0.670139D-03  0.135653D-02  0.215732D-01
     27 -0.812888D-04  0.298382D-02 -0.211673D-03  0.278963D-03 -0.676929D-02
     28  0.194602D-03  0.454631D-03 -0.340670D-03  0.203410D-03 -0.742633D-02
     29 -0.596450D-03 -0.669754D-04  0.134261D-03 -0.263610D-03  0.301383D-01
     30  0.240941D-03 -0.149506D-03 -0.106546D-04 -0.337499D-03 -0.132495D-01
     31  0.314819D-04 -0.547952D-04 -0.258702D-03  0.534037D-04  0.311316D-02
     32  0.483308D-04  0.565335D-03 -0.142372D-03 -0.276596D-03 -0.128902D-01
     33 -0.317085D-04 -0.162230D-03 -0.171311D-03 -0.194819D-03  0.630089D-02
     34 -0.884303D-03  0.259682D-02  0.248789D-03 -0.168300D-03  0.235260D-02
     35  0.481906D-03 -0.291537D-03 -0.943882D-03  0.493536D-03 -0.127504D-01
     36  0.184766D-03 -0.845705D-03  0.797132D-04 -0.424549D-03  0.848573D-02
     37  0.239630D-03 -0.991060D-03 -0.557442D-04 -0.881515D-03  0.178825D-02
     38 -0.107981D-03 -0.160971D-03  0.304929D-03 -0.245998D-03 -0.524842D-03
     39  0.188752D-03 -0.734163D-03  0.264026D-03 -0.521325D-03 -0.722112D-03
     40 -0.464721D-02 -0.148496D-02 -0.332386D-02 -0.449173D-02  0.953747D-02
     41  0.480185D-03 -0.208228D-02 -0.358192D-02 -0.466029D-02  0.336390D-01
     42 -0.524282D-02 -0.157008D-02 -0.152588D-02  0.221941D-03  0.430572D-01
     43  0.386972D-03  0.794842D-03  0.822133D-03 -0.212982D-03 -0.959903D-02
     44  0.188701D-03  0.875880D-03  0.109937D-02  0.135758D-03 -0.117875D-01
     45  0.510343D-03  0.833689D-03  0.110632D-02  0.929020D-04 -0.146775D-01
     46 -0.548325D-04  0.187055D-04 -0.535835D-04 -0.989499D-04  0.712020D-03
     47  0.419444D-04 -0.376641D-04  0.624074D-05  0.183300D-03  0.173429D-03
     48  0.748693D-05 -0.330214D-04  0.564891D-04  0.133629D-03  0.143372D-03
               11            12            13            14            15
     11  0.463237D+00
     12  0.527529D-02  0.575400D+00
     13  0.291576D-02  0.604948D-01  0.646848D-01
     14 -0.473075D-01 -0.996586D-03 -0.159734D-02  0.522925D-01
     15 -0.191151D-03 -0.279890D+00 -0.663814D-01  0.247340D-02  0.304522D+00
     16 -0.383362D-01 -0.298053D-01  0.427399D-02  0.586846D-02  0.375566D-02
     17 -0.132290D+00 -0.278790D-01  0.155747D-02  0.246692D-03  0.220712D-02
     18 -0.297208D-01 -0.971761D-01 -0.142427D-01 -0.211682D-01 -0.131462D-01
     19  0.112301D-02 -0.446432D-02 -0.723950D-03 -0.585786D-03 -0.306388D-03
     20  0.592133D-02 -0.110753D-01 -0.156678D-03 -0.682071D-03 -0.892955D-03
     21  0.467564D-02 -0.478258D-02 -0.109325D-03 -0.619451D-03 -0.534138D-03
     22 -0.928308D-02  0.595364D-02  0.112881D-02  0.469857D-03  0.122735D-03
     23 -0.181636D-01  0.119610D-01  0.531885D-03  0.890194D-03 -0.142987D-03
     24 -0.159291D-01  0.104097D-01  0.667527D-03  0.517835D-03  0.139701D-02
     25  0.211895D-01 -0.495719D-02  0.149869D-02 -0.942690D-02  0.408721D-02
     26 -0.156931D+00  0.192747D-01 -0.162195D-02  0.406692D-02 -0.272233D-02
     27  0.276971D-01 -0.901156D-01 -0.656910D-02  0.269294D-01 -0.123546D-01
     28  0.595464D-03 -0.183916D-02 -0.200108D-03  0.902235D-03 -0.774919D-03
     29 -0.801794D-02  0.154919D-02 -0.479255D-03  0.701697D-03  0.197030D-03
     30  0.134169D-02  0.246835D-02  0.294863D-03 -0.884325D-03  0.185763D-03
     31  0.730190D-02  0.426134D-02  0.223900D-03 -0.874915D-03  0.411992D-03
     32 -0.218044D-01 -0.145414D-01 -0.269628D-03  0.692260D-03  0.393274D-03
     33  0.105613D-01  0.827653D-02  0.292067D-03 -0.590300D-03  0.812876D-03
     34 -0.295364D-04 -0.493726D-03  0.106703D-02  0.955354D-03 -0.852234D-03
     35  0.100323D-02  0.336414D-01  0.144053D-02 -0.617780D-02  0.311933D-02
     36  0.831714D-02 -0.340007D-01 -0.913366D-03  0.541548D-02 -0.768770D-03
     37 -0.148854D-02  0.256016D-03 -0.339169D-03  0.101650D-03  0.802864D-04
     38  0.193107D-02  0.392040D-02  0.282595D-03 -0.870043D-03  0.707699D-04
     39 -0.401438D-03  0.971468D-03  0.202549D-03 -0.909649D-03  0.920189D-03
     40 -0.419356D-02 -0.123712D-01 -0.188735D-02 -0.382332D-02 -0.188430D-02
     41 -0.196617D-01 -0.464453D-01 -0.221453D-02 -0.695728D-02 -0.395083D-02
     42 -0.283915D-01 -0.477620D-01 -0.294744D-02 -0.887242D-02 -0.316159D-02
     43  0.385863D-02  0.925392D-02  0.190712D-02  0.228170D-02  0.139294D-02
     44  0.362836D-02  0.435175D-02  0.981750D-03  0.163196D-02  0.104291D-02
     45  0.321354D-02  0.631056D-02  0.148277D-02  0.205598D-02  0.157193D-02
     46  0.505358D-04 -0.896053D-03 -0.108545D-03 -0.338674D-03 -0.102249D-03
     47  0.101720D-03 -0.595035D-03 -0.299998D-03 -0.309178D-04 -0.101983D-04
     48 -0.210974D-03 -0.132083D-02 -0.315057D-03 -0.119944D-03 -0.893779D-04
               16            17            18            19            20
     16  0.539953D+00
     17  0.183284D-01  0.517446D+00
     18  0.763808D-01 -0.942046D-01  0.480587D+00
     19 -0.214990D+00  0.497998D-01 -0.108324D+00  0.244880D+00
     20  0.479433D-01 -0.664080D-01  0.361429D-01 -0.539273D-01  0.666013D-01
     21 -0.117096D+00  0.375371D-01 -0.124779D+00  0.115734D+00 -0.364472D-01
     22 -0.547673D-01 -0.252556D-01  0.118404D-01  0.590082D-02  0.207453D-01
     23 -0.281810D-01 -0.220848D+00  0.119638D+00 -0.154627D-02 -0.506324D-02
     24  0.109926D-01  0.116660D+00 -0.126477D+00  0.704859D-03  0.153990D-01
     25  0.393697D-02 -0.171060D-01  0.786749D-02  0.263762D-03 -0.118297D-02
     26  0.203323D-02 -0.337085D-01  0.664240D-02  0.134358D-02  0.177056D-02
     27  0.425274D-02 -0.135869D-01  0.129013D-01 -0.833522D-03 -0.278204D-03
     28 -0.901109D-04 -0.946865D-03  0.564094D-03  0.510550D-03  0.759202D-03
     29  0.242517D-02  0.228387D-02  0.450249D-03 -0.806624D-03 -0.136985D-03
     30  0.675107D-03 -0.731739D-03  0.131299D-03  0.157264D-03  0.762907D-04
     31 -0.480352D-03  0.116669D-02 -0.564375D-03  0.415408D-03  0.216203D-03
     32  0.106303D-02 -0.390779D-02  0.451788D-02  0.212852D-03  0.378490D-03
     33 -0.125814D-02  0.279231D-02 -0.106983D-02  0.315238D-04 -0.690108D-04
     34 -0.215705D-02  0.128674D-02  0.286088D-03  0.872135D-03  0.393346D-03
     35  0.147276D-02  0.173838D-02 -0.276604D-02 -0.101285D-03 -0.508758D-04
     36 -0.312343D-03 -0.267382D-02 -0.209251D-02  0.873871D-03 -0.209584D-04
     37  0.269424D-02 -0.124297D-02  0.805399D-03 -0.143357D-02 -0.419180D-03
     38 -0.318321D-02  0.403676D-03  0.462961D-02  0.783681D-04 -0.475058D-04
     39  0.153057D-02  0.274176D-02 -0.158518D-02  0.251924D-03  0.356364D-03
     40 -0.165859D+00  0.272693D-02  0.580599D-01 -0.277684D-01  0.861481D-02
     41  0.104433D-01 -0.664164D-01 -0.135992D-01  0.747681D-02  0.186694D-02
     42  0.601802D-01 -0.126786D-01 -0.116694D+00 -0.806819D-03 -0.768395D-03
     43  0.158328D-01  0.122254D-01  0.948696D-02  0.472131D-03  0.514166D-03
     44  0.114916D-02 -0.370583D-02 -0.598770D-02 -0.173731D-02 -0.935688D-03
     45 -0.461531D-03 -0.786492D-02 -0.104085D-01 -0.148097D-02 -0.443303D-03
[...]
    Z7        0.68846   0.00001   0.00000   0.00030  -0.00017   0.68829
    X8       -3.68232   0.00000   0.00000   0.00045   0.00050  -3.68182
    Y8       -1.02172   0.00000   0.00000  -0.00023  -0.00024  -1.02196
    Z8        2.90755   0.00001   0.00000  -0.00012  -0.00086   2.90670
    X9       -2.67569   0.00000   0.00000  -0.00015  -0.00018  -2.67587
    Y9        5.40574   0.00000   0.00000  -0.00008   0.00006   5.40580
    Z9        1.96278   0.00000   0.00000   0.00013   0.00035   1.96313
   X10       -4.73447   0.00000   0.00000  -0.00018  -0.00021  -4.73468
   Y10        5.69356   0.00000   0.00000  -0.00025  -0.00014   5.69341
   Z10        1.99665   0.00000   0.00000   0.00010   0.00030   1.99696
   X11       -1.81811   0.00001   0.00000  -0.00029  -0.00037  -1.81848
   Y11        6.91317   0.00000   0.00000  -0.00007  -0.00007   6.91310
   Z11        3.08879  -0.00001   0.00000   0.00022   0.00068   3.08947
   X12       -1.70277   0.00000   0.00000  -0.00007  -0.00003  -1.70280
   Y12        5.67139   0.00001   0.00000   0.00015   0.00067   5.67206
   Z12       -0.52215   0.00000   0.00000   0.00021   0.00049  -0.52166
   X13       -1.84934   0.00000   0.00000   0.00029   0.00038  -1.84896
   Y13        4.05949  -0.00001   0.00000   0.00014   0.00077   4.06027
   Z13       -1.36848  -0.00001   0.00000   0.00011   0.00016  -1.36832
   X14       -1.28055  -0.00001   0.00000  -0.00001   0.00010  -1.28045
   Y14        0.14225   0.00000   0.00000   0.00043   0.00088   0.14313
   Z14       -0.01279   0.00000   0.00000  -0.00038  -0.00088  -0.01367
   X15       -2.77353  -0.00001   0.00000   0.00040   0.00060  -2.77293
   Y15       -1.68463   0.00000   0.00000   0.00165   0.00239  -1.68224
   Z15       -2.21060   0.00001   0.00000  -0.00165  -0.00246  -2.21306
   X16       -1.26353   0.00000   0.00000  -0.00138  -0.00115  -1.26468
   Y16       -2.58410  -0.00001   0.00000  -0.00527  -0.00443  -2.58853
   Z16       -2.71096   0.00000   0.00000   0.00536   0.00446  -2.70649
         Item               Value     Threshold  Converged?
 Maximum Force            0.000013     0.000450     YES
 RMS     Force            0.000005     0.000300     YES
 Maximum Displacement     0.004464     0.001800     NO 
 RMS     Displacement     0.001116     0.001200     YES
 Predicted change in Energy=-1.663063D-08
 GradGradGradGradGradGradGradGradGradGradGradGradGradGradGradGradGradGrad


 Test job not archived.
 1\1\GINC-NODE49\Freq\UB3LYP\CBSB7\C4H9O3(2)\SHAMEL\18-Jun-2013\0\\# fr
 eq nosymm b3lyp/cbsb7 iop(7/33=1)\\Title Card Required\\0,2\C,0.330178
 ,1.082146,1.438974\H,0.755109,0.27306,2.019904\H,1.009129,1.734193,0.9
 06878\C,-1.101048,1.496321,1.668508\H,-1.379816,1.513596,2.729416\C,-1
 .7611,0.337905,0.913205\H,-2.671942,0.591425,0.364315\H,-1.948602,-0.5
 40673,1.53861\C,-1.415913,2.860594,1.038658\H,-2.505371,3.012901,1.056
 583\H,-0.9621,3.658294,1.634516\O,-0.901069,3.001168,-0.276308\H,-0.97
 863,2.148192,-0.72417\O,-0.677636,0.075278,-0.006769\O,-1.46769,-0.891
 467,-1.169799\H,-0.668632,-1.367445,-1.434577\\Version=AM64L-G03RevD.0
 1\HF=-383.4240114\S2=0.794992\S2-1=0.\S2A=0.750256\RMSD=6.459e-09\RMSF
 =4.602e-06\ZeroPoint=0.1291209\Thermal=0.1376306\Dipole=0.2452563,-0.3
 458429,1.0414813\DipoleDeriv=-0.1502017,-0.2981474,-0.3500572,-0.21778
 77,-0.1508127,-0.3921313,-0.3025778,-0.3890513,-0.3272834,0.010944,0.0
 481272,-0.0097856,0.046517,-0.0142367,0.0589852,-0.0426138,0.0655181,0
 .0314557,0.0261796,-0.0084137,0.0154308,-0.048669,0.0536562,0.0403299,
 0.0309505,0.0060419,0.0539939,-0.0989532,-0.0830719,-0.1349285,-0.0070
 873,0.0498918,0.1446327,0.0204428,0.0531854,0.1746779,0.0434147,0.0403
 808,0.0895847,0.0294402,0.0109901,-0.0014947,0.0787334,-0.0026909,-0.1
 306601,0.5614406,0.0892083,-0.0484578,-0.0019644,0.2753937,-0.0811799,
 -0.1599149,-0.0921773,0.3674426,-0.1002821,0.0393997,-0.021835,0.04852
 82,0.0385767,0.0372834,-0.0873251,0.0224684,0.0057911,0.0014046,-0.009
 307,0.0213687,-0.0594343,-0.1237972,0.1006179,0.0603063,0.083155,-0.05
 17259,0.4454991,-0.0237086,-0.1203004,-0.0085247,0.4029833,0.0180262,-
 0.1758099,-0.0789583,0.6354125,-0.2211369,0.0786623,0.0707005,0.004207
 3,-0.004853,-0.0015364,0.0173529,0.0309373,-0.0075284,0.0079493,-0.099
 3392,-0.0588999,-0.0347189,-0.0910372,-0.070373,-0.0261885,-0.0718497,
 -0.0440625,-0.4844305,0.1181984,0.1192412,0.0671308,-0.4654688,0.05472
 28,0.1576811,0.18893,-0.8082079,0.2398592,-0.1032903,0.009934,-0.06859
 76,0.2830829,-0.0774391,0.0100397,-0.0881374,0.2876483,0.0946794,0.538
 9145,0.8371287,0.6395224,0.2300243,0.7063289,0.8650631,0.7783909,0.510
 1604,-0.4778193,-0.3223286,-0.3468876,-0.463283,-0.8156382,-0.5539951,
 -0.461795,-0.4881641,-1.0162844,0.1014533,-0.0052846,-0.0722367,0.0747
 209,0.3212449,0.0172225,0.0156552,-0.017598,0.31917\Polar=62.013252,7.
 7215519,70.9188633,9.970581,19.7007716,73.5744867\PG=C01 [X(C4H9O3)]\N
 Imag=1\\0.50310633,-0.04208144,0.44033237,-0.09309713,-0.28238534,0.25
 708616,-0.09653936,0.08722869,-0.05394082,0.09498183,0.08661453,-0.206
 84437,0.13258577,-0.09395661,0.21450496,-0.05359880,0.13725767,-0.1195
 9739,0.05884286,-0.13951665,0.11857765,-0.16535999,-0.10694969,0.09887
 668,0.01034217,0.00919603,-0.00622701,0.17094122,-0.10858614,-0.154913
 86,0.10606780,-0.01260001,-0.00646179,0.00864745,0.11427969,0.15402619
 ,0.09788379,0.10110530,-0.10433416,0.01024426,0.00822941,-0.00152828,-
 0.10405439,-0.10904523,0.10581310,-0.19033165,0.02822550,0.01926019,-0
 .00392776,0.00028524,0.00443444,-0.01047006,0.00695358,0.00179450,0.43
 534139,0.04463995,-0.07847912,0.01637017,0.01974479,-0.00390568,-0.006
 66775,-0.01461369,0.01073833,0.00406079,-0.03347494,0.46323708,0.03611
 712,0.02190089,-0.05797631,-0.01535457,0.00348478,0.00608479,0.0111562
 0,-0.00382660,0.00310223,-0.05731149,0.00527529,0.57540034,-0.01008858
 ,-0.00222454,0.02869227,0.00123722,-0.00034460,-0.00118532,-0.00276010
 ,0.00149854,0.00053689,-0.05991375,0.00291576,0.06049476,0.06468480,0.
 00310743,0.00143690,-0.00328070,0.00004537,0.00074292,0.00022113,-0.00
 014319,-0.00067646,-0.00017166,0.00305807,-0.04730747,-0.00099659,-0.0
 0159734,0.05229249,0.00392410,-0.00068461,0.00043780,0.00069179,0.0002
 0084,0.00096804,-0.00056701,-0.00110962,-0.00087136,0.05640173,-0.0001
 9115,-0.27988988,-0.06638135,0.00247340,0.30452233,-0.04205897,-0.0220
 7447,-0.00809041,0.00063912,0.00119009,0.00053513,-0.00365925,0.000792
 71,0.00030479,-0.07981224,-0.03833621,-0.02980526,0.00427399,0.0058684
 6,0.00375566,0.53995295,-0.01185831,0.00848658,0.00235575,0.00094460,-
 0.00041697,-0.00028863,0.00166466,-0.00081774,-0.00107322,-0.03165594,
 -0.13229040,-0.02787904,0.00155747,0.00024669,0.00220712,0.01832839,0.
 51744573,-0.00840729,-0.00108903,0.00475559,0.00003109,-0.00089649,-0.
 00051332,0.00103318,-0.00058129,-0.00169593,-0.03340950,-0.02972078,-0
 .09717605,-0.01424273,-0.02116816,-0.01314619,0.07638080,-0.09420463,0
 .48058668,-0.00246975,-0.00058598,-0.00029336,-0.00020019,-0.00012301,
 -0.00015001,-0.00029548,-0.00000146,-0.00058114,-0.00587311,0.00112301
 ,-0.00446432,-0.00072395,-0.00058579,-0.00030639,-0.21499015,0.0497998
 1,-0.10832407,0.24487994,-0.00237134,-0.00378674,-0.00223446,-0.000281
 51,0.00014841,0.00027146,-0.00074829,0.00034473,-0.00000653,-0.0197915
 3,0.00592133,-0.01107530,-0.00015668,-0.00068207,-0.00089295,0.0479432
 8,-0.06640798,0.03614292,-0.05392731,0.06660131,-0.00019267,-0.0024458
 5,-0.00033603,0.00019677,0.00039648,0.00025576,-0.00048151,0.00006981,
 -0.00002051,-0.01104602,0.00467564,-0.00478258,-0.00010933,-0.00061945
 ,-0.00053414,-0.11709624,0.03753707,-0.12477894,0.11573362,-0.03644720
 ,0.12715347,0.00012944,-0.00040755,-0.00055190,-0.00034280,0.00006592,
 -0.00018022,0.00006348,0.00028676,-0.00006323,-0.00121816,-0.00928308,
 0.00595364,0.00112881,0.00046986,0.00012274,-0.05476729,-0.02525563,0.
 01184040,0.00590082,0.02074529,-0.01509364,0.06289704,0.00074602,0.000
 05598,-0.00080459,-0.00064973,-0.00013099,-0.00014417,-0.00012434,0.00
 021384,0.00017850,-0.00117105,-0.01816357,0.01196101,0.00053189,0.0008
 9019,-0.00014299,-0.02818101,-0.22084802,0.11963765,-0.00154627,-0.005
 06324,0.00434887,0.03250265,0.23147075,0.00133528,0.00012429,-0.000357
 27,-0.00002550,0.00016807,-0.00002373,-0.00005895,0.00019065,0.0002856
 7,-0.00269260,-0.01592907,0.01040966,0.00066753,0.00051783,0.00139701,
 0.01099262,0.11666026,-0.12647742,0.00070486,0.01539905,-0.00718925,-0
 .02667532,-0.12666222,0.14102475,-0.01198736,0.03623996,-0.01604320,-0
 .00591073,0.00126120,0.00226259,-0.00013616,0.00033796,-0.00046882,-0.
 08427278,0.02118952,-0.00495719,0.00149869,-0.00942690,0.00408721,0.00
 393697,-0.01710603,0.00786749,0.00026376,-0.00118297,-0.00034261,-0.00
 121418,-0.00298573,-0.00244727,0.57367035,0.01141352,-0.00973547,0.002
 69340,-0.00127846,0.00057432,-0.00031715,-0.00136297,0.00067014,0.0013
 5653,0.02157323,-0.15693081,0.01927465,-0.00162195,0.00406692,-0.00272
 233,0.00203323,-0.03370850,0.00664240,0.00134358,0.00177056,0.00203788
 ,-0.00023514,-0.00195609,-0.00177414,0.02702770,0.52936534,-0.00726237
 ,-0.00230111,0.00275711,0.00250093,0.00034558,-0.00008129,0.00298382,-
 0.00021167,0.00027896,-0.00676929,0.02769707,-0.09011563,-0.00656910,0
 .02692936,-0.01235462,0.00425274,-0.01358686,0.01290128,-0.00083352,-0
 .00027820,0.00049092,-0.00161725,-0.00348696,-0.00192024,0.02599466,0.
 07636990,0.47798648,0.00138030,0.00091310,-0.00092863,-0.00024284,0.00
 012771,0.00019460,0.00045463,-0.00034067,0.00020341,-0.00742633,0.0005
 9546,-0.00183916,-0.00020011,0.00090224,-0.00077492,-0.00009011,-0.000
 94687,0.00056409,0.00051055,0.00075920,0.00074197,0.00031121,-0.000045
 50,0.00006756,-0.28162455,0.03270034,-0.01294746,0.30928101,-0.0000351
 0,-0.00550100,0.00345233,0.00155154,-0.00038624,-0.00059645,-0.0000669
 8,0.00013426,-0.00026361,0.03013834,-0.00801794,0.00154919,-0.00047926
 ,0.00070170,0.00019703,0.00242517,0.00228387,0.00045025,-0.00080662,-0
 .00013698,-0.00059310,-0.00019953,0.00022426,-0.00003801,0.02909913,-0
 .05670757,-0.00220084,-0.03525871,0.05856979,0.00024776,0.00316768,-0.
 00073688,-0.00075538,0.00028657,0.00024094,-0.00014951,-0.00001065,-0.
 00033750,-0.01324954,0.00134169,0.00246835,0.00029486,-0.00088433,0.00
 018576,0.00067511,-0.00073174,0.00013130,0.00015726,0.00007629,0.00006
 506,-0.00000816,-0.00002365,-0.00005696,-0.01390876,-0.00128634,-0.048
 66758,0.00092386,-0.00268348,0.06045985,0.00099680,-0.00041217,0.00020
 949,0.00007397,-0.00003141,0.00003148,-0.00005480,-0.00025870,0.000053
 40,0.00311316,0.00730190,0.00426134,0.00022390,-0.00087491,0.00041199,
 -0.00048035,0.00116669,-0.00056437,0.00041541,0.00021620,0.00034827,0.
 00040350,0.00010934,0.00032339,-0.10295254,-0.08409207,-0.06262520,-0.
 01403354,-0.02366533,-0.01602488,0.10344154,-0.00050951,0.00173934,0.0
 0033170,0.00002325,0.00004265,0.00004833,0.00056534,-0.00014237,-0.000
 27660,-0.01289016,-0.02180440,-0.01454141,-0.00026963,0.00069226,0.000
 39327,0.00106303,-0.00390779,0.00451788,0.00021285,0.00037849,0.000096
 37,-0.00031664,-0.00126458,-0.00094482,-0.07956588,-0.18759210,-0.0985
 2024,0.00166379,0.00444380,0.00260613,0.08748909,0.20031229,0.00048824
 ,-0.00056697,0.00005879,0.00008411,-0.00005220,-0.00003171,-0.00016223
 ,-0.00017131,-0.00019482,0.00630089,0.01056133,0.00827653,0.00029207,-
 0.00059030,0.00081288,-0.00125814,0.00279231,-0.00106983,0.00003152,-0
 .00006901,-0.00008860,0.00016525,0.00060519,0.00031579,-0.05737332,-0.
 09271906,-0.11211222,-0.00273688,-0.00186299,0.00138151,0.05830495,0.1
 0647839,0.14092138,-0.00202078,0.00083389,-0.00045865,0.00166018,0.000
 73597,-0.00088430,0.00259682,0.00024879,-0.00016830,0.00235260,-0.0000
 2954,-0.00049373,0.00106703,0.00095535,-0.00085223,-0.00215705,0.00128
 674,0.00028609,0.00087214,0.00039335,0.00006581,0.00043060,-0.00007647
 ,-0.00012048,-0.08785757,-0.02094532,0.05349272,-0.00831250,-0.0031964
 7,0.04019503,0.00826539,0.00318987,-0.00367472,0.09697236,0.00070359,0
 .00173548,-0.00025077,-0.00084395,-0.00006082,0.00048191,-0.00029154,-
 0.00094388,0.00049354,-0.01275042,0.00100323,0.03364137,0.00144053,-0.
 00617780,0.00311933,0.00147276,0.00173838,-0.00276604,-0.00010128,-0.0
 0005088,-0.00041621,-0.00007715,0.00043161,0.00027444,-0.00375667,-0.0
 9482638,-0.01808400,0.00029935,0.00461320,-0.00240111,0.01257674,0.005
 66241,-0.02714789,0.05617463,0.49967288,0.00321388,-0.00041064,0.00017
 898,-0.00031136,-0.00029814,0.00018477,-0.00084571,0.00007971,-0.00042
 455,0.00848573,0.00831714,-0.03400068,-0.00091337,0.00541548,-0.000768
 77,-0.00031234,-0.00267382,-0.00209251,0.00087387,-0.00002096,0.000532
 01,0.00059704,0.00012910,0.00079001,0.05809894,0.02575911,-0.19727702,
 0.01765893,0.00252443,-0.01584229,0.01208740,-0.00043344,-0.03292886,-
 0.08690339,0.16754037,0.40515690,-0.00021757,0.00018466,-0.00142258,-0
 .00025332,-0.00020796,0.00023963,-0.00099106,-0.00005574,-0.00088151,0
 .00178825,-0.00148854,0.00025602,-0.00033917,0.00010165,0.00008029,0.0
 0269424,-0.00124297,0.00080540,-0.00143357,-0.00041918,-0.00000909,-0.
 00085880,0.00034836,0.00006819,-0.00176989,0.01435796,0.00875827,-0.00
 073508,0.00054622,0.00183131,-0.00010065,-0.00051874,-0.00076370,-0.01
 509038,-0.05437296,-0.00968932,0.01951464,-0.00075496,-0.00077889,-0.0
 0022355,0.00007177,-0.00023228,-0.00010798,-0.00016097,0.00030493,-0.0
 0024600,-0.00052484,0.00193107,0.00392040,0.00028260,-0.00087004,0.000
 07077,-0.00318321,0.00040368,0.00462961,0.00007837,-0.00004751,-0.0000
 4363,0.00028760,0.00008676,-0.00077095,-0.00019353,0.00536275,0.003890
 16,-0.00118400,-0.00056380,0.00112642,0.00054685,0.00148736,0.00296032
 ,-0.04006434,-0.40541773,-0.20516007,0.04282088,0.39645832,-0.00149430
 ,0.00037891,-0.00124551,0.00000321,-0.00014728,0.00018875,-0.00073416,
 0.00026403,-0.00052132,-0.00072211,-0.00040144,0.00097147,0.00020255,-
 0.00090965,0.00092019,0.00153057,0.00274176,-0.00158518,0.00025192,0.0
 0035636,0.00003077,0.00000061,-0.00020027,0.00001446,-0.00361111,-0.03
 634860,-0.02688286,-0.00022136,-0.00012159,0.00050143,0.00359296,0.001
 02189,-0.00616591,0.00145555,-0.15801502,-0.12727310,-0.00073890,0.193
 15280,0.16141105,0.03866631,0.04626474,0.06090995,-0.00196581,-0.00476
 786,-0.00464721,-0.00148496,-0.00332386,-0.00449173,0.00953747,-0.0041
 9356,-0.01237123,-0.00188735,-0.00382332,-0.00188430,-0.16585949,0.002
 72693,0.05805990,-0.02776844,0.00861481,0.02515764,-0.01201556,0.00002
 810,0.01740852,-0.00238579,-0.00176063,0.00108895,0.00020110,0.0005334
 9,-0.00069925,0.00082454,-0.00095653,0.00045015,-0.00000417,-0.0005749
 5,-0.00321444,-0.00131441,0.00381257,0.00104684,0.16825152,0.04509848,
 0.03813720,0.06976091,-0.00013995,0.00218130,0.00048019,-0.00208228,-0
 .00358192,-0.00466029,0.03363904,-0.01966171,-0.04644535,-0.00221453,-
 0.00695728,-0.00395083,0.01044331,-0.06641642,-0.01359921,0.00747681,0
 .00186694,-0.00998676,-0.01805905,0.01324159,0.01145188,-0.00148591,-0
 .00140139,0.00437477,-0.00082029,0.00089161,-0.00113410,-0.00001907,-0
 .00071237,-0.00026838,-0.00035599,-0.00789606,-0.00265057,0.00014636,0
 .00445348,-0.00102378,-0.09218237,0.02793833,0.05184777,0.06575693,0.0
 7068256,-0.00260045,-0.00500488,-0.00524282,-0.00157008,-0.00152588,0.
 00022194,0.04305723,-0.02839151,-0.04776197,-0.00294744,-0.00887242,-0
 .00316159,0.06018019,-0.01267860,-0.11669389,-0.00080682,-0.00076840,0
 .00795828,0.02799173,-0.00598680,-0.02128513,0.00005102,0.00012965,-0.
 00300569,-0.00162159,0.00083402,-0.00053121,-0.00040060,-0.00153045,0.
 00057945,-0.00301575,0.00314138,0.00130382,0.00203236,-0.00018201,0.00
 080855,-0.20121773,-0.03633261,0.08224843,-0.02197888,-0.02367889,-0.0
 3119998,0.00044794,-0.00004900,0.00038697,0.00079484,0.00082213,-0.000
 21298,-0.00959903,0.00385863,0.00925392,0.00190712,0.00228170,0.001392
 94,0.01583279,0.01222536,0.00948696,0.00047213,0.00051417,0.00172442,-
 0.00094350,0.00033984,0.00046717,0.00082068,0.00067673,-0.00018783,0.0
 0047990,-0.00052670,0.00043644,-0.00013178,0.00082812,-0.00019020,0.00
 116762,0.00026266,0.00082732,-0.00081470,-0.00193177,-0.00029249,-0.01
 477054,0.02884075,0.03548400,0.40174183,-0.02622308,-0.03158364,-0.043
 20722,0.00016818,0.00019119,0.00018870,0.00087588,0.00109937,0.0001357
 6,-0.01178755,0.00362836,0.00435175,0.00098175,0.00163196,0.00104291,0
 .00114916,-0.00370583,-0.00598770,-0.00173731,-0.00093569,0.00122636,-
 0.00028579,0.00080266,0.00101562,0.00045073,0.00114881,-0.00070636,0.0
 0072259,-0.00058049,0.00053729,-0.00006835,0.00067872,-0.00002713,0.00
 114661,0.00030556,0.00162902,-0.00061880,-0.00233261,-0.00057371,0.038
 81930,0.02401123,0.03468393,-0.21459426,0.13207731,-0.03105863,-0.0384
 9646,-0.05025604,0.00046046,0.00006962,0.00051034,0.00083369,0.0011063
 2,0.00009290,-0.01467753,0.00321354,0.00631056,0.00148277,0.00205598,0
 .00157193,-0.00046153,-0.00786492,-0.01040854,-0.00148097,-0.00044330,
 0.00169340,-0.00264055,0.00055095,0.00298086,0.00091015,0.00105595,-0.
 00212975,0.00071673,-0.00069879,0.00078538,-0.00005357,0.00076557,0.00
 021081,0.00110987,0.00018106,0.00270897,-0.00050679,-0.00276935,-0.001
 46272,0.04980929,0.04040094,0.03899106,-0.11761626,0.07612356,0.053131
 63,-0.00122627,-0.00147580,-0.00192193,0.00000038,0.00000378,-0.000054
 83,0.00001871,-0.00005358,-0.00009895,0.00071202,0.00005054,-0.0008960
 5,-0.00010855,-0.00033867,-0.00010225,-0.00345517,-0.00163490,-0.00140
 744,0.00043989,-0.00030750,0.00040261,0.00009539,0.00017390,-0.0000150
 0,-0.00007889,0.00017024,-0.00026005,0.00004638,-0.00005920,0.00003384
 ,-0.00000457,-0.00000825,0.00004199,0.00005773,-0.00016133,0.00034682,
 -0.00007853,0.00009699,-0.00026977,0.01197558,-0.00828531,-0.00646385,
 -0.37542642,0.21100093,0.11317285,0.36703234,0.00009636,-0.00030076,-0
 .00123119,-0.00002796,0.00005338,0.00004194,-0.00003766,0.00000624,0.0
 0018330,0.00017343,0.00010172,-0.00059504,-0.00030000,-0.00003092,-0.0
 0001020,-0.00093467,-0.00208527,-0.00200739,-0.00061939,0.00007931,0.0
 0016373,-0.00023852,0.00000883,0.00031711,0.00009743,-0.00010053,-0.00
 023059,-0.00008777,0.00003155,0.00001334,0.00001520,-0.00001372,0.0000
 7768,-0.00029707,0.00021078,0.00025327,0.00041880,-0.00024548,-0.00017
 443,0.01078313,-0.00609452,-0.00327236,0.19013053,-0.12643692,-0.07525
 066,-0.19917183,0.13481631,0.00005326,-0.00131166,-0.00111742,-0.00006
 740,0.00014852,0.00000749,-0.00003302,0.00005649,0.00013363,0.00014337
 ,-0.00021097,-0.00132083,-0.00031506,-0.00011994,-0.00008938,-0.001583
 69,-0.00331281,-0.00273705,-0.00051246,-0.00000976,-0.00044963,0.00015
 886,0.00004038,0.00009178,-0.00011980,-0.00015188,0.00013215,-0.000001
 16,0.00005163,-0.00004716,0.00004395,-0.00001258,0.00003480,-0.0000335
 3,0.00020765,-0.00024767,-0.00005956,-0.00024695,0.00028993,0.01459464
 ,-0.00641678,-0.00511179,0.09023960,-0.07043278,-0.04473081,-0.1025079
 9,0.08172147,0.05516195\\-0.00000071,0.00000284,0.00000537,-0.00000230
 ,-0.00000054,0.00000211,-0.00000083,0.00000220,0.00000586,-0.00000533,
 -0.00000287,-0.00000092,-0.00000493,-0.00000533,-0.00000083,0.00000101
 ,-0.00000484,-0.00000313,0.00000151,-0.00000019,-0.00000632,-0.0000002
 0,-0.00000234,-0.00000799,-0.00000020,0.00000127,0.00000355,-0.0000019
 6,-0.00000238,-0.00000065,-0.00000589,-0.00000212,0.00000725,-0.000002
 69,-0.00000677,-0.00000115,0.00000213,0.00001300,0.00000606,0.00000588
 ,-0.00000442,-0.00000129,0.00001076,0.00000352,-0.00000503,0.00000374,
 0.00000898,-0.00000290\\\@


 YOU CAN WIPE THE SLATE CLEAN, BUT YOU'LL STILL
 HAVE TO EAT A LITTLE CHALK DUST.
 Job cpu time:  0 days  1 hours  9 minutes  6.6 seconds.
 File lengths (MBytes):  RWF=    125 Int=      0 D2E=      0 Chk=      8 Scr=      1
 Normal termination of Gaussian 03 at Tue Jun 18 10:43:22 2013.
