 Entering Gaussian System, Link 0=g03
 Input=p3freq.gjf
 Output=p3freq.log
 Initial command:
 /opt/g03/l1.exe /scratch/nyee/Gau-20094.inp -scrdir=/scratch/nyee/
 Entering Link 1 = /opt/g03/l1.exe PID=     20096.
  
 Copyright (c) 1988,1990,1992,1993,1995,1998,2003,2004, Gaussian, Inc.
                  All Rights Reserved.
  
 This is the Gaussian(R) 03 program.  It is based on the
 the Gaussian(R) 98 system (copyright 1998, Gaussian, Inc.),
 the Gaussian(R) 94 system (copyright 1995, Gaussian, Inc.),
 the Gaussian 92(TM) system (copyright 1992, Gaussian, Inc.),
 the Gaussian 90(TM) system (copyright 1990, Gaussian, Inc.),
 the Gaussian 88(TM) system (copyright 1988, Gaussian, Inc.),
 the Gaussian 86(TM) system (copyright 1986, Carnegie Mellon
 University), and the Gaussian 82(TM) system (copyright 1983,
 Carnegie Mellon University). Gaussian is a federally registered
 trademark of Gaussian, Inc.
  
 This software contains proprietary and confidential information,
 including trade secrets, belonging to Gaussian, Inc.
  
 This software is provided under written license and may be
 used, copied, transmitted, or stored only in accord with that
 written license.
  
 The following legend is applicable only to US Government
 contracts under FAR:
  
                    RESTRICTED RIGHTS LEGEND
  
 Use, reproduction and disclosure by the US Government is
 subject to restrictions as set forth in subparagraphs (a)
 and (c) of the Commercial Computer Software - Restricted
 Rights clause in FAR 52.227-19.
  
 Gaussian, Inc.
 340 Quinnipiac St., Bldg. 40, Wallingford CT 06492
  
  
 ---------------------------------------------------------------
 Warning -- This program may not be used in any manner that
 competes with the business of Gaussian, Inc. or will provide
 assistance to any competitor of Gaussian, Inc.  The licensee
 of this program is prohibited from giving any competitor of
 Gaussian, Inc. access to this program.  By using this program,
 the user acknowledges that Gaussian, Inc. is engaged in the
 business of creating and licensing software in the field of
 computational chemistry and represents and warrants to the
 licensee that it is not a competitor of Gaussian, Inc. and that
 it will not use this program in any manner prohibited above.
 ---------------------------------------------------------------
  

 Cite this work as:
 Gaussian 03, Revision D.01,
 M. J. Frisch, G. W. Trucks, H. B. Schlegel, G. E. Scuseria, 
 M. A. Robb, J. R. Cheeseman, J. A. Montgomery, Jr., T. Vreven, 
 K. N. Kudin, J. C. Burant, J. M. Millam, S. S. Iyengar, J. Tomasi, 
 V. Barone, B. Mennucci, M. Cossi, G. Scalmani, N. Rega, 
 G. A. Petersson, H. Nakatsuji, M. Hada, M. Ehara, K. Toyota, 
 R. Fukuda, J. Hasegawa, M. Ishida, T. Nakajima, Y. Honda, O. Kitao, 
 H. Nakai, M. Klene, X. Li, J. E. Knox, H. P. Hratchian, J. B. Cross, 
 V. Bakken, C. Adamo, J. Jaramillo, R. Gomperts, R. E. Stratmann, 
 O. Yazyev, A. J. Austin, R. Cammi, C. Pomelli, J. W. Ochterski, 
 P. Y. Ayala, K. Morokuma, G. A. Voth, P. Salvador, J. J. Dannenberg, 
 V. G. Zakrzewski, S. Dapprich, A. D. Daniels, M. C. Strain, 
 O. Farkas, D. K. Malick, A. D. Rabuck, K. Raghavachari, 
 J. B. Foresman, J. V. Ortiz, Q. Cui, A. G. Baboul, S. Clifford, 
 J. Cioslowski, B. B. Stefanov, G. Liu, A. Liashenko, P. Piskorz, 
 I. Komaromi, R. L. Martin, D. J. Fox, T. Keith, M. A. Al-Laham, 
 C. Y. Peng, A. Nanayakkara, M. Challacombe, P. M. W. Gill, 
 B. Johnson, W. Chen, M. W. Wong, C. Gonzalez, and J. A. Pople, 
 Gaussian, Inc., Wallingford CT, 2004.
 
 ******************************************
 Gaussian 03:  AM64L-G03RevD.01 13-Oct-2005
                10-Jun-2013 
 ******************************************
 %chk=p3freq.chk
 %mem=1000mb
 %nproc=8
 Will use up to    8 processors via shared memory.
 -------------------------------------
 # freq nosymm b3lyp/cbsb7 iop(7/33=1)
 -------------------------------------
 1/10=4,30=1,38=1/1,3;
 2/15=1,17=6,18=5,40=1/2;
 3/5=4,6=6,7=700,11=2,16=1,25=1,30=1,74=-5/1,2,3;
 4//1;
 5/5=2,38=5/2;
 8/6=4,10=90,11=11/1;
 11/6=1,8=1,9=11,15=111,16=1,31=1/1,2,10;
 10/6=1,31=1/2;
 6/7=2,8=2,9=2,10=2,18=1,28=1/1;
 7/8=1,10=1,25=1,30=1,33=1/1,2,3,16;
 1/10=4,30=1/3;
 99//99;
 -------------------
 Title Card Required
 -------------------
 Symbolic Z-matrix:
 Charge =  0 Multiplicity = 1
 C                    -2.72142   0.35286   0.17933 
 H                    -2.10728   0.18844  -0.70038 
 H                    -3.7957    0.28261   0.04418 
 C                    -2.17727   0.61648   1.36788 
 C                    -0.6773    0.70917   1.53148 
 H                    -0.17941   0.46887   0.5835 
 H                    -0.33367  -0.01004   2.28134 
 O                    -0.25943   1.98429   2.02717 
 H                    -0.53765   2.64372   1.38266 
 C                    -2.98924   0.85644   2.61302 
 H                    -2.79392   0.07501   3.35681 
 H                    -2.70352   1.80506   3.07515 
 H                    -4.05993   0.87158   2.4028 
 

 GradGradGradGradGradGradGradGradGradGradGradGradGradGradGradGradGradGrad
 Berny optimization.
 Initialization pass.
 Trust Radius=3.00D-01 FncErr=1.00D-07 GrdErr=1.00D-07
 Number of steps in this run=   2 maximum allowed number of steps=   2.
 GradGradGradGradGradGradGradGradGradGradGradGradGradGradGradGradGradGrad

                          Input orientation:                          
 ---------------------------------------------------------------------
 Center     Atomic     Atomic              Coordinates (Angstroms)
 Number     Number      Type              X           Y           Z
 ---------------------------------------------------------------------
    1          6             0       -2.721419    0.352861    0.179326
    2          1             0       -2.107277    0.188442   -0.700384
    3          1             0       -3.795704    0.282609    0.044177
    4          6             0       -2.177265    0.616476    1.367880
    5          6             0       -0.677301    0.709167    1.531481
    6          1             0       -0.179409    0.468867    0.583503
    7          1             0       -0.333669   -0.010037    2.281341
    8          8             0       -0.259431    1.984294    2.027174
    9          1             0       -0.537649    2.643718    1.382662
   10          6             0       -2.989236    0.856443    2.613018
   11          1             0       -2.793921    0.075007    3.356811
   12          1             0       -2.703518    1.805057    3.075151
   13          1             0       -4.059932    0.871575    2.402798
 ---------------------------------------------------------------------
                    Distance matrix (angstroms):
                    1          2          3          4          5
     1  C    0.000000
     2  H    1.085400   0.000000
     3  H    1.085029   1.847708   0.000000
     4  C    1.333513   2.113250   2.117310   0.000000
     5  C    2.476630   2.701334   3.481158   1.511704   0.000000
     6  H    2.576554   2.333169   3.661032   2.151387   1.097407
     7  H    3.201798   3.475020   4.132340   2.150762   1.094362
     8  O    3.483892   3.752225   4.396958   2.446157   1.430481
     9  H    3.385985   3.582065   4.240436   2.607349   1.945286
    10  C    2.499635   3.493238   2.752929   1.505739   2.556649
    11  H    3.190434   4.116452   3.467018   2.151581   2.866020
    12  H    3.239598   4.150134   3.563358   2.145796   2.772985
    13  H    2.646603   3.729513   2.445361   2.163462   3.496822
                    6          7          8          9         10
     6  H    0.000000
     7  H    1.770819   0.000000
     8  O    2.094543   2.011832   0.000000
     9  H    2.344561   2.809208   0.963141   0.000000
    10  C    3.487732   2.812976   3.011162   3.273898   0.000000
    11  H    3.831714   2.686393   3.440487   3.947949   1.096366
    12  H    3.790098   3.088832   2.665322   2.873823   1.093193
    13  H    4.304703   3.831061   3.977819   4.072793   1.091243
                   11         12         13
    11  H    0.000000
    12  H    1.755158   0.000000
    13  H    1.774104   1.778569   0.000000
 Symmetry turned off by external request.
 Stoichiometry    C4H8O
 Framework group  C1[X(C4H8O)]
 Deg. of freedom    33
 Full point group                 C1
 Rotational constants (GHZ):      7.5065493      3.9220382      2.9265373
 Standard basis: CBSB7 (5D, 7F)
 Integral buffers will be    131072 words long.
 Raffenetti 2 integral format.
 Two-electron integral symmetry is turned off.
   138 basis functions,   224 primitive gaussians,   143 cartesian basis functions
    20 alpha electrons       20 beta electrons
       nuclear repulsion energy       175.9964086130 Hartrees.
 NAtoms=   13 NActive=   13 NUniq=   13 SFac= 7.50D-01 NAtFMM=   80 NAOKFM=F Big=F
 One-electron integrals computed using PRISM.
 NBasis=   138 RedAO= T  NBF=   138
 NBsUse=   138 1.00D-06 NBFU=   138
 Harris functional with IExCor=  402 diagonalized for initial guess.
 ExpMin= 1.03D-01 ExpMax= 8.59D+03 ExpMxC= 1.30D+03 IAcc=1 IRadAn=         1 AccDes= 1.00D-06
 HarFok:  IExCor= 402 AccDes= 1.00D-06 IRadAn=         1 IDoV=1
 ScaDFX=  1.000000  1.000000  1.000000  1.000000
 Requested convergence on RMS density matrix=1.00D-08 within 128 cycles.
 Requested convergence on MAX density matrix=1.00D-06.
 Requested convergence on             energy=1.00D-06.
 No special actions if energy rises.
 Keep R1 integrals in memory in canonical form, NReq=    55521521.
 Integral accuracy reduced to 1.0D-05 until final iterations.
 Initial convergence to 1.0D-05 achieved.  Increase integral accuracy.
 SCF Done:  E(RB+HF-LYP) =  -232.505431407     A.U. after   13 cycles
             Convg  =    0.6676D-08             -V/T =  2.0040
             S**2   =   0.0000
 Range of M.O.s used for correlation:     1   138
 NBasis=   138 NAE=    20 NBE=    20 NFC=     0 NFV=     0
 NROrb=    138 NOA=    20 NOB=    20 NVA=   118 NVB=   118
 Symmetrizing basis deriv contribution to polar:
 IMax=3 JMax=2 DiffMx= 0.00D+00
 G2DrvN: will do   14 centers at a time, making    1 passes doing MaxLOS=2.
 FoFDir/FoFCou used for L=0 through L=2.
 DoAtom=TTTTTTTTTTTTT
          Differentiating once with respect to electric field.
                with respect to dipole field.
          Differentiating once with respect to nuclear coordinates.
          Store integrals in memory, NReq=    53832888.
          There are  42 degrees of freedom in the 1st order CPHF.
    39 vectors were produced by pass  0.
 AX will form  39 AO Fock derivatives at one time.
    39 vectors were produced by pass  1.
    39 vectors were produced by pass  2.
    39 vectors were produced by pass  3.
    39 vectors were produced by pass  4.
    23 vectors were produced by pass  5.
     3 vectors were produced by pass  6.
 Inv2:  IOpt= 1 Iter= 1 AM= 2.07D-15 Conv= 1.00D-12.
 Inverted reduced A of dimension  221 with in-core refinement.
 Isotropic polarizability for W=    0.000000       49.85 Bohr**3.
 End of Minotr Frequency-dependent properties file   721 does not exist.

 **********************************************************************

            Population analysis using the SCF density.

 **********************************************************************

 Alpha  occ. eigenvalues --  -19.11439 -10.21816 -10.18261 -10.16485 -10.16334
 Alpha  occ. eigenvalues --   -1.02049  -0.80740  -0.69454  -0.67849  -0.54674
 Alpha  occ. eigenvalues --   -0.50281  -0.46555  -0.44817  -0.42794  -0.40504
 Alpha  occ. eigenvalues --   -0.38091  -0.36422  -0.33120  -0.27920  -0.26171
 Alpha virt. eigenvalues --    0.00181   0.04045   0.06454   0.07953   0.08881
 Alpha virt. eigenvalues --    0.10591   0.11437   0.13874   0.15917   0.19420
 Alpha virt. eigenvalues --    0.19971   0.26839   0.29328   0.31466   0.33208
 Alpha virt. eigenvalues --    0.34363   0.36594   0.40300   0.42190   0.43481
 Alpha virt. eigenvalues --    0.47434   0.49807   0.51088   0.54467   0.55304
 Alpha virt. eigenvalues --    0.56665   0.58969   0.59390   0.60386   0.61940
 Alpha virt. eigenvalues --    0.63372   0.66306   0.69308   0.79542   0.84003
 Alpha virt. eigenvalues --    0.85293   0.87043   0.87663   0.96248   0.97977
 Alpha virt. eigenvalues --    1.04796   1.07301   1.09306   1.22691   1.30015
 Alpha virt. eigenvalues --    1.34432   1.36825   1.38083   1.40961   1.42247
 Alpha virt. eigenvalues --    1.45929   1.49168   1.51089   1.51497   1.53091
 Alpha virt. eigenvalues --    1.56203   1.58408   1.58966   1.63170   1.64812
 Alpha virt. eigenvalues --    1.69088   1.70468   1.73905   1.75350   1.81235
 Alpha virt. eigenvalues --    1.84435   1.92682   1.95504   1.99974   2.01412
 Alpha virt. eigenvalues --    2.04779   2.05491   2.09611   2.17560   2.21335
 Alpha virt. eigenvalues --    2.24024   2.30754   2.35269   2.36680   2.40284
 Alpha virt. eigenvalues --    2.42521   2.44694   2.47839   2.51565   2.53357
 Alpha virt. eigenvalues --    2.55664   2.57360   2.61735   2.66564   2.69231
 Alpha virt. eigenvalues --    2.73972   2.79225   2.88001   2.91837   2.96190
 Alpha virt. eigenvalues --    2.96950   3.08171   3.11655   3.20115   3.28914
 Alpha virt. eigenvalues --    3.35174   3.59379   3.68083   3.73039   3.78058
 Alpha virt. eigenvalues --    3.83684   3.90307   3.92414   4.24176   4.32052
 Alpha virt. eigenvalues --    4.88350   5.24429   5.61273  23.64259  23.80354
 Alpha virt. eigenvalues --   23.93058  24.25116  49.88371
          Condensed to atoms (all electrons):
              1          2          3          4          5          6
     1  C    4.855501   0.410381   0.403971   0.629789  -0.060662  -0.011387
     2  H    0.410381   0.577068  -0.043023  -0.041130  -0.012766   0.006529
     3  H    0.403971  -0.043023   0.571813  -0.029227   0.007169   0.000059
     4  C    0.629789  -0.041130  -0.029227   5.171839   0.381605  -0.048399
     5  C   -0.060662  -0.012766   0.007169   0.381605   4.690591   0.399833
     6  H   -0.011387   0.006529   0.000059  -0.048399   0.399833   0.629107
     7  H    0.005263   0.000480  -0.000585  -0.036903   0.385832  -0.042985
     8  O    0.001586   0.000319  -0.000259  -0.056262   0.286395  -0.029163
     9  H    0.004715   0.000102  -0.000092   0.003651  -0.050786  -0.009406
    10  C   -0.066382   0.008142  -0.011351   0.338703  -0.060963   0.010193
    11  H    0.000141  -0.000429   0.000307  -0.034869  -0.002207  -0.000368
    12  H    0.001369  -0.000227   0.000012  -0.044157  -0.009178   0.001464
    13  H   -0.008583   0.000041   0.003811  -0.032083   0.006860  -0.000429
              7          8          9         10         11         12
     1  C    0.005263   0.001586   0.004715  -0.066382   0.000141   0.001369
     2  H    0.000480   0.000319   0.000102   0.008142  -0.000429  -0.000227
     3  H   -0.000585  -0.000259  -0.000092  -0.011351   0.000307   0.000012
     4  C   -0.036903  -0.056262   0.003651   0.338703  -0.034869  -0.044157
     5  C    0.385832   0.286395  -0.050786  -0.060963  -0.002207  -0.009178
     6  H   -0.042985  -0.029163  -0.009406   0.010193  -0.000368   0.001464
     7  H    0.611083  -0.035231   0.011648  -0.009545   0.004384  -0.001931
     8  O   -0.035231   7.900544   0.304035  -0.000250  -0.000805   0.022210
     9  H    0.011648   0.304035   0.509457  -0.002406   0.000325  -0.001772
    10  C   -0.009545  -0.000250  -0.002406   4.833036   0.394549   0.401148
    11  H    0.004384  -0.000805   0.000325   0.394549   0.584569  -0.032065
    12  H   -0.001931   0.022210  -0.001772   0.401148  -0.032065   0.571406
    13  H   -0.000101  -0.000239  -0.000065   0.406322  -0.026739  -0.027622
             13
     1  C   -0.008583
     2  H    0.000041
     3  H    0.003811
     4  C   -0.032083
     5  C    0.006860
     6  H   -0.000429
     7  H   -0.000101
     8  O   -0.000239
     9  H   -0.000065
    10  C    0.406322
    11  H   -0.026739
    12  H   -0.027622
    13  H    0.573368
 Mulliken atomic charges:
              1
     1  C   -0.165700
     2  H    0.094513
     3  H    0.097395
     4  C   -0.202557
     5  C    0.038278
     6  H    0.094953
     7  H    0.108591
     8  O   -0.392880
     9  H    0.230594
    10  C   -0.241196
    11  H    0.113205
    12  H    0.119345
    13  H    0.105459
 Sum of Mulliken charges=   0.00000
 Atomic charges with hydrogens summed into heavy atoms:
              1
     1  C    0.026208
     2  H    0.000000
     3  H    0.000000
     4  C   -0.202557
     5  C    0.241823
     6  H    0.000000
     7  H    0.000000
     8  O   -0.162286
     9  H    0.000000
    10  C    0.096813
    11  H    0.000000
    12  H    0.000000
    13  H    0.000000
 Sum of Mulliken charges=   0.00000
 APT atomic charges:
              1
     1  C   -0.137798
     2  H    0.022015
     3  H    0.024389
     4  C    0.030598
     5  C    0.514761
     6  H   -0.070604
     7  H   -0.038954
     8  O   -0.598940
     9  H    0.242974
    10  C    0.028350
    11  H   -0.014352
    12  H    0.012532
    13  H   -0.014973
 Sum of APT charges=   0.00000
 APT Atomic charges with hydrogens summed into heavy atoms:
              1
     1  C   -0.091393
     2  H    0.000000
     3  H    0.000000
     4  C    0.030598
     5  C    0.405203
     6  H    0.000000
     7  H    0.000000
     8  O   -0.355966
     9  H    0.000000
    10  C    0.011557
    11  H    0.000000
    12  H    0.000000
    13  H    0.000000
 Sum of APT charges=   0.00000
 Electronic spatial extent (au):  <R**2>=  1385.4046
 Charge=     0.0000 electrons
 Dipole moment (field-independent basis, Debye):
    X=    -0.7751    Y=    -0.1274    Z=    -0.9854  Tot=     1.2602
 Quadrupole moment (field-independent basis, Debye-Ang):
   XX=   -30.7952   YY=   -31.5424   ZZ=   -34.7595
   XY=    -1.7225   XZ=    -1.8474   YZ=    -3.1000
 Traceless Quadrupole moment (field-independent basis, Debye-Ang):
   XX=     1.5705   YY=     0.8233   ZZ=    -2.3938
   XY=    -1.7225   XZ=    -1.8474   YZ=    -3.1000
 Octapole moment (field-independent basis, Debye-Ang**2):
  XXX=   166.7451  YYY=   -74.8827  ZZZ=  -156.3683  XYY=    57.4742
  XXY=   -27.1594  XXZ=   -46.7523  XZZ=    53.6704  YZZ=   -39.9560
  YYZ=   -54.1634  XYZ=    -3.4708
 Hexadecapole moment (field-independent basis, Debye-Ang**3):
 XXXX=  -891.3405 YYYY=  -216.3489 ZZZZ=  -685.4966 XXXY=   114.1017
 XXXZ=   254.9596 YYYX=   108.2158 YYYZ=  -155.4061 ZZZX=   253.8810
 ZZZY=  -189.5897 XXYY=  -209.1473 XXZZ=  -260.7561 YYZZ=  -174.9729
 XXYZ=   -46.5353 YYXZ=    82.0746 ZZXY=    35.4243
 N-N= 1.759964086130D+02 E-N=-8.942822532265D+02  KE= 2.315806218736D+02
  Exact polarizability:  51.493   2.740  39.827   4.309   4.823  58.243
 Approx polarizability:  67.088   3.932  56.744  11.436   7.207  85.261
 Use density number 0.
 Entering OneElI...
 Calculate overlap and kinetic energy integrals
    NBasis = 143  MinDer = 2  MaxDer = 2
 Requested accuracy = 0.1000D-12
 PrsmSu:  NPrtUS=   1 ThrOK=F
 PRISM was handed   130877251 working-precision words and  1653 shell-pairs
 Entering OneElI...
 Calculate potential energy integrals
    NBasis = 143  MinDer = 2  MaxDer = 2
 Requested accuracy = 0.1000D-12
 PrsmSu:  NPrtUS=   8 ThrOK=T
 PRISM was handed    16329481 working-precision words and  1603 shell-pairs
 PRISM was handed    16329481 working-precision words and  1603 shell-pairs
 PRISM was handed    16329481 working-precision words and  1603 shell-pairs
 PRISM was handed    16329481 working-precision words and  1603 shell-pairs
 PRISM was handed    16329481 working-precision words and  1603 shell-pairs
 PRISM was handed    16329481 working-precision words and  1603 shell-pairs
 PRISM was handed    16329481 working-precision words and  1603 shell-pairs
 PRISM was handed    16329481 working-precision words and  1603 shell-pairs
 Polarizability after L701:
                1             2             3
      1  0.514926D+02
      2  0.273982D+01  0.398269D+02
      3  0.430918D+01  0.482277D+01  0.582432D+02
 Dipole Derivatives after L701:
               1            2            3            4            5
      1 0.327037D-01-0.404732D-02-0.446031D-01-0.159587D-01 0.717147D-02
      2-0.149595D-01-0.300064D+00 0.545209D-01 0.185288D-01 0.134065D+00
      3-0.713752D-01 0.357711D-01-0.146033D+00 0.114069D+00-0.362988D-01
               6            7            8            9           10
      1 0.596360D-01-0.122935D+00-0.847717D-02 0.128035D-01 0.317309D-01
      2-0.397769D-01-0.208724D-01 0.140277D+00-0.221564D-01-0.442808D-01
      3-0.520609D-01-0.346647D-01-0.214660D-01 0.558267D-01-0.935488D-01
              11           12           13           14           15
      1 0.234997D-01-0.350978D-02 0.476760D+00 0.150685D+00 0.238330D-01
      2-0.224993D+00 0.621307D-01 0.163617D+00 0.735788D+00 0.965238D-01
      3 0.855426D-01 0.285056D+00 0.128706D+00 0.150662D+00 0.331736D+00
              16           17           18           19           20
      1-0.444029D-01 0.784798D-02 0.123063D+00-0.612408D-02 0.106166D-01
      2-0.335540D-03-0.230828D-01-0.982489D-01 0.403571D-02-0.552931D-01
      3 0.632469D-01-0.459908D-01-0.144326D+00-0.682812D-01 0.566771D-01
              21           22           23           24           25
      1-0.873891D-01-0.675158D+00-0.241789D+00 0.285042D-01 0.321275D+00
      2 0.976199D-01-0.202649D+00-0.765587D+00-0.168197D+00 0.808146D-01
      3-0.554450D-01-0.198361D-01-0.237580D+00-0.356073D+00-0.730271D-01
              26           27           28           29           30
      1 0.447969D-01-0.779196D-01 0.117449D-01 0.829602D-02 0.362365D-01
      2 0.248165D+00 0.608919D-01-0.628386D-02 0.126377D+00-0.692090D-01
      3 0.313271D-01 0.159481D+00 0.406226D-01-0.426735D-01-0.530728D-01
              31           32           33           34           35
      1 0.578086D-01 0.285882D-01-0.573114D-02 0.836472D-01-0.251438D-01
      2 0.662220D-01-0.305027D-01 0.730885D-01-0.520671D-01-0.621981D-01
      3-0.695166D-03 0.119808D+00-0.703608D-01 0.202567D-02-0.890219D-01
              36           37           38           39
      1-0.460706D-02-0.151092D+00-0.204483D-02-0.603160D-01
      2-0.443073D-01 0.822983D-02 0.770485D-01-0.288038D-02
      3 0.161469D-01 0.127582D-01-0.675715D-02 0.291246D-01
 Hessian after L701:
                1             2             3             4             5
      1  0.107506D+02
      2 -0.928560D+00  0.178882D+02
      3 -0.263151D+01 -0.258345D+01  0.676903D+01
      4 -0.280333D+01 -0.200461D+00 -0.107727D+01  0.290370D+01
      5 -0.257340D+00 -0.344650D+01  0.320434D+00  0.209029D+00  0.335952D+01
      6 -0.130186D+01  0.297592D+00 -0.182664D+01  0.108515D+01 -0.399178D+00
      7 -0.103703D+01  0.135442D+00  0.235099D+00 -0.136473D+00  0.179652D-01
      8  0.183222D+00 -0.342570D+01 -0.958432D-03  0.131124D-01  0.104443D+00
      9  0.424770D+00  0.516979D-02 -0.347699D+01  0.108273D+00 -0.275969D-02
     10 -0.726507D+01  0.704674D+00  0.297446D+01  0.721342D-01  0.149102D-01
     11  0.693312D+00 -0.109364D+02  0.195527D+01 -0.680324D-02  0.533301D-01
     12  0.305251D+01  0.201870D+01 -0.192055D+01 -0.436141D-01  0.456079D-02
     13  0.336330D+00  0.548423D-01  0.222267D+00 -0.136176D-01 -0.438495D-02
     14  0.106038D+00 -0.703618D-01  0.512521D-01 -0.120731D-01 -0.997740D-02
     15  0.238312D+00  0.113582D-01 -0.159477D-02 -0.352166D-01 -0.546719D-02
     16 -0.165516D-01  0.273221D-01 -0.285569D-02  0.241363D-01  0.123668D-01
     17  0.148683D-01 -0.453525D-02  0.178917D-02  0.483846D-02 -0.249360D-01
     18 -0.380443D-01 -0.996314D-03 -0.176628D-01  0.255573D-01  0.355434D-02
     19  0.545041D-01 -0.439241D-01  0.104524D+00 -0.191730D-02  0.140695D-02
     20 -0.697558D-01 -0.277435D-01 -0.677453D-01  0.104131D-02 -0.463045D-02
     21  0.105700D+00 -0.405420D-01  0.623295D-01  0.293509D-02  0.141688D-02
     22  0.107450D+00  0.228439D+00  0.238309D+00 -0.213384D-01  0.199677D-01
     23  0.199264D+00 -0.313283D-01  0.155069D+00  0.724647D-02 -0.743527D-02
     24  0.226630D+00  0.172330D+00 -0.300824D-01  0.580078D-02  0.353619D-01
     25  0.210790D-01  0.451731D-01  0.346113D-01 -0.124264D-02  0.172902D-02
     26  0.809763D-01  0.374607D-01  0.524096D-01 -0.120079D-02  0.636532D-02
     27  0.121735D-01  0.934593D-02 -0.262300D-01  0.281301D-02  0.127152D-03
     28 -0.874942D-01 -0.167938D-01 -0.706542D-01 -0.280750D-01 -0.128108D-01
     29 -0.228096D-01 -0.781640D-02  0.903739D-01 -0.118744D-01 -0.263821D-01
     30 -0.105815D+00  0.852455D-01  0.343307D+00 -0.618023D-01  0.381507D-01
     31 -0.296138D-01  0.149051D-02  0.664011D-02 -0.844454D-03  0.103832D-02
     32 -0.252951D-02 -0.121543D-01 -0.835957D-01  0.314513D-02 -0.240315D-02
     33  0.703082D-02 -0.613200D-01  0.927805D-01 -0.431523D-02 -0.128141D-02
     34 -0.324544D-01  0.311830D-02  0.102895D-01 -0.135882D-02 -0.304307D-03
     35  0.604823D-02  0.491308D-01  0.101978D+00 -0.449536D-02  0.114754D-02
     36  0.620071D-02  0.837784D-01  0.398761D-01 -0.362235D-02  0.329847D-02
     37  0.158911D-02 -0.107607D-01 -0.439132D-01  0.822149D-02 -0.357282D-02
     38 -0.273318D-02 -0.122642D-01  0.717592D-02 -0.150433D-02 -0.254460D-02
     39  0.389791D-02  0.279029D-02 -0.757420D-02 -0.468290D-02  0.178178D-02
                6             7             8             9            10
      6  0.147245D+01
      7  0.121830D+00  0.913842D+00
      8 -0.130011D-02 -0.224657D+00  0.337612D+01
      9  0.727085D-01 -0.597212D+00 -0.377219D-01  0.332525D+01
     10  0.661598D-01  0.797784D-01 -0.738458D-02 -0.173645D-01  0.108604D+02
     11  0.115689D-01  0.824703D-02  0.132723D-01  0.118826D-02 -0.108637D+01
     12  0.623201D-01  0.887121D-01  0.712629D-02  0.608624D-01 -0.145714D+01
     13 -0.118549D-01  0.143054D+00  0.233600D-01  0.854279D-01 -0.309410D+00
     14  0.819140D-02  0.381090D-01 -0.257080D-01  0.129514D-01  0.676409D+00
     15 -0.119528D-01  0.864366D-01  0.784902D-02 -0.594458D-02  0.755414D+00
     16  0.573574D-01  0.176041D-01  0.122908D-02  0.300860D-02 -0.629874D-01
     17  0.228404D-02 -0.188253D-02 -0.321763D-02 -0.200174D-03  0.146572D-01
     18 -0.114161D-01 -0.871857D-02 -0.739061D-03 -0.375349D-02  0.124263D+00
     19  0.127868D-01  0.234233D-03 -0.193267D-02 -0.235788D-02  0.266052D-01
     20 -0.103084D-01 -0.710547D-02 -0.145574D-02 -0.155034D-02 -0.678948D-01
     21  0.200397D-01  0.517685D-02 -0.759783D-04  0.360922D-03 -0.572187D-01
     22  0.459889D-01  0.374018D-01  0.166123D-01  0.144292D-01  0.290114D+00
     23  0.368119D-01  0.133785D-01 -0.808045D-02  0.498059D-02  0.180271D+00
     24  0.538996D-01  0.316529D-01  0.107557D-01 -0.217562D-02  0.425125D-01
     25  0.134273D-02 -0.300546D-03  0.714054D-03  0.291474D-03  0.251127D-01
     26  0.145388D-01  0.107960D-01  0.114434D-02  0.267399D-02  0.844458D-01
     27 -0.509597D-02 -0.587555D-02 -0.100008D-02 -0.263593D-02 -0.601869D-01
     28 -0.643815D-01  0.868809D-02 -0.913780D-03 -0.770172D-02 -0.389204D+01
     29  0.353127D-01  0.336509D-02 -0.154336D-01 -0.102776D-02 -0.521638D+00
     30  0.160058D+00  0.966731D-02 -0.164375D-02 -0.226503D-01 -0.238588D+01
     31  0.185289D-02  0.101178D-02 -0.353413D-03  0.509246D-02  0.300009D-01
     32 -0.682435D-02 -0.821026D-02 -0.326382D-02 -0.554284D-02  0.176188D-01
     33  0.497797D-02  0.160827D-01  0.856742D-03  0.138449D-01 -0.118369D-01
     34  0.251247D-02  0.213340D-02  0.240936D-02  0.404403D-02  0.597051D-01
     35  0.879205D-02  0.121951D-01  0.155298D-02  0.847941D-02 -0.112367D-01
     36  0.339374D-02  0.113589D-01  0.392701D-02  0.756393D-02 -0.423227D-02
     37 -0.168813D-01 -0.299459D-01 -0.541790D-02 -0.206998D-01  0.856297D-01
     38  0.251892D-02  0.235783D-02 -0.136792D-01  0.133593D-01  0.154144D-02
     39  0.525920D-02  0.578964D-02  0.129246D-01  0.335615D-01  0.310415D-01
               11            12            13            14            15
     11  0.217236D+02
     12 -0.261987D+01  0.940177D+01
     13  0.701461D+00  0.728533D+00  0.121929D+02
     14 -0.584296D+01  0.285568D-01 -0.223357D+01  0.120860D+02
     15  0.562927D-01 -0.579187D+01 -0.118615D+01 -0.206715D+01  0.162848D+02
     16  0.644026D-02  0.168373D+00 -0.328384D+01 -0.366582D+00 -0.116655D+01
     17  0.110959D+00 -0.776728D-02 -0.341119D+00 -0.361678D+01  0.652280D+00
     18  0.369318D-02  0.409451D-01 -0.103425D+01  0.619967D+00 -0.183394D+01
     19 -0.360026D-01 -0.125883D+00 -0.364640D+01 -0.608512D+00  0.581382D+00
     20  0.122611D+00  0.247062D-02 -0.548294D+00 -0.246780D+01 -0.131825D+01
     21 -0.254215D-01 -0.101020D-01  0.489622D+00 -0.121871D+01 -0.271144D+01
     22  0.212380D+00 -0.170715D-01 -0.593058D+01  0.241859D+01  0.913044D+00
     23 -0.209868D+00 -0.379219D-01  0.235017D+01  0.310039D-01  0.258294D+01
     24 -0.450293D-02 -0.122439D+00  0.918667D+00  0.262394D+01 -0.604204D+01
     25  0.294193D-01 -0.316206D-01  0.112547D+00 -0.644339D-01  0.220882D-01
     26 -0.960073D-02 -0.597773D-01  0.235772D-01  0.207978D-01  0.907798D-01
     27 -0.700131D-01 -0.356073D-01  0.118727D-02 -0.731969D-02  0.130102D+00
     28 -0.552705D+00 -0.242697D+01  0.258313D+00  0.314061D-01 -0.148976D+00
     29 -0.528006D+01  0.709359D+00 -0.249875D-01 -0.691593D-01  0.177604D-02
     30  0.752719D+00 -0.177955D+01 -0.130425D+00 -0.232165D-01  0.863215D-02
     31 -0.917993D-02  0.381786D-01  0.138078D-02  0.195432D-01 -0.276229D-01
     32  0.964145D-01 -0.868260D-01  0.355505D-01 -0.355029D-02 -0.345569D-01
     33 -0.587588D-01  0.411864D-01 -0.459554D-01 -0.330779D-01  0.177634D-01
     34  0.441075D-01  0.502725D-01 -0.220182D-01 -0.430094D-02  0.101177D-01
     35  0.134765D+00  0.364063D-01 -0.253059D-01  0.917929D-02  0.211577D-01
     36 -0.278563D-02  0.109478D-01  0.362574D-02  0.389771D-02 -0.635710D-02
     37 -0.430397D-02 -0.242888D-01  0.161321D+00 -0.623320D-03 -0.422759D-01
     38  0.239595D-01  0.498707D-02 -0.113001D-01 -0.407153D-01  0.100121D-02
     39  0.625385D-03  0.420795D-01 -0.406939D-01  0.728726D-03 -0.361146D-01
               16            17            18            19            20
     16  0.296424D+01
     17  0.460264D+00  0.365074D+01
     18  0.120708D+01 -0.732354D+00  0.164439D+01
     19  0.130006D+00 -0.122988D-01  0.162328D-01  0.344156D+01
     20 -0.144946D-01  0.108778D+00  0.814062D-01  0.839079D+00  0.226584D+01
     21  0.299037D-01  0.790198D-01 -0.157023D+00 -0.589721D+00  0.154209D+01
     22  0.721524D-01 -0.109749D+00 -0.130210D+00  0.356018D-01 -0.898042D-01
     23 -0.114188D+00 -0.997083D-01  0.356957D-01 -0.115670D+00 -0.149031D+00
     24 -0.156687D+00  0.154432D-01  0.267364D+00  0.241191D-01 -0.160902D+00
     25  0.262415D-01  0.843263D-02 -0.911815D-03 -0.390461D-01 -0.168535D-01
     26  0.119838D-01 -0.699325D-01 -0.292212D-01 -0.306657D-01  0.166844D+00
     27  0.105323D-01 -0.371911D-01  0.626303D-02  0.103156D-01 -0.810659D-01
     28  0.119156D+00 -0.277121D-01 -0.138085D+00 -0.405196D-01 -0.112369D-01
     29 -0.152294D-01 -0.503851D-01  0.926380D-02  0.406597D-02  0.198443D-02
     30 -0.129623D+00  0.164546D-01  0.438685D-01  0.113176D-02  0.810602D-03
     31 -0.885820D-03 -0.145828D-03 -0.948565D-03  0.350484D-01 -0.858901D-02
     32  0.438094D-02 -0.196131D-02 -0.667382D-02  0.871697D-02 -0.227474D-01
     33 -0.548701D-02  0.766563D-03  0.724480D-02 -0.330377D-01  0.105044D-01
     34  0.876990D-02 -0.826790D-02 -0.151628D-01 -0.573978D-02  0.384595D-02
     35 -0.139132D-01  0.119579D-02  0.162468D-01 -0.229901D-02  0.805948D-02
     36 -0.187673D-01  0.950969D-02  0.146725D-01 -0.238222D-03  0.338095D-02
     37  0.195217D-02 -0.188496D-02 -0.680387D-02  0.100694D-01 -0.993818D-02
     38  0.420538D-03 -0.220280D-03  0.157256D-03 -0.196402D-02 -0.706137D-03
     39  0.371561D-02 -0.347358D-04 -0.953934D-03  0.746452D-03 -0.837411D-03
               21            22            23            24            25
     21  0.270742D+01
     22  0.404986D-02  0.102565D+02
     23 -0.245055D+00 -0.211349D+01  0.368054D+01
     24  0.107321D+00 -0.165906D+01 -0.407395D+00  0.100748D+02
     25  0.640840D-02 -0.542973D+01 -0.791389D+00  0.713368D+00  0.530540D+01
     26 -0.870649D-01 -0.999632D+00 -0.295190D+01 -0.225664D+01  0.788420D+00
     27 -0.683979D-02  0.809072D+00 -0.208076D+01 -0.390562D+01 -0.745698D+00
     28  0.775454D-02  0.360590D+00  0.304024D+00 -0.394735D-01 -0.170225D-01
     29 -0.993367D-03  0.392990D+00 -0.120798D+00 -0.192110D-01 -0.349765D-02
     30  0.314345D-02 -0.179072D-01 -0.230584D-02 -0.296612D+00  0.192330D-03
     31 -0.150568D-01  0.525376D-02  0.226375D-01 -0.160517D-01  0.717003D-03
     32  0.297009D-02  0.528873D-01  0.109961D-01 -0.216022D-01  0.333086D-02
     33 -0.115410D-01 -0.426991D-01 -0.265313D-01 -0.777162D-02 -0.266789D-02
     34  0.286297D-02  0.153482D+00  0.434519D-01 -0.954803D-01 -0.470215D-02
     35 -0.679236D-02 -0.414640D-01 -0.130306D+00  0.111775D-01 -0.205313D-02
     36 -0.253779D-02 -0.157916D+00 -0.157716D-01 -0.809478D-01  0.291104D-02
     37  0.758302D-02  0.630637D-01  0.142974D-01  0.400638D-02  0.942551D-03
     38 -0.838613D-03  0.122766D-01 -0.140860D-01  0.124705D-02  0.100874D-02
     39 -0.113468D-02 -0.260877D-04  0.248410D-03 -0.156846D-01 -0.314886D-03
               26            27            28            29            30
     26  0.279040D+01
     27  0.229367D+01  0.383928D+01
     28  0.144860D-01 -0.211697D-01  0.114638D+02
     29  0.488941D-02 -0.213641D-01  0.394033D-01  0.131143D+02
     30 -0.374496D-02 -0.445987D-02  0.190000D+01 -0.622925D+00  0.104786D+02
     31  0.480365D-02 -0.353593D-02 -0.346109D+01 -0.227981D+00  0.230049D+00
     32  0.102559D-01 -0.103288D-01 -0.320871D+00 -0.231124D+01 -0.115341D+01
     33 -0.110163D-01  0.627197D-02  0.336636D+00 -0.121774D+01 -0.232054D+01
     34  0.104963D-02 -0.977390D-03 -0.352849D+01  0.448674D+00  0.243064D+00
     35 -0.711670D-02  0.729513D-02  0.622285D+00 -0.172834D+01  0.934656D+00
     36 -0.658628D-02  0.591985D-02  0.366567D+00  0.105129D+01 -0.312937D+01
     37  0.109603D-01 -0.865067D-02 -0.115586D+01 -0.604805D-01  0.447350D+00
     38  0.392077D-03 -0.139381D-02 -0.685622D-01 -0.351158D+01 -0.207888D-01
     39 -0.236042D-04 -0.134885D-02  0.306454D+00 -0.141117D-01 -0.348443D+01
               31            32            33            34            35
     31  0.334225D+01
     32  0.165334D+00  0.227544D+01
     33 -0.173376D+00  0.135470D+01  0.205189D+01
     34  0.707889D-01  0.129983D-01  0.886253D-03  0.330451D+01
     35 -0.243623D-01 -0.711389D-01  0.142544D-01 -0.475507D+00  0.170048D+01
     36  0.766244D-02  0.364806D-01  0.796879D-01 -0.175494D+00 -0.114110D+01
     37  0.598269D-02  0.276470D-01 -0.412609D-01 -0.461959D-02 -0.398922D-01
     38  0.557637D-01  0.353552D-01  0.286416D-01 -0.712747D-01  0.313910D-01
     39 -0.528839D-01  0.152081D-01  0.242064D-01 -0.369342D-01 -0.125470D-01
               36            37            38            39
     36  0.301776D+01
     37 -0.380557D-01  0.851658D+00
     38 -0.293142D-01  0.839698D-01  0.350470D+01
     39  0.393927D-01 -0.216109D+00 -0.675286D-02  0.340274D+01
 ReadGW:  IGet=0 IStart=          96 Next=        5853 LGW=        5757.
 ICntrl=12127.
 Symmetry not used in FoFDir.
 MinBra= 0 MaxBra= 2 Meth= 1.
 IRaf=       0 NMat=   1 IRICut=       1 DoRegI=T DoRafI=F ISym2E= 0 JSym2E=0.
 PrsmSu:  NPrtUS=   8 ThrOK=T
 PRISM was handed    16324027 working-precision words and  1636 shell-pairs
 PRISM was handed    16324027 working-precision words and  1636 shell-pairs
 PRISM was handed    16324027 working-precision words and  1636 shell-pairs
 PRISM was handed    16324027 working-precision words and  1636 shell-pairs
 PRISM was handed    16324027 working-precision words and  1636 shell-pairs
 PRISM was handed    16324027 working-precision words and  1636 shell-pairs
 PRISM was handed    16324027 working-precision words and  1636 shell-pairs
 PRISM was handed    16324027 working-precision words and  1636 shell-pairs
 Pruned (  75, 302) grid will be used in CalDFT.
 CkSvGd:  ISavGI=        -1 IRadAn=       4 IRASav=       4 ISavGd=        -1.
 CalDSu:  NPrtUS=   8 ThrOK=T
 IPart= 0 IRanGd=          0 ScrnBf=T ScrnGd=T RCrit=4.00D+00 DoMicB=T.
 IPart= 4 IRanGd=          0 ScrnBf=T ScrnGd=T RCrit=4.00D+00 DoMicB=T.
 IPart= 1 IRanGd=          0 ScrnBf=T ScrnGd=T RCrit=4.00D+00 DoMicB=T.
 IPart= 6 IRanGd=          0 ScrnBf=T ScrnGd=T RCrit=4.00D+00 DoMicB=T.
 IPart= 2 IRanGd=          0 ScrnBf=T ScrnGd=T RCrit=4.00D+00 DoMicB=T.
 IPart= 5 IRanGd=          0 ScrnBf=T ScrnGd=T RCrit=4.00D+00 DoMicB=T.
 CutRad = 1000.00    CtRdIn =    0.00    XCrit =  15.00   ICut = 0
 CutRad = 1000.00    CtRdIn =    0.00    XCrit =  15.00   ICut = 0
 CutRad = 1000.00    CtRdIn =    0.00    XCrit =  15.00   ICut = 0
 CutRad = 1000.00    CtRdIn =    0.00    XCrit =  15.00   ICut = 0
 IPart= 3 IRanGd=          0 ScrnBf=T ScrnGd=T RCrit=4.00D+00 DoMicB=T.
 IPart= 7 IRanGd=          0 ScrnBf=T ScrnGd=T RCrit=4.00D+00 DoMicB=T.
 CutRad = 1000.00    CtRdIn =    0.00    XCrit =  15.00   ICut = 0
 CutRad = 1000.00    CtRdIn =    0.00    XCrit =  15.00   ICut = 0
 CutRad = 1000.00    CtRdIn =    0.00    XCrit =  15.00   ICut = 0
 CutRad = 1000.00    CtRdIn =    0.00    XCrit =  15.00   ICut = 0
 IPart= 0        11624 of        13338 points in      28 batches and       74 microbatches, Max-NSigAt=      13 Max-NSgAt2=      13
 IPart= 3        11013 of        12376 points in      26 batches and       79 microbatches, Max-NSigAt=      13 Max-NSgAt2=      13
 IPart= 4        11016 of        12388 points in      25 batches and       79 microbatches, Max-NSigAt=      13 Max-NSgAt2=      13
 IPart= 2        11661 of        13030 points in      26 batches and       87 microbatches, Max-NSigAt=      13 Max-NSgAt2=      13
 IPart= 7        11799 of        13070 points in      27 batches and       91 microbatches, Max-NSigAt=      13 Max-NSgAt2=      13
 IPart= 6        10902 of        12170 points in      24 batches and       86 microbatches, Max-NSigAt=      13 Max-NSgAt2=      13
 IPart= 5        12058 of        13658 points in      27 batches and       85 microbatches, Max-NSigAt=      13 Max-NSgAt2=      13
 IPart= 1        11945 of        13208 points in      26 batches and       73 microbatches, Max-NSigAt=      13 Max-NSgAt2=      13
 Polarizability after L703:
                1             2             3
      1  0.514926D+02
      2  0.273982D+01  0.398269D+02
      3  0.430918D+01  0.482277D+01  0.582432D+02
 Dipole Derivatives after L703:
               1            2            3            4            5
      1 0.327037D-01-0.404732D-02-0.446031D-01-0.159587D-01 0.717147D-02
      2-0.149595D-01-0.300064D+00 0.545209D-01 0.185288D-01 0.134065D+00
      3-0.713752D-01 0.357711D-01-0.146033D+00 0.114069D+00-0.362988D-01
               6            7            8            9           10
      1 0.596360D-01-0.122935D+00-0.847717D-02 0.128035D-01 0.317309D-01
      2-0.397769D-01-0.208724D-01 0.140277D+00-0.221564D-01-0.442808D-01
      3-0.520609D-01-0.346647D-01-0.214660D-01 0.558267D-01-0.935488D-01
              11           12           13           14           15
      1 0.234997D-01-0.350978D-02 0.476760D+00 0.150685D+00 0.238330D-01
      2-0.224993D+00 0.621307D-01 0.163617D+00 0.735788D+00 0.965238D-01
      3 0.855426D-01 0.285056D+00 0.128706D+00 0.150662D+00 0.331736D+00
              16           17           18           19           20
      1-0.444029D-01 0.784798D-02 0.123063D+00-0.612408D-02 0.106166D-01
      2-0.335540D-03-0.230828D-01-0.982489D-01 0.403571D-02-0.552931D-01
      3 0.632469D-01-0.459908D-01-0.144326D+00-0.682812D-01 0.566771D-01
              21           22           23           24           25
      1-0.873891D-01-0.675158D+00-0.241789D+00 0.285042D-01 0.321275D+00
      2 0.976199D-01-0.202649D+00-0.765587D+00-0.168197D+00 0.808146D-01
      3-0.554450D-01-0.198361D-01-0.237580D+00-0.356073D+00-0.730271D-01
              26           27           28           29           30
      1 0.447969D-01-0.779196D-01 0.117449D-01 0.829602D-02 0.362365D-01
      2 0.248165D+00 0.608919D-01-0.628386D-02 0.126377D+00-0.692090D-01
      3 0.313271D-01 0.159481D+00 0.406226D-01-0.426735D-01-0.530728D-01
              31           32           33           34           35
      1 0.578086D-01 0.285882D-01-0.573114D-02 0.836472D-01-0.251438D-01
      2 0.662220D-01-0.305027D-01 0.730885D-01-0.520671D-01-0.621981D-01
      3-0.695166D-03 0.119808D+00-0.703608D-01 0.202567D-02-0.890219D-01
              36           37           38           39
      1-0.460706D-02-0.151092D+00-0.204483D-02-0.603160D-01
      2-0.443073D-01 0.822983D-02 0.770485D-01-0.288038D-02
      3 0.161469D-01 0.127582D-01-0.675715D-02 0.291246D-01
 Hessian after L703:
                1             2             3             4             5
      1  0.672965D+00
      2  0.359865D-01  0.135497D+00
      3  0.687968D-01  0.141522D+00  0.768963D+00
      4 -0.148179D+00  0.228024D-01  0.130121D+00  0.149678D+00
      5  0.218583D-01 -0.396766D-01 -0.374285D-01 -0.244771D-01  0.311482D-01
      6  0.125443D+00 -0.374226D-01 -0.231589D+00 -0.137770D+00  0.426432D-01
      7 -0.328007D+00 -0.179238D-01 -0.321858D-01 -0.115805D-01 -0.139296D-02
      8 -0.172738D-01 -0.367201D-01 -0.669099D-02  0.445406D-02  0.203768D-02
      9 -0.272352D-01 -0.604914D-02 -0.583971D-01  0.223965D-01  0.163479D-02
     10 -0.181642D+00 -0.372466D-01 -0.153707D+00  0.866942D-02  0.366469D-02
     11 -0.379127D-01 -0.705643D-01 -0.867894D-01 -0.177816D-02  0.269507D-02
     12 -0.155912D+00 -0.876485D-01 -0.443922D+00 -0.105497D-01 -0.580775D-02
     13 -0.166960D-01 -0.338468D-02 -0.103653D-01  0.737055D-03  0.226327D-02
     14 -0.529198D-02  0.473574D-02 -0.420126D-02 -0.712491D-03 -0.744354D-02
     15 -0.320076D-01 -0.351899D-02 -0.469877D-02 -0.234572D-02  0.246048D-02
     16  0.900855D-03  0.636590D-03  0.181696D-02  0.258106D-03 -0.332035D-03
     17 -0.587260D-03 -0.546691D-03 -0.181980D-03 -0.336075D-04  0.339564D-03
     18 -0.176998D-02  0.171919D-03  0.101026D-02  0.144233D-03  0.385117D-03
     19 -0.400621D-02 -0.329858D-04  0.147093D-02 -0.694731D-04  0.954700D-03
     20 -0.106622D-03 -0.506776D-04 -0.475493D-03 -0.122325D-03  0.448364D-03
     21 -0.939570D-03  0.312197D-03  0.763161D-03 -0.116878D-03  0.676101D-03
     22 -0.416237D-02  0.123971D-03  0.227020D-02  0.152953D-03 -0.168496D-02
     23 -0.249129D-02  0.103167D-02  0.272542D-02  0.709204D-03 -0.935067D-03
     24 -0.109335D-02 -0.199420D-03  0.208421D-02  0.164316D-03 -0.106000D-02
     25 -0.657337D-04  0.408529D-03 -0.103665D-02  0.275947D-04 -0.123203D-03
     26  0.277045D-03  0.262650D-03 -0.269487D-03 -0.418266D-04  0.241920D-03
     27 -0.154431D-03  0.344148D-03 -0.516732D-03  0.126569D-03 -0.363708D-03
     28  0.102930D-01 -0.131646D-02 -0.822832D-02 -0.747055D-03 -0.700289D-03
     29  0.404214D-02  0.648684D-02 -0.753004D-02 -0.536579D-03  0.122444D-01
     30  0.167958D-01 -0.745838D-02 -0.324165D-01 -0.171760D-02 -0.280528D-02
     31 -0.908838D-03  0.474666D-03  0.119513D-02  0.291112D-03  0.977529D-03
     32  0.141873D-03 -0.254642D-03 -0.112260D-02 -0.183470D-04 -0.861978D-03
     33  0.345274D-02 -0.351842D-03 -0.104540D-02 -0.477418D-04 -0.237155D-02
     34 -0.172495D-02 -0.583306D-04  0.158774D-02  0.345974D-03 -0.906795D-03
     35  0.110399D-02  0.896998D-04  0.171663D-03 -0.132505D-03 -0.233168D-04
     36  0.364103D-02 -0.147458D-03 -0.168296D-02 -0.156229D-03  0.191014D-02
     37  0.123290D-02 -0.469845D-03 -0.173602D-02  0.415891D-03 -0.101214D-03
     38  0.253766D-03 -0.290369D-03  0.270449D-03 -0.112778D-03 -0.214732D-03
     39  0.983134D-03  0.445872D-03  0.144794D-02 -0.248784D-03  0.126923D-03
                6             7             8             9            10
      6  0.248498D+00
      7 -0.386018D-02  0.348148D+00
      8  0.526403D-03  0.201714D-01  0.257243D-01
      9  0.498525D-02  0.363332D-01  0.832320D-02  0.562918D-01
     10  0.182679D-01 -0.117395D-01 -0.543630D-02 -0.298304D-01  0.550447D+00
     11 -0.447015D-02 -0.490219D-03  0.341266D-02 -0.212840D-02  0.321492D-01
     12 -0.205866D-01  0.123649D-02 -0.225426D-03 -0.676272D-03  0.111163D+00
     13  0.254434D-02  0.165841D-02 -0.294054D-02  0.163491D-02 -0.193679D+00
     14  0.167273D-02 -0.153020D-03  0.124386D-01 -0.279025D-02  0.688427D-02
     15 -0.402587D-03 -0.150289D-02 -0.479143D-02 -0.317464D-02  0.967924D-03
     16 -0.137974D-02  0.543113D-03  0.995498D-04 -0.363216D-03 -0.168988D-01
     17  0.128481D-03 -0.933230D-04 -0.173109D-03  0.109299D-03  0.180054D-02
     18  0.659633D-03  0.337904D-04 -0.162006D-03  0.444469D-03 -0.268835D-02
     19 -0.384382D-03 -0.400985D-03 -0.235488D-02 -0.458159D-03 -0.121440D-01
     20 -0.109385D-03 -0.320164D-05 -0.764835D-03  0.278310D-03  0.322514D-03
     21  0.206778D-03 -0.299711D-03 -0.498314D-03  0.217798D-03 -0.298379D-02
     22 -0.157154D-03 -0.635790D-03  0.312361D-02 -0.183865D-02 -0.126713D-01
     23  0.350217D-03 -0.762773D-03  0.112147D-02 -0.113411D-02 -0.146783D-01
     24  0.830677D-03 -0.642614D-03  0.159036D-02 -0.422471D-03 -0.813448D-02
     25  0.183952D-03  0.201358D-04  0.161736D-03  0.913311D-04  0.190628D-02
     26 -0.143692D-03  0.189475D-03 -0.471303D-03  0.163266D-03 -0.413289D-03
     27 -0.177244D-03  0.380216D-04  0.249954D-03 -0.195511D-03  0.376105D-03
     28 -0.355599D-02  0.836634D-03 -0.505542D-03 -0.173621D-02 -0.125233D+00
     29 -0.325986D-02  0.678698D-03 -0.736173D-02  0.188099D-02  0.900345D-02
     30 -0.106475D-02  0.135151D-02  0.175683D-02  0.104386D-02  0.500839D-01
     31  0.262010D-04  0.168054D-03 -0.678290D-04  0.135861D-03  0.369753D-02
     32 -0.337867D-04 -0.380400D-04  0.399788D-03 -0.156514D-03 -0.179974D-02
     33 -0.311360D-03 -0.260120D-04  0.125808D-02 -0.230360D-03 -0.485671D-02
     34  0.663257D-03  0.158850D-03  0.250797D-03  0.113957D-03  0.690889D-02
     35 -0.155767D-04 -0.227454D-04  0.795195D-04  0.599219D-04  0.305584D-03
     36 -0.142733D-02  0.159813D-03 -0.115421D-02  0.336422D-03 -0.754284D-02
     37 -0.210573D-04  0.830404D-03  0.317750D-03  0.756026D-03 -0.176208D-01
     38  0.134028D-03 -0.159543D-03  0.277117D-03 -0.191359D-03  0.544405D-02
     39  0.378799D-03 -0.635624D-03 -0.182440D-03 -0.223234D-03  0.288842D-01
               11            12            13            14            15
     11  0.220022D+00
     12  0.124303D+00  0.756316D+00
     13  0.108618D-01 -0.401191D-02  0.481006D+00
     14 -0.720233D-01  0.244671D-02 -0.517651D-01  0.475052D+00
     15  0.495861D-02 -0.892410D-01 -0.246494D-01 -0.474585D-01  0.606514D+00
     16  0.470787D-02  0.299814D-01 -0.104257D+00  0.206068D-01  0.971196D-01
     17  0.214820D-02  0.583896D-03  0.219065D-01 -0.571077D-01 -0.301190D-01
     18  0.118559D-02  0.578261D-03  0.100551D+00 -0.328862D-01 -0.234723D+00
     19  0.202023D-01 -0.258206D-01 -0.766746D-01  0.574426D-01 -0.553131D-01
     20  0.408707D-02 -0.372025D-03  0.502432D-01 -0.143152D+00  0.107973D+00
     21  0.657257D-03 -0.301942D-02 -0.532996D-01  0.119221D+00 -0.179585D+00
     22 -0.390731D-01 -0.180862D-01 -0.725836D-01 -0.213938D-01 -0.219985D-01
     23 -0.167900D-01 -0.981817D-02 -0.383741D-01 -0.182851D+00 -0.556070D-01
     24 -0.123024D-01 -0.298375D-02 -0.177831D-01 -0.176616D-01 -0.102462D+00
     25 -0.161693D-02  0.209966D-02  0.158539D-02 -0.125876D-01  0.702086D-02
     26  0.244931D-02  0.713113D-03  0.110968D-01 -0.322105D-01  0.278784D-01
     27 -0.434559D-03  0.124161D-02  0.222849D-02 -0.171470D-01  0.808806D-02
     28  0.106144D-01  0.572839D-01 -0.227860D-01  0.533394D-02  0.288984D-01
     29 -0.782680D-01 -0.178568D-01  0.703312D-03  0.375029D-02  0.816522D-03
     30 -0.177193D-01 -0.163971D+00  0.401461D-02  0.216095D-02  0.479994D-02
     31 -0.141846D-01  0.109642D-01  0.964863D-03 -0.333230D-03  0.373999D-03
     32  0.657687D-02 -0.477671D-02  0.308598D-04 -0.558724D-04  0.388832D-03
     33  0.183246D-01 -0.238464D-01 -0.143276D-02 -0.155137D-03  0.372236D-03
     34  0.167848D-01  0.605658D-02  0.479330D-03  0.116321D-02  0.172556D-04
     35 -0.222338D-02 -0.329015D-02 -0.834516D-03 -0.115782D-02 -0.118868D-02
     36 -0.256627D-01 -0.157944D-01 -0.124559D-02 -0.131984D-02 -0.222224D-03
     37 -0.264537D-03 -0.440472D-02  0.245555D-03  0.806337D-03  0.341922D-02
     38 -0.152174D-02  0.174889D-02  0.193239D-03  0.258722D-04 -0.179193D-02
     39  0.779775D-04  0.590519D-02  0.181378D-02 -0.188190D-02 -0.526573D-02
               16            17            18            19            20
     16  0.112039D+00
     17 -0.198397D-01  0.680551D-01
     18 -0.105053D+00  0.482310D-01  0.254407D+00
     19  0.570753D-02 -0.958377D-02  0.109344D-01  0.808668D-01
     20 -0.177932D-02  0.592763D-02 -0.263514D-02 -0.529139D-01  0.176877D+00
     21 -0.838866D-02  0.168374D-01 -0.180571D-01  0.627329D-01 -0.121809D+00
     22  0.775562D-02  0.732874D-02 -0.499625D-03  0.489761D-02  0.626278D-02
     23 -0.522221D-02 -0.215365D-01 -0.140946D-01 -0.103150D-01 -0.377228D-01
     24 -0.123305D-01 -0.341217D-01 -0.651938D-02  0.698977D-02  0.198043D-01
     25  0.101498D-03  0.484336D-03 -0.782551D-03  0.324102D-03 -0.204893D-02
     26  0.125052D-02  0.151120D-02  0.124277D-03 -0.247922D-02 -0.587901D-02
     27  0.321345D-03 -0.137919D-02  0.689496D-03 -0.571539D-03 -0.251158D-02
     28 -0.558979D-02 -0.926378D-03 -0.524798D-03  0.162334D-02 -0.597665D-04
     29 -0.429021D-03  0.996950D-03 -0.249337D-03 -0.236021D-03  0.694918D-04
     30 -0.309133D-02 -0.330199D-04  0.954872D-03 -0.525435D-03  0.524228D-04
     31  0.216172D-03  0.139743D-03 -0.250823D-03 -0.441772D-03  0.251361D-03
     32 -0.190305D-03  0.112590D-03 -0.465471D-04 -0.310594D-03  0.126594D-03
     33 -0.130518D-03 -0.385229D-03  0.296421D-03  0.906281D-03 -0.173649D-03
     34  0.268530D-03 -0.374574D-03 -0.173039D-03 -0.631885D-04 -0.107178D-03
     35  0.104036D-03  0.466534D-05  0.104207D-03  0.590271D-04 -0.677039D-04
     36 -0.138157D-03  0.183518D-03  0.514871D-04  0.784802D-04  0.177141D-03
     37 -0.104475D-02 -0.221211D-03  0.781385D-04  0.380840D-03  0.613803D-04
     38  0.387184D-03  0.268104D-03 -0.128302D-03 -0.432205D-03  0.101676D-03
     39  0.163572D-02  0.146444D-03  0.207007D-03 -0.394680D-04 -0.198919D-03
               21            22            23            24            25
     21  0.186302D+00
     22  0.348186D-02  0.133294D+00
     23 -0.109064D-01 -0.308394D-01  0.503948D+00
     24  0.110094D-01  0.148103D+00 -0.150490D+00  0.354765D+00
     25 -0.256680D-03 -0.564602D-01  0.102183D+00 -0.115338D+00  0.534284D-01
     26 -0.400538D-02  0.774243D-01 -0.248257D+00  0.192633D+00 -0.870759D-01
     27  0.105982D-02 -0.110111D+00  0.238678D+00 -0.257270D+00  0.107184D+00
     28  0.321488D-03  0.125262D-02  0.576081D-03  0.752443D-03 -0.734576D-03
     29 -0.370925D-03  0.115031D-02  0.435056D-03 -0.452676D-03 -0.432261D-05
     30  0.512015D-03  0.534613D-03 -0.189026D-02 -0.781683D-03  0.147262D-03
     31 -0.196576D-03 -0.283358D-03  0.331800D-03 -0.194677D-03  0.156848D-03
     32  0.659251D-04 -0.712331D-03  0.132635D-03 -0.974178D-05  0.268620D-03
     33  0.482165D-03  0.114254D-03  0.175189D-04  0.845505D-04 -0.133609D-03
     34  0.114867D-04 -0.636311D-03 -0.105163D-02 -0.479148D-03 -0.291463D-03
     35 -0.147928D-04 -0.115574D-02  0.630910D-03  0.143642D-02 -0.171509D-03
     36  0.777889D-04 -0.109707D-02  0.180470D-02  0.103093D-02  0.745358D-03
     37 -0.662406D-04  0.800756D-04 -0.656695D-04 -0.136529D-04  0.174307D-05
     38 -0.165616D-03 -0.554416D-03  0.792924D-03  0.834064D-03  0.121847D-03
     39  0.301549D-04 -0.714823D-03  0.364752D-03  0.634460D-03  0.743269D-04
               26            27            28            29            30
     26  0.282416D+00
     27 -0.217391D+00  0.247697D+00
     28 -0.981451D-04  0.284546D-03  0.565776D+00
     29 -0.119448D-03  0.156216D-03  0.927032D-02  0.526875D+00
     30  0.281638D-03  0.853284D-04  0.431509D-01 -0.286452D-02  0.492715D+00
     31  0.617828D-04 -0.496249D-04 -0.568599D-01  0.335038D-01 -0.296483D-01
     32 -0.839740D-05 -0.227583D-03  0.345137D-01 -0.175210D+00  0.122994D+00
     33 -0.110495D-03 -0.864649D-04 -0.317235D-01  0.124592D+00 -0.156016D+00
     34 -0.312553D-03  0.369267D-03 -0.669276D-01 -0.604300D-01 -0.288979D-01
     35  0.239828D-04  0.109885D-03 -0.596716D-01 -0.242830D+00 -0.945796D-01
     36  0.149390D-03 -0.603907D-03 -0.293432D-01 -0.952523D-01 -0.874386D-01
     37  0.120934D-03 -0.416568D-04 -0.300903D+00  0.328390D-02 -0.521981D-01
     38  0.400991D-04 -0.843004D-04  0.296982D-02 -0.470695D-01  0.104256D-03
     39 -0.230669D-04 -0.117982D-04 -0.555797D-01  0.390269D-03 -0.584229D-01
               31            32            33            34            35
     31  0.560078D-01
     32 -0.381185D-01  0.190514D+00
     33  0.321660D-01 -0.135230D+00  0.175061D+00
     34  0.132442D-02  0.611760D-02  0.279854D-02  0.668167D-01
     35 -0.639300D-02 -0.215831D-01 -0.924331D-02  0.665665D-01  0.264701D+00
     36  0.602188D-02  0.196385D-01  0.957739D-02  0.301271D-01  0.104490D+00
     37 -0.433289D-02  0.115290D-03 -0.108692D-02 -0.665920D-02  0.242431D-03
     38  0.233564D-01  0.111950D-03  0.382831D-02 -0.276419D-01  0.235527D-02
     39 -0.205432D-01 -0.148441D-02 -0.433787D-02 -0.121951D-01  0.196046D-02
               36            37            38            39
     36  0.995772D-01
     37 -0.125053D-02  0.327374D+00
     38 -0.481652D-02 -0.382554D-02  0.451233D-01
     39 -0.348178D-02  0.565655D-01  0.258036D-03  0.631397D-01
 FrcOut:
 IF    =   896 IFX   =   935 IFXYZ =   974
 IFFX  =  1013 IFFFX =  1793 IFLen =    39
 IFFLen=   780 IFFFLn=     0 IEDerv=  1793
 LEDerv=  1925 IFroze=  3722 ICStrt= 42225
 DipoleDeriv   = 3.27036685D-02-1.49594749D-02-7.13751734D-02
                -4.04732065D-03-3.00064185D-01 3.57711175D-02
                -4.46030698D-02 5.45209361D-02-1.46032620D-01
                -1.59587415D-02 1.85287810D-02 1.14068567D-01
                 7.17147236D-03 1.34065324D-01-3.62987858D-02
                 5.96360030D-02-3.97769221D-02-5.20608597D-02
                -1.22935051D-01-2.08724022D-02-3.46646913D-02
                -8.47717257D-03 1.40276507D-01-2.14659574D-02
                 1.28034788D-02-2.21564184D-02 5.58267383D-02
                 3.17308827D-02-4.42807623D-02-9.35488422D-02
                 2.34996817D-02-2.24993050D-01 8.55426422D-02
                -3.50977655D-03 6.21307402D-02 2.85055944D-01
                 4.76759892D-01 1.63617200D-01 1.28706293D-01
                 1.50685287D-01 7.35787999D-01 1.50662350D-01
                 2.38330328D-02 9.65237765D-02 3.31735860D-01
                -4.44029018D-02-3.35539822D-04 6.32468859D-02
                 7.84798495D-03-2.30828214D-02-4.59907863D-02
                 1.23062630D-01-9.82488547D-02-1.44325795D-01
                -6.12407961D-03 4.03571137D-03-6.82812118D-02
                 1.06165806D-02-5.52930905D-02 5.66770869D-02
                -8.73891034D-02 9.76199434D-02-5.54450019D-02
                -6.75157938D-01-2.02648932D-01-1.98360599D-02
                -2.41789045D-01-7.65587244D-01-2.37580107D-01
                 2.85041696D-02-1.68196877D-01-3.56073334D-01
                 3.21275383D-01 8.08145687D-02-7.30271088D-02
                 4.47969462D-02 2.48165468D-01 3.13270563D-02
                -7.79196113D-02 6.08919237D-02 1.59481037D-01
                 1.17448787D-02-6.28385717D-03 4.06226111D-02
                 8.29602470D-03 1.26377397D-01-4.26734511D-02
                 3.62364737D-02-6.92090477D-02-5.30727805D-02
                 5.78085748D-02 6.62220171D-02-6.95166233D-04
                 2.85881579D-02-3.05027416D-02 1.19807856D-01
                -5.73113868D-03 7.30885043D-02-7.03607684D-02
                 8.36471896D-02-5.20671352D-02 2.02567115D-03
                -2.51437709D-02-6.21980558D-02-8.90218686D-02
                -4.60706466D-03-4.43073285D-02 1.61469373D-02
                -1.51091757D-01 8.22982523D-03 1.27582248D-02
                -2.04482615D-03 7.70484948D-02-6.75715291D-03
                -6.03160241D-02-2.88037559D-03 2.91246441D-02
 Full mass-weighted force constant matrix:
 Low frequencies ---  -22.4026  -14.0263   -0.0006   -0.0003    0.0004    9.7454
 Low frequencies ---   97.2794  177.7933  253.2453
 Dipole derivatives wrt mode   1: -4.60721D-01 -1.71789D+00  1.35159D-01
 Vibrational polarizability contributions from mode   1       0.6039057       8.3962406       0.0519734
 Vibrational hyperpolarizability contributions from mode   1       0.0000000       0.0000000       0.0000000
 Dipole derivatives wrt mode   2:  1.30535D-01 -1.45546D-01  1.35874D-01
 Vibrational polarizability contributions from mode   2       0.0145148       0.0180448       0.0157265
 Vibrational hyperpolarizability contributions from mode   2       0.0000000       0.0000000       0.0000000
 Dipole derivatives wrt mode   3: -5.52737D-01 -1.10329D-02 -1.08300D-01
 Vibrational polarizability contributions from mode   3       0.1282044       0.0000511       0.0049218
 Vibrational hyperpolarizability contributions from mode   3       0.0000000       0.0000000       0.0000000
 Dipole derivatives wrt mode   4:  7.82567D+00 -1.53604D-01 -3.38212D+00
 Vibrational polarizability contributions from mode   4      13.6611424       0.0052632       2.5516632
 Vibrational hyperpolarizability contributions from mode   4       0.0000000       0.0000000       0.0000000
 Dipole derivatives wrt mode   5: -3.83922D+00 -5.14966D-01  2.26520D+00
 Vibrational polarizability contributions from mode   5       2.2692201       0.0408270       0.7899553
 Vibrational hyperpolarizability contributions from mode   5       0.0000000       0.0000000       0.0000000
 Dipole derivatives wrt mode   6:  6.02312D+00  1.86471D+00 -2.63896D+00
 Vibrational polarizability contributions from mode   6       5.1985527       0.4982685       0.9979397
 Vibrational hyperpolarizability contributions from mode   6       0.0000000       0.0000000       0.0000000
 Dipole derivatives wrt mode   7:  2.22682D+00 -2.43667D+00 -2.47413D-03
 Vibrational polarizability contributions from mode   7       0.4200200       0.5029161       0.0000005
 Vibrational hyperpolarizability contributions from mode   7       0.0000000       0.0000000       0.0000000
 Dipole derivatives wrt mode   8:  1.63362D-01  6.07632D-01  4.74477D-01
 Vibrational polarizability contributions from mode   8       0.0013634       0.0188624       0.0115013
 Vibrational hyperpolarizability contributions from mode   8       0.0000000       0.0000000       0.0000000
 Dipole derivatives wrt mode   9:  1.43711D+00 -1.60064D+00 -5.47513D-01
 Vibrational polarizability contributions from mode   9       0.0814481       0.1010384       0.0118219
 Vibrational hyperpolarizability contributions from mode   9       0.0000000       0.0000000       0.0000000
 Dipole derivatives wrt mode  10:  1.86479D-01 -7.05338D+00  1.23230D+00
 Vibrational polarizability contributions from mode  10       0.0010727       1.5347047       0.0468449
 Vibrational hyperpolarizability contributions from mode  10       0.0000000       0.0000000       0.0000000
 Dipole derivatives wrt mode  11:  1.73191D-01 -3.01592D+00 -4.47771D-01
 Vibrational polarizability contributions from mode  11       0.0008901       0.2699237       0.0059499
 Vibrational hyperpolarizability contributions from mode  11       0.0000000       0.0000000       0.0000000
 Dipole derivatives wrt mode  12: -6.16329D-02  7.08892D-01  6.79139D-02
 Vibrational polarizability contributions from mode  12       0.0001071       0.0141699       0.0001301
 Vibrational hyperpolarizability contributions from mode  12       0.0000000       0.0000000       0.0000000
 Dipole derivatives wrt mode  13:  4.78792D+00  8.10223D+00  3.73667D+00
 Vibrational polarizability contributions from mode  13       0.5776949       1.6542958       0.3518641
 Vibrational hyperpolarizability contributions from mode  13       0.0000000       0.0000000       0.0000000
 Dipole derivatives wrt mode  14: -6.26921D-02 -2.66555D+00 -7.99558D-01
 Vibrational polarizability contributions from mode  14       0.0000946       0.1711031       0.0153951
 Vibrational hyperpolarizability contributions from mode  14       0.0000000       0.0000000       0.0000000
 Dipole derivatives wrt mode  15: -2.42184D-02 -3.08054D-03 -2.90896D-01
 Vibrational polarizability contributions from mode  15       0.0000137       0.0000002       0.0019805
 Vibrational hyperpolarizability contributions from mode  15       0.0000000       0.0000000       0.0000000
 Dipole derivatives wrt mode  16:  1.76388D+00  3.52385D+00  1.27860D+00
 Vibrational polarizability contributions from mode  16       0.0575873       0.2298385       0.0302590
 Vibrational hyperpolarizability contributions from mode  16       0.0000000       0.0000000       0.0000000
 Dipole derivatives wrt mode  17:  2.47700D-01  7.40682D-01 -8.00815D-01
 Vibrational polarizability contributions from mode  17       0.0009747       0.0087152       0.0101878
 Vibrational hyperpolarizability contributions from mode  17       0.0000000       0.0000000       0.0000000
 Dipole derivatives wrt mode  18:  8.47513D-01  8.06327D-01  3.98325D-01
 Vibrational polarizability contributions from mode  18       0.0104256       0.0094369       0.0023029
 Vibrational hyperpolarizability contributions from mode  18       0.0000000       0.0000000       0.0000000
 Dipole derivatives wrt mode  19:  8.74239D-01 -1.50832D+00 -2.56500D+00
 Vibrational polarizability contributions from mode  19       0.0104124       0.0309940       0.0896329
 Vibrational hyperpolarizability contributions from mode  19       0.0000000       0.0000000       0.0000000
 Dipole derivatives wrt mode  20: -3.79848D+00 -4.60636D+00 -2.39525D+00
 Vibrational polarizability contributions from mode  20       0.1938090       0.2850164       0.0770645
 Vibrational hyperpolarizability contributions from mode  20       0.0000000       0.0000000       0.0000000
 Dipole derivatives wrt mode  21:  1.21671D+00  1.01904D+00  8.92932D-01
 Vibrational polarizability contributions from mode  21       0.0189659       0.0133040       0.0102150
 Vibrational hyperpolarizability contributions from mode  21       0.0000000       0.0000000       0.0000000
 Dipole derivatives wrt mode  22: -4.22088D-01 -3.13191D+00 -6.27697D-02
 Vibrational polarizability contributions from mode  22       0.0022053       0.1214174       0.0000488
 Vibrational hyperpolarizability contributions from mode  22       0.0000000       0.0000000       0.0000000
 Dipole derivatives wrt mode  23:  3.20755D+00 -6.21665D-02  1.92677D+00
 Vibrational polarizability contributions from mode  23       0.1235611       0.0000464       0.0445855
 Vibrational hyperpolarizability contributions from mode  23       0.0000000       0.0000000       0.0000000
 Dipole derivatives wrt mode  24:  5.13662D-01  1.29900D+00  1.62589D+00
 Vibrational polarizability contributions from mode  24       0.0031336       0.0200401       0.0313953
 Vibrational hyperpolarizability contributions from mode  24       0.0000000       0.0000000       0.0000000
 Dipole derivatives wrt mode  25:  5.13919D-01  2.20736D-01  3.26762D+00
 Vibrational polarizability contributions from mode  25       0.0024218       0.0004468       0.0979071
 Vibrational hyperpolarizability contributions from mode  25       0.0000000       0.0000000       0.0000000
 Dipole derivatives wrt mode  26:  5.01781D+00 -4.18590D+00 -4.14097D+00
 Vibrational polarizability contributions from mode  26       0.0752351       0.0523564       0.0512384
 Vibrational hyperpolarizability contributions from mode  26       0.0000000       0.0000000       0.0000000
 Dipole derivatives wrt mode  27: -1.13011D+00 -1.26257D+00  4.00183D+00
 Vibrational polarizability contributions from mode  27       0.0037741       0.0047107       0.0473250
 Vibrational hyperpolarizability contributions from mode  27       0.0000000       0.0000000       0.0000000
 Dipole derivatives wrt mode  28:  4.82159D-01 -2.49263D+00  5.16461D+00
 Vibrational polarizability contributions from mode  28       0.0006683       0.0178603       0.0766743
 Vibrational hyperpolarizability contributions from mode  28       0.0000000       0.0000000       0.0000000
 Dipole derivatives wrt mode  29: -1.83193D+00  3.94908D+00 -7.46123D-01
 Vibrational polarizability contributions from mode  29       0.0095630       0.0444395       0.0015863
 Vibrational hyperpolarizability contributions from mode  29       0.0000000       0.0000000       0.0000000
 Dipole derivatives wrt mode  30:  4.11397D+00  6.68825D-01  1.17014D+00
 Vibrational polarizability contributions from mode  30       0.0470611       0.0012438       0.0038073
 Vibrational hyperpolarizability contributions from mode  30       0.0000000       0.0000000       0.0000000
 Dipole derivatives wrt mode  31: -1.34547D+00 -8.96999D-01 -2.82054D+00
 Vibrational polarizability contributions from mode  31       0.0049911       0.0022183       0.0219336
 Vibrational hyperpolarizability contributions from mode  31       0.0000000       0.0000000       0.0000000
 Dipole derivatives wrt mode  32: -4.02426D+00  2.28863D-01  1.77115D+00
 Vibrational polarizability contributions from mode  32       0.0424661       0.0001373       0.0082258
 Vibrational hyperpolarizability contributions from mode  32       0.0000000       0.0000000       0.0000000
 Dipole derivatives wrt mode  33:  1.95818D-01 -3.94015D+00  1.98829D+00
 Vibrational polarizability contributions from mode  33       0.0000709       0.0287047       0.0073095
 Vibrational hyperpolarizability contributions from mode  33       0.0000000       0.0000000       0.0000000
 Diagonal vibrational polarizability:
       23.5655712      14.0966362       5.4693673
 Harmonic frequencies (cm**-1), IR intensities (KM/Mole), Raman scattering
 activities (A**4/AMU), depolarization ratios for plane and unpolarized
 incident light, reduced masses (AMU), force constants (mDyne/A),
 and normal coordinates:
                           1         2         3         4         5
                           A         A         A         A         A
       Frequencies ---    97.2568  177.7416  253.2410  347.3316  418.0914
    Reduced masses ---     2.4473    1.0773    3.3200    1.3592    2.0455
   Force constants ---     0.0136    0.0201    0.1254    0.0966    0.2107
    IR Intensities ---     3.1817    0.0567    0.3174   72.7034   20.1359
 Coord Atom Element:
   1     1     6          0.06787  -0.00747  -0.01340  -0.05471   0.13427
   2     1     6          0.15518  -0.05611  -0.09351  -0.03038  -0.04410
   3     1     6         -0.00870   0.00534   0.04802  -0.04555  -0.09671
   1     2     1          0.11984  -0.01549   0.01618  -0.08333   0.41716
   2     2     1          0.19944  -0.10016  -0.04558  -0.04703  -0.02328
   3     2     1          0.01915   0.00792   0.06000  -0.06344   0.09577
   1     3     1          0.07152  -0.00871   0.00104  -0.05824   0.18470
   2     3     1          0.27049  -0.06614  -0.33185  -0.06698  -0.20723
   3     3     1         -0.09901   0.01944   0.05519  -0.00191  -0.40576
   1     4     6          0.00535   0.00170  -0.06577  -0.02649  -0.11266
   2     4     6         -0.02936   0.00599   0.12705   0.03586   0.10609
   3     4     6          0.06129  -0.01300   0.02512  -0.07161  -0.01403
   1     5     6         -0.00261   0.00257  -0.03792  -0.03936  -0.13393
   2     5     6         -0.07339   0.02120   0.12432   0.01439   0.01007
   3     5     6          0.14471  -0.02135  -0.02106   0.05375  -0.00287
   1     6     1          0.05218  -0.00013  -0.14262   0.09396  -0.15588
   2     6     1         -0.34570   0.06358   0.06933  -0.08329  -0.06064
   3     6     1          0.24273  -0.03317  -0.06283   0.15068   0.00341
   1     7     1         -0.07644   0.02070  -0.07813  -0.19783  -0.21478
   2     7     1          0.12636   0.00095   0.04494   0.04830  -0.01895
   3     7     1          0.36773  -0.04861  -0.07665   0.15919   0.00878
   1     8     8         -0.00561  -0.01508   0.27446  -0.03625   0.01749
   2     8     8          0.06084   0.01049   0.01846   0.02309  -0.04246
   3     8     8         -0.19007   0.02277  -0.02080   0.04814  -0.03310
   1     9     1         -0.00644  -0.04685   0.47863   0.76478  -0.29702
   2     9     1         -0.11938   0.03302   0.10000  -0.06610   0.02489
   3     9     1         -0.37431   0.05925  -0.02425  -0.38649   0.17051
   1    10     6         -0.05763   0.02108  -0.20630   0.08970   0.05724
   2    10     6         -0.11073   0.01879  -0.11905  -0.02184   0.01514
   3    10     6          0.03585  -0.00139  -0.01366   0.00334   0.12251
   1    11     1         -0.24275  -0.39900  -0.23075   0.20863   0.29130
   2    11     1         -0.26877  -0.29886  -0.23627  -0.05723  -0.04143
   3    11     1         -0.08153  -0.22251  -0.12952  -0.06299   0.00302
   1    12     1          0.05639   0.43365  -0.36702   0.15429   0.14920
   2    12     1         -0.22792  -0.24925  -0.16928  -0.04171  -0.02376
   3    12     1          0.20789   0.28835   0.19398   0.00203   0.14620
   1    13     1         -0.03968   0.04219  -0.18268   0.06057   0.00345
   2    13     1          0.09399   0.57104  -0.18643  -0.02900  -0.01399
   3    13     1         -0.04225  -0.06989  -0.14309   0.15411   0.39733
                           6         7         8         9        10
                           A         A         A         A         A
       Frequencies ---   433.3583  563.6581  725.7854  826.0692  934.0097
    Reduced masses ---     1.6175    2.7130    1.1817    2.9644    1.3260
   Force constants ---     0.1790    0.5078    0.3668    1.1919    0.6815
    IR Intensities ---    46.7193   10.8961    0.6210    4.9271   51.3035
 Coord Atom Element:
   1     1     6          0.11063   0.06187   0.02690  -0.05696  -0.01399
   2     1     6          0.03180  -0.00915   0.01246  -0.03361   0.15898
   3     1     6          0.01794   0.11251   0.05008  -0.14291  -0.03253
   1     2     1          0.26027   0.01289  -0.02995  -0.10623   0.04060
   2     2     1          0.14474  -0.44468   0.63649   0.24263  -0.64751
   3     2     1          0.10028   0.16170  -0.10374  -0.23796   0.15460
   1     3     1          0.13667   0.04757   0.04580  -0.04459   0.02193
   2     3     1          0.01371   0.11667  -0.63077  -0.40706  -0.69384
   3     3     1         -0.17149   0.17425   0.24423  -0.09863   0.12263
   1     4     6         -0.01666   0.10047   0.04336  -0.00635  -0.01035
   2     4     6         -0.07309   0.28206   0.04487   0.05260  -0.03165
   3     4     6          0.09308   0.00215   0.01156  -0.09779   0.01115
   1     5     6         -0.00599   0.04611  -0.04063   0.25047   0.00814
   2     5     6          0.00833  -0.07051   0.00863  -0.06748  -0.01392
   3     5     6         -0.10579  -0.05760  -0.00598  -0.03502   0.02128
   1     6     1         -0.17696   0.04475   0.00591   0.45718  -0.04307
   2     6     1          0.21429  -0.06222  -0.09987  -0.09494   0.05861
   3     6     1         -0.24603  -0.06333   0.04318   0.07310  -0.02339
   1     7     1          0.23336  -0.02049  -0.18624   0.11718   0.07823
   2     7     1         -0.07838  -0.11740  -0.01566  -0.02969  -0.04148
   3     7     1         -0.29883  -0.06993   0.04236   0.06137  -0.03827
   1     8     8         -0.07399  -0.14552  -0.03245  -0.02706   0.00383
   2     8     8         -0.02464  -0.07809  -0.04411   0.01476   0.00820
   3     8     8         -0.00043  -0.02640  -0.01741   0.01583   0.00077
   1     9     1          0.57994   0.01174  -0.03189  -0.05867  -0.02205
   2     9     1         -0.05588  -0.15275  -0.03431  -0.10329  -0.04449
   3     9     1         -0.31184  -0.16763  -0.00558  -0.09007  -0.04263
   1    10     6         -0.05746  -0.00234   0.02942  -0.14049  -0.00035
   2    10     6          0.02597   0.00549  -0.00895   0.05009  -0.01349
   3    10     6          0.06360  -0.01763  -0.03463   0.22007  -0.01325
   1    11     1         -0.17438   0.08761  -0.08132  -0.15142   0.01172
   2    11     1          0.08088  -0.22810   0.05833   0.03322   0.02198
   3    11     1          0.15042  -0.28185   0.06142   0.20287   0.02036
   1    12     1         -0.00524  -0.35171   0.03642  -0.18585   0.05454
   2    12     1          0.05281  -0.08372   0.02907   0.05065  -0.00192
   3    12     1         -0.02409   0.36739  -0.11215   0.24683  -0.06775
   1    13     1         -0.04265   0.02313   0.05316  -0.15382  -0.00573
   2    13     1          0.10218  -0.26367   0.07805   0.05515   0.02880
   3    13     1         -0.01110  -0.17122  -0.14387   0.25369   0.02112
                          11        12        13        14        15
                           A         A         A         A         A
       Frequencies ---   952.2840  976.9305 1033.3902 1057.1213 1072.3028
    Reduced masses ---     1.4945    1.4714    3.0028    1.8898    1.5444
   Force constants ---     0.7985    0.8274    1.8893    1.2443    1.0463
    IR Intensities ---     9.3263    0.5109  102.5330    7.7484    0.0852
 Coord Atom Element:
   1     1     6         -0.02304   0.12033  -0.01873   0.05228  -0.02928
   2     1     6         -0.02936  -0.00598   0.01644   0.00524  -0.02868
   3     1     6          0.01773  -0.06767   0.05834   0.07128  -0.02218
   1     2     1          0.02079  -0.44747   0.10853   0.01472   0.01722
   2     2     1          0.28656  -0.14470  -0.03568  -0.09376  -0.13615
   3     2     1         -0.01037  -0.43247   0.15711   0.07092   0.02596
   1     3     1         -0.01176   0.02182  -0.00327   0.03770  -0.02752
   2     3     1         -0.09867   0.14162   0.05431   0.12779   0.14602
   3     3     1         -0.03363   0.59969  -0.06904   0.16271  -0.14253
   1     4     6         -0.06372   0.06526  -0.03166  -0.01344  -0.00270
   2     4     6          0.05518  -0.00944  -0.00786   0.07666   0.11782
   3     4     6          0.01675  -0.03268   0.01936   0.00472  -0.03221
   1     5     6          0.05787  -0.07080   0.15084   0.01221   0.01661
   2     5     6         -0.07924   0.03882   0.24988  -0.11917   0.04483
   3     5     6          0.11367   0.05092   0.04388  -0.13481   0.08454
   1     6     1         -0.25576  -0.20969   0.24011   0.14253  -0.05555
   2     6     1          0.28163   0.13300  -0.01014  -0.30988   0.26626
   3     6     1         -0.14160  -0.04733   0.13397  -0.00866  -0.01294
   1     7     1          0.43501   0.05262   0.08136  -0.20250   0.03995
   2     7     1         -0.24177  -0.04464   0.33737   0.01001  -0.14881
   3     7     1         -0.22297  -0.08488   0.17802   0.08103  -0.11391
   1     8     8          0.01195  -0.00260  -0.06832   0.00820  -0.00340
   2     8     8          0.04047  -0.03032  -0.20819   0.08736  -0.03529
   3     8     8          0.00249  -0.02098  -0.07808   0.04626  -0.02140
   1     9     1         -0.12589   0.00007   0.09973   0.02168  -0.10977
   2     9     1         -0.23887  -0.03458   0.10479   0.11832  -0.19952
   3     9     1         -0.22538  -0.02485   0.18411   0.06575  -0.14256
   1    10     6         -0.02501  -0.06423  -0.08777  -0.09348   0.04362
   2    10     6          0.01029   0.00632  -0.02513  -0.09922  -0.12630
   3    10     6         -0.09728   0.05018  -0.08246  -0.04237   0.04576
   1    11     1          0.29655   0.05535   0.27795   0.11074  -0.32690
   2    11     1         -0.05121   0.03086   0.04445   0.17869   0.22305
   3    11     1         -0.23988   0.04596  -0.09898   0.18892   0.49053
   1    12     1          0.18748   0.07095   0.31935   0.41367   0.07424
   2    12     1         -0.07515  -0.01190  -0.08695  -0.03974   0.09861
   3    12     1         -0.04815   0.00956  -0.18732  -0.45599  -0.40999
   1    13     1         -0.09429  -0.10433  -0.19060  -0.16342   0.10590
   2    13     1          0.00865   0.05768   0.11774   0.24727   0.21923
   3    13     1          0.27684   0.25824   0.47560   0.36583  -0.25888
                          16        17        18        19        20
                           A         A         A         A         A
       Frequencies ---  1205.7921 1301.5458 1361.6424 1405.4668 1415.4338
    Reduced masses ---     1.1361    2.7529    1.2234    1.2893    1.2072
   Force constants ---     0.9732    2.7476    1.3364    1.5005    1.4250
    IR Intensities ---    17.1636    1.2513    1.5271    9.6186   41.3842
 Coord Atom Element:
   1     1     6         -0.00364  -0.11647   0.00741  -0.01351  -0.00534
   2     1     6         -0.01132   0.00323   0.00195   0.00118  -0.00146
   3     1     6         -0.03877   0.04051   0.01475   0.00899   0.00037
   1     2     1         -0.08623   0.27154   0.10768  -0.09696   0.14862
   2     2     1          0.00096   0.06824   0.04618  -0.01652   0.03778
   3     2     1         -0.10199   0.28023   0.08638  -0.05547   0.10758
   1     3     1         -0.00870  -0.03859  -0.00425   0.01063  -0.01813
   2     3     1         -0.05904  -0.08280  -0.00129  -0.03912   0.02080
   3     3     1         -0.01270  -0.41597   0.14965  -0.20148   0.15251
   1     4     6         -0.03097   0.32076  -0.01619   0.05863   0.00966
   2     4     6          0.05652  -0.01510   0.01321   0.00410   0.00654
   3     4     6          0.01415  -0.13775  -0.03125   0.00077  -0.03434
   1     5     6          0.01681  -0.09917  -0.06832  -0.03111  -0.09086
   2     5     6         -0.04822  -0.02183  -0.08700   0.00854   0.00320
   3     5     6          0.02378   0.05700   0.02928  -0.01146  -0.05849
   1     6     1         -0.36178  -0.37836   0.54156   0.00089   0.19398
   2     6     1         -0.32165   0.00283   0.55762  -0.01160   0.01761
   3     6     1         -0.11421  -0.09595   0.20360   0.01040   0.08143
   1     7     1          0.52328   0.04689   0.20205   0.08736   0.48072
   2     7     1          0.32583  -0.05058  -0.02314   0.11736   0.53998
   3     7     1          0.14797  -0.04327  -0.02637   0.03890   0.18433
   1     8     8         -0.02574  -0.00556  -0.00371   0.00732   0.02995
   2     8     8         -0.00862   0.00828  -0.00615  -0.00732  -0.01951
   3     8     8         -0.00921  -0.01591  -0.05678   0.01097   0.04760
   1     9     1          0.20916   0.10504   0.18575  -0.05626  -0.18844
   2     9     1          0.38896   0.18887   0.37238  -0.10716  -0.41409
   3     9     1          0.30497   0.12474   0.26282  -0.06857  -0.27654
[...]
     33 -0.109064D-01 -0.400538D-02 -0.370925D-03  0.659251D-04 -0.147928D-04
     34 -0.150490D+00  0.192633D+00 -0.452676D-03 -0.974178D-05  0.143642D-02
     35  0.238678D+00 -0.217391D+00  0.156216D-03 -0.227583D-03  0.109885D-03
     36 -0.189026D-02  0.281638D-03 -0.286452D-02  0.122994D+00 -0.945796D-01
     37  0.175189D-04 -0.110495D-03  0.124592D+00 -0.135230D+00 -0.924331D-02
     38  0.180470D-02  0.149390D-03 -0.952523D-01  0.196385D-01  0.104490D+00
     39  0.364752D-03 -0.230669D-04  0.390269D-03 -0.148441D-02  0.196046D-02
               26            27            28            29            30
     26  0.451233D-01
     27  0.270449D-03  0.768963D+00
     28  0.134028D-03 -0.231589D+00  0.248498D+00
     29 -0.191359D-03 -0.583971D-01  0.498525D-02  0.562918D-01
     30  0.174889D-02 -0.443922D+00 -0.205866D-01 -0.676272D-03  0.756316D+00
     31 -0.179193D-02 -0.469877D-02 -0.402587D-03 -0.317464D-02 -0.892410D-01
     32 -0.128302D-03  0.101026D-02  0.659633D-03  0.444469D-03  0.578261D-03
     33 -0.165616D-03  0.763161D-03  0.206778D-03  0.217798D-03 -0.301942D-02
     34  0.834064D-03  0.208421D-02  0.830677D-03 -0.422471D-03 -0.298375D-02
     35 -0.843004D-04 -0.516732D-03 -0.177244D-03 -0.195511D-03  0.124161D-02
     36  0.104256D-03 -0.324165D-01 -0.106475D-02  0.104386D-02 -0.163971D+00
     37  0.382831D-02 -0.104540D-02 -0.311360D-03 -0.230360D-03 -0.238464D-01
     38 -0.481652D-02 -0.168296D-02 -0.142733D-02  0.336422D-03 -0.157944D-01
     39  0.258036D-03  0.144794D-02  0.378799D-03 -0.223234D-03  0.590519D-02
               31            32            33            34            35
     31  0.606514D+00
     32 -0.234723D+00  0.254407D+00
     33 -0.179585D+00 -0.180571D-01  0.186302D+00
     34 -0.102462D+00 -0.651938D-02  0.110094D-01  0.354765D+00
     35  0.808806D-02  0.689496D-03  0.105982D-02 -0.257270D+00  0.247697D+00
     36  0.479994D-02  0.954872D-03  0.512015D-03 -0.781683D-03  0.853284D-04
     37  0.372236D-03  0.296421D-03  0.482165D-03  0.845505D-04 -0.864649D-04
     38 -0.222224D-03  0.514871D-04  0.777889D-04  0.103093D-02 -0.603907D-03
     39 -0.526573D-02  0.207007D-03  0.301549D-04  0.634460D-03 -0.117982D-04
               36            37            38            39
     36  0.492715D+00
     37 -0.156016D+00  0.175061D+00
     38 -0.874386D-01  0.957739D-02  0.995772D-01
     39 -0.584229D-01 -0.433787D-02 -0.348178D-02  0.631397D-01
 Final forces over variables, Energy=-2.32505431D+02:
 -1.13840660D-06-2.83552380D-06-3.16526076D-06 1.53810932D-06
 -2.62407200D-07-1.20156888D-06-6.86538322D-07-1.08572052D-06
  4.05231303D-06 1.39101512D-06 9.66660330D-07 2.02080671D-06
  4.06521445D-07 3.74953227D-07-5.00976408D-07 9.69549429D-07
  3.88816999D-08-3.29186250D-06-1.35934818D-06-4.49656532D-06
  8.51780271D-06-6.15682747D-06 1.22856196D-06 7.46048194D-07
  1.75522715D-06 2.17455549D-06 1.22008118D-06-2.28607235D-07
  1.79488147D-06-4.11538936D-07-9.35696431D-07-1.15428543D-06
 -1.47971673D-06-9.53901783D-06 4.50888760D-06 1.21548362D-06
  1.49289958D-06 1.05531600D-06 2.46131335D-06

 GradGradGradGradGradGradGradGradGradGradGradGradGradGradGradGradGradGrad
 Berny optimization.
 Search for a local minimum.
 Step number   1 out of a maximum of   2
 All quantities printed in internal units (Hartrees-Bohrs-Radians)
 Second derivative matrix not updated -- analytic derivatives used.
     Eigenvalues ---    0.00087   0.00153   0.00523   0.01137   0.01329
     Eigenvalues ---    0.01671   0.01922   0.04207   0.05518   0.05808
     Eigenvalues ---    0.06803   0.07468   0.08201   0.09358   0.10657
     Eigenvalues ---    0.10909   0.11295   0.16189   0.16918   0.18349
     Eigenvalues ---    0.23726   0.26212   0.39875   0.45234   0.58175
     Eigenvalues ---    0.67641   0.71427   0.75042   0.78070   0.83987
     Eigenvalues ---    0.90737   1.00389   1.40473
 Angle between quadratic step and forces=  82.54 degrees.
 Linear search not attempted -- first point.
 TrRot=  0.000008  0.000006  0.000017  0.000001 -0.000003  0.000001
 Variable       Old X    -DE/DX   Delta X   Delta X   Delta X     New X
                                 (Linear)    (Quad)   (Total)
    X1       -5.14274   0.00000   0.00000  -0.00001  -0.00001  -5.14275
    Y1        0.66681   0.00000   0.00000  -0.00006  -0.00007   0.66674
    Z1        0.33888   0.00000   0.00000  -0.00001  -0.00001   0.33887
    X2       -3.98218   0.00000   0.00000  -0.00005  -0.00004  -3.98222
    Y2        0.35610   0.00000   0.00000  -0.00009  -0.00009   0.35601
    Z2       -1.32353   0.00000   0.00000  -0.00003  -0.00003  -1.32356
    X3       -7.17284   0.00000   0.00000  -0.00002  -0.00002  -7.17286
    Y3        0.53405   0.00000   0.00000  -0.00008  -0.00009   0.53397
    Z3        0.08348   0.00000   0.00000   0.00004   0.00003   0.08351
    X4       -4.11443   0.00000   0.00000   0.00001   0.00000  -4.11443
    Y4        1.16497   0.00000   0.00000  -0.00001  -0.00001   1.16496
    Z4        2.58492   0.00000   0.00000  -0.00003  -0.00003   2.58489
    X5       -1.27991   0.00000   0.00000   0.00000   0.00000  -1.27992
    Y5        1.34013   0.00000   0.00000   0.00001   0.00002   1.34015
    Z5        2.89408   0.00000   0.00000  -0.00002  -0.00001   2.89407
    X6       -0.33903   0.00000   0.00000   0.00001   0.00002  -0.33902
    Y6        0.88603   0.00000   0.00000   0.00012   0.00012   0.88615
    Z6        1.10266   0.00000   0.00000  -0.00004  -0.00002   1.10264
    X7       -0.63054   0.00000   0.00000   0.00000   0.00000  -0.63055
    Y7       -0.01897   0.00000   0.00000  -0.00008  -0.00007  -0.01904
    Z7        4.31111   0.00000   0.00000  -0.00010  -0.00009   4.31102
    X8       -0.49025   0.00000   0.00000  -0.00005  -0.00006  -0.49032
    Y8        3.74977   0.00001   0.00000   0.00000   0.00000   3.74978
    Z8        3.83080  -0.00001   0.00000   0.00009   0.00011   3.83091
    X9       -1.01601   0.00000   0.00000   0.00004   0.00003  -1.01598
    Y9        4.99590  -0.00001   0.00000   0.00002   0.00003   4.99593
    Z9        2.61285   0.00000   0.00000   0.00010   0.00011   2.61297
   X10       -5.64884   0.00000   0.00000   0.00003   0.00001  -5.64882
   Y10        1.61844   0.00000   0.00000   0.00003   0.00003   1.61847
   Z10        4.93789   0.00000   0.00000  -0.00002  -0.00002   4.93787
   X11       -5.27975   0.00000   0.00000  -0.00001  -0.00002  -5.27977
   Y11        0.14174   0.00000   0.00000   0.00002   0.00002   0.14176
   Z11        6.34345   0.00000   0.00000  -0.00002  -0.00002   6.34343
   X12       -5.10891   0.00000   0.00000   0.00010   0.00008  -5.10883
   Y12        3.41106   0.00000   0.00000   0.00002   0.00001   3.41107
   Z12        5.81119   0.00000   0.00000  -0.00002  -0.00002   5.81117
   X13       -7.67216   0.00000   0.00000   0.00002   0.00001  -7.67215
   Y13        1.64704   0.00000   0.00000   0.00011   0.00010   1.64714
   Z13        4.54063   0.00000   0.00000   0.00001   0.00000   4.54063
         Item               Value     Threshold  Converged?
 Maximum Force            0.000010     0.000450     YES
 RMS     Force            0.000003     0.000300     YES
 Maximum Displacement     0.000121     0.001800     YES
 RMS     Displacement     0.000052     0.001200     YES
 Predicted change in Energy=-2.894244D-11
 Optimization completed.
    -- Stationary point found.
 GradGradGradGradGradGradGradGradGradGradGradGradGradGradGradGradGradGrad


 Test job not archived.
 1\1\GINC-NODE17\Freq\RB3LYP\CBSB7\C4H8O1\NYEE\10-Jun-2013\0\\# freq no
 symm b3lyp/cbsb7 iop(7/33=1)\\Title Card Required\\0,1\C,-2.721419,0.3
 52861,0.179326\H,-2.107277,0.188442,-0.700384\H,-3.795704,0.282609,0.0
 44177\C,-2.177265,0.616476,1.36788\C,-0.677301,0.709167,1.531481\H,-0.
 179409,0.468867,0.583503\H,-0.333669,-0.010037,2.281341\O,-0.259431,1.
 984294,2.027174\H,-0.537649,2.643718,1.382662\C,-2.989236,0.856443,2.6
 13018\H,-2.793921,0.075007,3.356811\H,-2.703518,1.805057,3.075151\H,-4
 .059932,0.871575,2.402798\\Version=AM64L-G03RevD.01\HF=-232.5054314\RM
 SD=6.676e-09\RMSF=2.929e-06\ZeroPoint=0.113004\Thermal=0.11924\Dipole=
 -0.3049462,-0.0501301,-0.3876784\DipoleDeriv=0.0327037,-0.0149595,-0.0
 713752,-0.0040473,-0.3000642,0.0357711,-0.0446031,0.0545209,-0.1460326
 ,-0.0159587,0.0185288,0.1140686,0.0071715,0.1340653,-0.0362988,0.05963
 6,-0.0397769,-0.0520609,-0.1229351,-0.0208724,-0.0346647,-0.0084772,0.
 1402765,-0.021466,0.0128035,-0.0221564,0.0558267,0.0317309,-0.0442808,
 -0.0935488,0.0234997,-0.224993,0.0855426,-0.0035098,0.0621307,0.285055
 9,0.4767599,0.1636172,0.1287063,0.1506853,0.735788,0.1506624,0.023833,
 0.0965238,0.3317359,-0.0444029,-0.0003355,0.0632469,0.007848,-0.023082
 8,-0.0459908,0.1230626,-0.0982489,-0.1443258,-0.0061241,0.0040357,-0.0
 682812,0.0106166,-0.0552931,0.0566771,-0.0873891,0.0976199,-0.055445,-
 0.6751579,-0.2026489,-0.0198361,-0.241789,-0.7655872,-0.2375801,0.0285
 042,-0.1681969,-0.3560733,0.3212754,0.0808146,-0.0730271,0.0447969,0.2
 481655,0.0313271,-0.0779196,0.0608919,0.159481,0.0117449,-0.0062839,0.
 0406226,0.008296,0.1263774,-0.0426735,0.0362365,-0.069209,-0.0530728,0
 .0578086,0.066222,-0.0006952,0.0285882,-0.0305027,0.1198079,-0.0057311
 ,0.0730885,-0.0703608,0.0836472,-0.0520671,0.0020257,-0.0251438,-0.062
 1981,-0.0890219,-0.0046071,-0.0443073,0.0161469,-0.1510918,0.0082298,0
 .0127582,-0.0020448,0.0770485,-0.0067572,-0.060316,-0.0028804,0.029124
 6\Polar=51.492564,2.7398198,39.8268952,4.3091791,4.8227703,58.2431759\
 PG=C01 [X(C4H8O1)]\NImag=0\\0.67296541,0.03598653,0.13549672,0.0687967
 6,0.14152221,0.76896252,-0.14817906,0.02280241,0.13012103,0.14967793,0
 .02185833,-0.03967658,-0.03742850,-0.02447705,0.03114820,0.12544281,-0
 .03742263,-0.23158881,-0.13777000,0.04264323,0.24849759,-0.32800708,-0
 .01792375,-0.03218580,-0.01158045,-0.00139296,-0.00386018,0.34814825,-
 0.01727382,-0.03672009,-0.00669099,0.00445406,0.00203768,0.00052640,0.
 02017141,0.02572429,-0.02723518,-0.00604914,-0.05839710,0.02239650,0.0
 0163479,0.00498525,0.03633321,0.00832320,0.05629178,-0.18164194,-0.037
 24664,-0.15370670,0.00866942,0.00366469,0.01826795,-0.01173954,-0.0054
 3630,-0.02983038,0.55044696,-0.03791270,-0.07056427,-0.08678939,-0.001
 77816,0.00269507,-0.00447015,-0.00049022,0.00341266,-0.00212840,0.0321
 4916,0.22002152,-0.15591212,-0.08764848,-0.44392185,-0.01054969,-0.005
 80775,-0.02058665,0.00123649,-0.00022543,-0.00067627,0.11116312,0.1243
 0288,0.75631575,-0.01669599,-0.00338468,-0.01036526,0.00073706,0.00226
 327,0.00254434,0.00165841,-0.00294054,0.00163491,-0.19367946,0.0108617
 8,-0.00401191,0.48100580,-0.00529198,0.00473574,-0.00420126,-0.0007124
 9,-0.00744354,0.00167273,-0.00015302,0.01243856,-0.00279025,0.00688427
 ,-0.07202330,0.00244671,-0.05176513,0.47505197,-0.03200764,-0.00351899
 ,-0.00469877,-0.00234572,0.00246048,-0.00040259,-0.00150289,-0.0047914
 3,-0.00317464,0.00096792,0.00495861,-0.08924101,-0.02464936,-0.0474585
 4,0.60651420,0.00090086,0.00063659,0.00181696,0.00025811,-0.00033204,-
 0.00137974,0.00054311,0.00009955,-0.00036322,-0.01689881,0.00470787,0.
 02998139,-0.10425679,0.02060684,0.09711958,0.11203871,-0.00058726,-0.0
 0054669,-0.00018198,-0.00003361,0.00033956,0.00012848,-0.00009332,-0.0
 0017311,0.00010930,0.00180054,0.00214820,0.00058390,0.02190646,-0.0571
 0775,-0.03011900,-0.01983969,0.06805514,-0.00176998,0.00017192,0.00101
 026,0.00014423,0.00038512,0.00065963,0.00003379,-0.00016201,0.00044447
 ,-0.00268835,0.00118559,0.00057826,0.10055149,-0.03288619,-0.23472259,
 -0.10505286,0.04823103,0.25440718,-0.00400621,-0.00003299,0.00147093,-
 0.00006947,0.00095470,-0.00038438,-0.00040099,-0.00235488,-0.00045816,
 -0.01214404,0.02020228,-0.02582062,-0.07667459,0.05744260,-0.05531314,
 0.00570753,-0.00958377,0.01093437,0.08086683,-0.00010662,-0.00005068,-
 0.00047549,-0.00012233,0.00044836,-0.00010939,-0.00000320,-0.00076483,
 0.00027831,0.00032251,0.00408707,-0.00037202,0.05024318,-0.14315243,0.
 10797275,-0.00177932,0.00592763,-0.00263514,-0.05291388,0.17687668,-0.
 00093957,0.00031220,0.00076316,-0.00011688,0.00067610,0.00020678,-0.00
 029971,-0.00049831,0.00021780,-0.00298379,0.00065726,-0.00301942,-0.05
 329964,0.11922131,-0.17958486,-0.00838866,0.01683741,-0.01805711,0.062
 73291,-0.12180873,0.18630228,-0.00416237,0.00012397,0.00227020,0.00015
 295,-0.00168496,-0.00015715,-0.00063579,0.00312361,-0.00183865,-0.0126
 7131,-0.03907313,-0.01808623,-0.07258356,-0.02139377,-0.02199853,0.007
 75562,0.00732874,-0.00049962,0.00489761,0.00626278,0.00348186,0.133294
 08,-0.00249129,0.00103167,0.00272542,0.00070920,-0.00093507,0.00035022
 ,-0.00076277,0.00112147,-0.00113411,-0.01467828,-0.01679005,-0.0098181
 7,-0.03837406,-0.18285125,-0.05560700,-0.00522221,-0.02153649,-0.01409
 463,-0.01031505,-0.03772285,-0.01090644,-0.03083937,0.50394787,-0.0010
 9335,-0.00019942,0.00208421,0.00016432,-0.00106000,0.00083068,-0.00064
 261,0.00159036,-0.00042247,-0.00813448,-0.01230239,-0.00298375,-0.0177
 8309,-0.01766160,-0.10246204,-0.01233050,-0.03412166,-0.00651938,0.006
 98977,0.01980429,0.01100942,0.14810264,-0.15049042,0.35476488,-0.00006
 573,0.00040853,-0.00103665,0.00002759,-0.00012320,0.00018395,0.0000201
 4,0.00016174,0.00009133,0.00190628,-0.00161693,0.00209966,0.00158539,-
 0.01258757,0.00702086,0.00010150,0.00048434,-0.00078255,0.00032410,-0.
 00204893,-0.00025668,-0.05646025,0.10218325,-0.11533765,0.05342842,0.0
 0027704,0.00026265,-0.00026949,-0.00004183,0.00024192,-0.00014369,0.00
 018947,-0.00047130,0.00016327,-0.00041329,0.00244931,0.00071311,0.0110
 9683,-0.03221046,0.02787838,0.00125052,0.00151120,0.00012428,-0.002479
 22,-0.00587901,-0.00400538,0.07742430,-0.24825682,0.19263278,-0.087075
 85,0.28241628,-0.00015443,0.00034415,-0.00051673,0.00012657,-0.0003637
 1,-0.00017724,0.00003802,0.00024995,-0.00019551,0.00037611,-0.00043456
 ,0.00124161,0.00222849,-0.01714698,0.00808806,0.00032134,-0.00137919,0
 .00068950,-0.00057154,-0.00251158,0.00105982,-0.11011148,0.23867842,-0
 .25726980,0.10718439,-0.21739072,0.24769714,0.01029300,-0.00131646,-0.
 00822832,-0.00074705,-0.00070029,-0.00355599,0.00083663,-0.00050554,-0
 .00173621,-0.12523316,0.01061436,0.05728385,-0.02278601,0.00533394,0.0
 2889844,-0.00558979,-0.00092638,-0.00052480,0.00162334,-0.00005977,0.0
 0032149,0.00125262,0.00057608,0.00075244,-0.00073458,-0.00009815,0.000
 28455,0.56577595,0.00404214,0.00648684,-0.00753004,-0.00053658,0.01224
 442,-0.00325986,0.00067870,-0.00736173,0.00188099,0.00900345,-0.078267
 96,-0.01785676,0.00070331,0.00375029,0.00081652,-0.00042902,0.00099695
 ,-0.00024934,-0.00023602,0.00006949,-0.00037093,0.00115031,0.00043506,
 -0.00045268,-0.00000432,-0.00011945,0.00015622,0.00927032,0.52687535,0
 .01679580,-0.00745838,-0.03241647,-0.00171760,-0.00280528,-0.00106475,
 0.00135151,0.00175683,0.00104386,0.05008390,-0.01771931,-0.16397102,0.
 00401461,0.00216095,0.00479994,-0.00309133,-0.00003302,0.00095487,-0.0
 0052543,0.00005242,0.00051202,0.00053461,-0.00189026,-0.00078168,0.000
 14726,0.00028164,0.00008533,0.04315092,-0.00286452,0.49271532,-0.00090
 884,0.00047467,0.00119513,0.00029111,0.00097753,0.00002620,0.00016805,
 -0.00006783,0.00013586,0.00369753,-0.01418455,0.01096420,0.00096486,-0
 .00033323,0.00037400,0.00021617,0.00013974,-0.00025082,-0.00044177,0.0
 0025136,-0.00019658,-0.00028336,0.00033180,-0.00019468,0.00015685,0.00
 006178,-0.00004962,-0.05685989,0.03350382,-0.02964828,0.05600775,0.000
 14187,-0.00025464,-0.00112260,-0.00001835,-0.00086198,-0.00003379,-0.0
 0003804,0.00039979,-0.00015651,-0.00179974,0.00657687,-0.00477671,0.00
 003086,-0.00005587,0.00038883,-0.00019030,0.00011259,-0.00004655,-0.00
 031059,0.00012659,0.00006593,-0.00071233,0.00013263,-0.00000974,0.0002
 6862,-0.00000840,-0.00022758,0.03451366,-0.17521006,0.12299426,-0.0381
 1854,0.19051362,0.00345274,-0.00035184,-0.00104540,-0.00004774,-0.0023
 7155,-0.00031136,-0.00002601,0.00125808,-0.00023036,-0.00485671,0.0183
 2459,-0.02384640,-0.00143276,-0.00015514,0.00037224,-0.00013052,-0.000
 38523,0.00029642,0.00090628,-0.00017365,0.00048217,0.00011425,0.000017
 52,0.00008455,-0.00013361,-0.00011049,-0.00008646,-0.03172350,0.124592
 37,-0.15601598,0.03216596,-0.13522966,0.17506107,-0.00172495,-0.000058
 33,0.00158774,0.00034597,-0.00090679,0.00066326,0.00015885,0.00025080,
 0.00011396,0.00690889,0.01678479,0.00605658,0.00047933,0.00116321,0.00
 001726,0.00026853,-0.00037457,-0.00017304,-0.00006319,-0.00010718,0.00
 001149,-0.00063631,-0.00105163,-0.00047915,-0.00029146,-0.00031255,0.0
 0036927,-0.06692762,-0.06043001,-0.02889785,0.00132442,0.00611760,0.00
 279854,0.06681674,0.00110399,0.00008970,0.00017166,-0.00013251,-0.0000
 2332,-0.00001558,-0.00002275,0.00007952,0.00005992,0.00030558,-0.00222
 338,-0.00329015,-0.00083452,-0.00115782,-0.00118868,0.00010404,0.00000
 467,0.00010421,0.00005903,-0.00006770,-0.00001479,-0.00115574,0.000630
 91,0.00143642,-0.00017151,0.00002398,0.00010989,-0.05967160,-0.2428296
 8,-0.09457959,-0.00639300,-0.02158309,-0.00924331,0.06656654,0.2647009
 5,0.00364103,-0.00014746,-0.00168296,-0.00015623,0.00191014,-0.0014273
 3,0.00015981,-0.00115421,0.00033642,-0.00754284,-0.02566270,-0.0157944
 5,-0.00124559,-0.00131984,-0.00022222,-0.00013816,0.00018352,0.0000514
 9,0.00007848,0.00017714,0.00007779,-0.00109707,0.00180470,0.00103093,0
 .00074536,0.00014939,-0.00060391,-0.02934322,-0.09525226,-0.08743857,0
 .00602188,0.01963853,0.00957739,0.03012709,0.10448955,0.09957721,0.001
 23290,-0.00046985,-0.00173602,0.00041589,-0.00010121,-0.00002106,0.000
 83040,0.00031775,0.00075603,-0.01762082,-0.00026454,-0.00440472,0.0002
 4556,0.00080634,0.00341922,-0.00104475,-0.00022121,0.00007814,0.000380
 84,0.00006138,-0.00006624,0.00008008,-0.00006567,-0.00001365,0.0000017
 4,0.00012093,-0.00004166,-0.30090344,0.00328390,-0.05219812,-0.0043328
 9,0.00011529,-0.00108692,-0.00665920,0.00024243,-0.00125053,0.32737370
 ,0.00025377,-0.00029037,0.00027045,-0.00011278,-0.00021473,0.00013403,
 -0.00015954,0.00027712,-0.00019136,0.00544405,-0.00152174,0.00174889,0
 .00019324,0.00002587,-0.00179193,0.00038718,0.00026810,-0.00012830,-0.
 00043220,0.00010168,-0.00016562,-0.00055442,0.00079292,0.00083406,0.00
 012185,0.00004010,-0.00008430,0.00296982,-0.04706952,0.00010426,0.0233
 5645,0.00011195,0.00382831,-0.02764187,0.00235527,-0.00481652,-0.00382
 554,0.04512334,0.00098313,0.00044587,0.00144794,-0.00024878,0.00012692
 ,0.00037880,-0.00063562,-0.00018244,-0.00022323,0.02888424,0.00007798,
 0.00590519,0.00181378,-0.00188190,-0.00526573,0.00163572,0.00014644,0.
 00020701,-0.00003947,-0.00019892,0.00003015,-0.00071482,0.00036475,0.0
 0063446,0.00007433,-0.00002307,-0.00001180,-0.05557965,0.00039027,-0.0
 5842286,-0.02054324,-0.00148441,-0.00433787,-0.01219514,0.00196046,-0.
 00348178,0.05656553,0.00025804,0.06313972\\0.00000114,-0.00000037,-0.0
 0000122,0.00000284,0.00000050,0.00000023,0.00000317,-0.00000097,-0.000
 00179,-0.00000154,-0.00000004,0.00000041,0.00000026,0.00000329,0.00000
 094,0.00000120,0.00000136,0.00000115,0.00000069,0.00000450,0.00000148,
 0.00000109,-0.00000852,0.00000954,-0.00000405,0.00000616,-0.00000451,-
 0.00000139,-0.00000123,-0.00000122,-0.00000097,-0.00000075,-0.00000149
 ,-0.00000202,-0.00000176,-0.00000106,-0.00000041,-0.00000217,-0.000002
 46\\\@


 IT IS IMPOSSIBLE TO MEDITATE ON TIME AND THE MYSTERY 
 OF NATURE WITHOUT AN OVERWHELMING EMOTION AT THE
 LIMITATIONS OF HUMAN INTELLIGENCE.

                                         -- ALFRED NORTH WHITEHEAD
 Job cpu time:  0 days  0 hours 17 minutes 39.8 seconds.
 File lengths (MBytes):  RWF=     31 Int=      0 D2E=      0 Chk=      7 Scr=      1
 Normal termination of Gaussian 03 at Mon Jun 10 09:56:55 2013.
