 Entering Gaussian System, Link 0=g03
 Input=p8freq.gjf
 Output=p8freq.log
 Initial command:
 /opt/g03/l1.exe /scratch/nyee/Gau-15265.inp -scrdir=/scratch/nyee/
 Entering Link 1 = /opt/g03/l1.exe PID=     15267.
  
 Copyright (c) 1988,1990,1992,1993,1995,1998,2003,2004, Gaussian, Inc.
                  All Rights Reserved.
  
 This is the Gaussian(R) 03 program.  It is based on the
 the Gaussian(R) 98 system (copyright 1998, Gaussian, Inc.),
 the Gaussian(R) 94 system (copyright 1995, Gaussian, Inc.),
 the Gaussian 92(TM) system (copyright 1992, Gaussian, Inc.),
 the Gaussian 90(TM) system (copyright 1990, Gaussian, Inc.),
 the Gaussian 88(TM) system (copyright 1988, Gaussian, Inc.),
 the Gaussian 86(TM) system (copyright 1986, Carnegie Mellon
 University), and the Gaussian 82(TM) system (copyright 1983,
 Carnegie Mellon University). Gaussian is a federally registered
 trademark of Gaussian, Inc.
  
 This software contains proprietary and confidential information,
 including trade secrets, belonging to Gaussian, Inc.
  
 This software is provided under written license and may be
 used, copied, transmitted, or stored only in accord with that
 written license.
  
 The following legend is applicable only to US Government
 contracts under FAR:
  
                    RESTRICTED RIGHTS LEGEND
  
 Use, reproduction and disclosure by the US Government is
 subject to restrictions as set forth in subparagraphs (a)
 and (c) of the Commercial Computer Software - Restricted
 Rights clause in FAR 52.227-19.
  
 Gaussian, Inc.
 340 Quinnipiac St., Bldg. 40, Wallingford CT 06492
  
  
 ---------------------------------------------------------------
 Warning -- This program may not be used in any manner that
 competes with the business of Gaussian, Inc. or will provide
 assistance to any competitor of Gaussian, Inc.  The licensee
 of this program is prohibited from giving any competitor of
 Gaussian, Inc. access to this program.  By using this program,
 the user acknowledges that Gaussian, Inc. is engaged in the
 business of creating and licensing software in the field of
 computational chemistry and represents and warrants to the
 licensee that it is not a competitor of Gaussian, Inc. and that
 it will not use this program in any manner prohibited above.
 ---------------------------------------------------------------
  

 Cite this work as:
 Gaussian 03, Revision D.01,
 M. J. Frisch, G. W. Trucks, H. B. Schlegel, G. E. Scuseria, 
 M. A. Robb, J. R. Cheeseman, J. A. Montgomery, Jr., T. Vreven, 
 K. N. Kudin, J. C. Burant, J. M. Millam, S. S. Iyengar, J. Tomasi, 
 V. Barone, B. Mennucci, M. Cossi, G. Scalmani, N. Rega, 
 G. A. Petersson, H. Nakatsuji, M. Hada, M. Ehara, K. Toyota, 
 R. Fukuda, J. Hasegawa, M. Ishida, T. Nakajima, Y. Honda, O. Kitao, 
 H. Nakai, M. Klene, X. Li, J. E. Knox, H. P. Hratchian, J. B. Cross, 
 V. Bakken, C. Adamo, J. Jaramillo, R. Gomperts, R. E. Stratmann, 
 O. Yazyev, A. J. Austin, R. Cammi, C. Pomelli, J. W. Ochterski, 
 P. Y. Ayala, K. Morokuma, G. A. Voth, P. Salvador, J. J. Dannenberg, 
 V. G. Zakrzewski, S. Dapprich, A. D. Daniels, M. C. Strain, 
 O. Farkas, D. K. Malick, A. D. Rabuck, K. Raghavachari, 
 J. B. Foresman, J. V. Ortiz, Q. Cui, A. G. Baboul, S. Clifford, 
 J. Cioslowski, B. B. Stefanov, G. Liu, A. Liashenko, P. Piskorz, 
 I. Komaromi, R. L. Martin, D. J. Fox, T. Keith, M. A. Al-Laham, 
 C. Y. Peng, A. Nanayakkara, M. Challacombe, P. M. W. Gill, 
 B. Johnson, W. Chen, M. W. Wong, C. Gonzalez, and J. A. Pople, 
 Gaussian, Inc., Wallingford CT, 2004.
 
 ******************************************
 Gaussian 03:  AM64L-G03RevD.01 13-Oct-2005
                10-Jun-2013 
 ******************************************
 %chk=p8freq.chk
 %mem=1000mb
 %nproc=8
 Will use up to    8 processors via shared memory.
 -------------------------------------
 # freq nosymm b3lyp/cbsb7 iop(7/33=1)
 -------------------------------------
 1/10=4,30=1,38=1/1,3;
 2/15=1,17=6,18=5,40=1/2;
 3/5=4,6=6,7=700,11=2,16=1,25=1,30=1,74=-5/1,2,3;
 4//1;
 5/5=2,38=5/2;
 8/6=4,10=90,11=11/1;
 11/6=1,8=1,9=11,15=111,16=1,31=1/1,2,10;
 10/6=1,31=1/2;
 6/7=2,8=2,9=2,10=2,18=1,28=1/1;
 7/8=1,10=1,25=1,30=1,33=1/1,2,3,16;
 1/10=4,30=1/3;
 99//99;
 -------------------
 Title Card Required
 -------------------
 Symbolic Z-matrix:
 Charge =  0 Multiplicity = 2
 O                    -0.98411   1.74996   0.8428 
 C                    -1.15627   0.77359  -0.08256 
 H                    -2.21876   0.49809  -0.20959 
 H                    -0.86729   1.22635  -1.05453 
 C                    -0.28546  -0.49042   0.12768 
 C                     1.20006  -0.14635   0.18066 
 H                     1.79459  -1.04311   0.37234 
 H                     1.52744   0.30173  -0.75949 
 H                     1.38324   0.57489   0.97862 
 C                    -0.74577  -1.24641   1.37349 
 H                    -0.63458  -0.60001   2.24689 
 H                    -1.79529  -1.53478   1.28234 
 H                    -0.14796  -2.14783   1.52186 
 O                    -0.58705  -1.42029  -0.93705 
 O                    -0.25268  -0.81254  -2.21602 
 H                     0.52798  -1.32822  -2.45941 
 

 GradGradGradGradGradGradGradGradGradGradGradGradGradGradGradGradGradGrad
 Berny optimization.
 Initialization pass.
 Trust Radius=3.00D-01 FncErr=1.00D-07 GrdErr=1.00D-07
 Number of steps in this run=   2 maximum allowed number of steps=   2.
 GradGradGradGradGradGradGradGradGradGradGradGradGradGradGradGradGradGrad

                          Input orientation:                          
 ---------------------------------------------------------------------
 Center     Atomic     Atomic              Coordinates (Angstroms)
 Number     Number      Type              X           Y           Z
 ---------------------------------------------------------------------
    1          8             0       -0.984106    1.749955    0.842802
    2          6             0       -1.156271    0.773589   -0.082559
    3          1             0       -2.218758    0.498093   -0.209592
    4          1             0       -0.867286    1.226345   -1.054526
    5          6             0       -0.285462   -0.490417    0.127676
    6          6             0        1.200064   -0.146351    0.180662
    7          1             0        1.794593   -1.043113    0.372342
    8          1             0        1.527441    0.301728   -0.759491
    9          1             0        1.383238    0.574889    0.978619
   10          6             0       -0.745769   -1.246411    1.373487
   11          1             0       -0.634575   -0.600007    2.246892
   12          1             0       -1.795292   -1.534783    1.282343
   13          1             0       -0.147957   -2.147832    1.521855
   14          8             0       -0.587046   -1.420290   -0.937050
   15          8             0       -0.252684   -0.812543   -2.216019
   16          1             0        0.527978   -1.328219   -2.459406
 ---------------------------------------------------------------------
                    Distance matrix (angstroms):
                    1          2          3          4          5
     1  O    0.000000
     2  C    1.356180   0.000000
     3  H    2.049160   1.104950   0.000000
     4  H    1.971717   1.110504   1.752353   0.000000
     5  C    2.453319   1.549264   2.197393   2.164115   0.000000
     6  C    2.967323   2.543205   3.500850   2.771988   1.525771
     7  H    3.967837   3.494988   4.338312   3.777829   2.166094
     8  H    3.312487   2.807704   3.791432   2.583927   2.168220
     9  H    2.646421   2.759472   3.793695   3.102085   2.154888
    10  C    3.052317   2.523684   2.778332   3.467641   1.528219
    11  H    2.759703   2.754138   3.122463   3.780090   2.150573
    12  H    3.411850   2.756789   2.556908   3.734432   2.168765
    13  H    4.043884   3.482175   3.779821   4.305838   2.170177
    14  O    3.657319   2.422246   2.621426   2.664022   1.445427
    15  O    4.056816   2.807835   3.099833   2.425668   2.365956
    16  H    4.760896   3.592171   3.992698   3.232065   2.838413
                    6          7          8          9         10
     6  C    0.000000
     7  H    1.092881   0.000000
     8  H    1.091713   1.777924   0.000000
     9  H    1.091089   1.776152   1.765344   0.000000
    10  C    2.533620   2.738076   3.480490   2.829439   0.000000
    11  H    2.800180   3.100184   3.811270   2.657154   1.092263
    12  H    3.480460   3.735922   4.310732   3.827012   1.092229
    13  H    2.760776   2.513023   3.743240   3.170627   1.091766
    14  O    2.462918   2.743898   2.732751   3.395960   2.322500
    15  O    2.880689   3.308190   2.555762   3.847976   3.649100
    16  H    2.969591   3.115188   2.558391   4.021605   4.039826
                   11         12         13         14         15
    11  H    0.000000
    12  H    1.775225   0.000000
    13  H    1.777143   1.773953   0.000000
    14  O    3.288253   2.529560   2.601601   0.000000
    15  O    4.484260   3.890990   3.970600   1.454963   0.000000
    16  H    4.902149   4.409188   4.120569   1.889265   0.966743
                   16
    16  H    0.000000
 Symmetry turned off by external request.
 Stoichiometry    C4H9O3(2)
 Framework group  C1[X(C4H9O3)]
 Deg. of freedom    42
 Full point group                 C1
 Rotational constants (GHZ):      3.3544163      2.0981093      1.8284738
 Standard basis: CBSB7 (5D, 7F)
 Integral buffers will be    131072 words long.
 Raffenetti 2 integral format.
 Two-electron integral symmetry is turned off.
   180 basis functions,   296 primitive gaussians,   187 cartesian basis functions
    29 alpha electrons       28 beta electrons
       nuclear repulsion energy       335.5731486991 Hartrees.
 NAtoms=   16 NActive=   16 NUniq=   16 SFac= 7.50D-01 NAtFMM=   80 NAOKFM=F Big=F
 One-electron integrals computed using PRISM.
 NBasis=   180 RedAO= T  NBF=   180
 NBsUse=   180 1.00D-06 NBFU=   180
 Harris functional with IExCor=  402 diagonalized for initial guess.
 ExpMin= 1.03D-01 ExpMax= 8.59D+03 ExpMxC= 1.30D+03 IAcc=1 IRadAn=         1 AccDes= 1.00D-06
 HarFok:  IExCor= 402 AccDes= 1.00D-06 IRadAn=         1 IDoV=1
 ScaDFX=  1.000000  1.000000  1.000000  1.000000
 <S**2> of initial guess= 0.7500
 Requested convergence on RMS density matrix=1.00D-08 within 128 cycles.
 Requested convergence on MAX density matrix=1.00D-06.
 Requested convergence on             energy=1.00D-06.
 No special actions if energy rises.
 Integral accuracy reduced to 1.0D-05 until final iterations.
 EnCoef did     3 forward-backward iterations
 EnCoef did     5 forward-backward iterations
 Rare condition: small coef for last iteration:  0.000D+00
 Initial convergence to 1.6D-05 achieved.  Increase integral accuracy.
 SCF Done:  E(UB+HF-LYP) =  -383.460228955     A.U. after   32 cycles
             Convg  =    0.2664D-08             -V/T =  2.0033
             S**2   =   0.7534
 Annihilation of the first spin contaminant:
 S**2 before annihilation     0.7534,   after     0.7500
 Range of M.O.s used for correlation:     1   180
 NBasis=   180 NAE=    29 NBE=    28 NFC=     0 NFV=     0
 NROrb=    180 NOA=    29 NOB=    28 NVA=   151 NVB=   152
 Symmetrizing basis deriv contribution to polar:
 IMax=3 JMax=2 DiffMx= 0.00D+00
 G2DrvN: will do   17 centers at a time, making    1 passes doing MaxLOS=2.
 FoFDir/FoFCou used for L=0 through L=2.
 DoAtom=TTTTTTTTTTTTTTTT
          Differentiating once with respect to electric field.
                with respect to dipole field.
          Differentiating once with respect to nuclear coordinates.
 Symmetry not used in FoFDir.
 MinBra= 0 MaxBra= 2 Meth= 1.
 IRaf=       0 NMat=  51 IRICut=      51 DoRegI=T DoRafI=T ISym2E= 0 JSym2E=0.
          There are  51 degrees of freedom in the 1st order CPHF.
    48 vectors were produced by pass  0.
 AX will form  48 AO Fock derivatives at one time.
    48 vectors were produced by pass  1.
    48 vectors were produced by pass  2.
    48 vectors were produced by pass  3.
    48 vectors were produced by pass  4.
    48 vectors were produced by pass  5.
    24 vectors were produced by pass  6.
     3 vectors were produced by pass  7.
     2 vectors were produced by pass  8.
 Inv2:  IOpt= 1 Iter= 1 AM= 2.13D-14 Conv= 1.00D-12.
 Inverted reduced A of dimension  317 with in-core refinement.
 Isotropic polarizability for W=    0.000000       60.11 Bohr**3.
 End of Minotr Frequency-dependent properties file   721 does not exist.

 **********************************************************************

            Population analysis using the SCF density.

 **********************************************************************

 Alpha  occ. eigenvalues --  -19.18365 -19.18060 -19.16092 -10.24263 -10.22715
 Alpha  occ. eigenvalues --  -10.17283 -10.16804  -1.12812  -1.03541  -0.93037
 Alpha  occ. eigenvalues --   -0.78313  -0.70673  -0.68247  -0.57734  -0.53334
 Alpha  occ. eigenvalues --   -0.50400  -0.48946  -0.46350  -0.45498  -0.43404
 Alpha  occ. eigenvalues --   -0.40221  -0.40041  -0.38694  -0.38557  -0.36148
 Alpha  occ. eigenvalues --   -0.33626  -0.31184  -0.29391  -0.26964
 Alpha virt. eigenvalues --   -0.00032   0.03675   0.06046   0.08359   0.09070
 Alpha virt. eigenvalues --    0.09546   0.09974   0.10902   0.13965   0.15299
 Alpha virt. eigenvalues --    0.15741   0.18061   0.21321   0.23059   0.25089
 Alpha virt. eigenvalues --    0.28311   0.29166   0.33423   0.37883   0.38424
 Alpha virt. eigenvalues --    0.40001   0.41862   0.45995   0.46828   0.49110
 Alpha virt. eigenvalues --    0.52067   0.54197   0.55967   0.56610   0.58405
 Alpha virt. eigenvalues --    0.59117   0.60095   0.60493   0.62543   0.63236
 Alpha virt. eigenvalues --    0.63813   0.66978   0.72233   0.73667   0.80381
 Alpha virt. eigenvalues --    0.84772   0.86787   0.88323   0.89168   0.90472
 Alpha virt. eigenvalues --    0.94309   0.98316   1.00269   1.02684   1.04788
 Alpha virt. eigenvalues --    1.14813   1.17696   1.28052   1.29286   1.32853
 Alpha virt. eigenvalues --    1.33145   1.37787   1.38712   1.42314   1.44611
 Alpha virt. eigenvalues --    1.45082   1.46208   1.48033   1.48656   1.50185
 Alpha virt. eigenvalues --    1.51700   1.54393   1.57365   1.60902   1.61769
 Alpha virt. eigenvalues --    1.64298   1.65836   1.68360   1.69462   1.72324
 Alpha virt. eigenvalues --    1.75606   1.78614   1.80682   1.88168   1.88419
 Alpha virt. eigenvalues --    1.93148   1.94724   2.01862   2.07946   2.08515
 Alpha virt. eigenvalues --    2.10249   2.16949   2.24118   2.27127   2.28788
 Alpha virt. eigenvalues --    2.32209   2.35193   2.36551   2.44212   2.44405
 Alpha virt. eigenvalues --    2.45902   2.47325   2.48965   2.49526   2.51358
 Alpha virt. eigenvalues --    2.53861   2.55850   2.59329   2.62445   2.63914
 Alpha virt. eigenvalues --    2.68063   2.70841   2.75322   2.77341   2.80847
 Alpha virt. eigenvalues --    2.82819   2.87925   2.89488   2.95198   2.96863
 Alpha virt. eigenvalues --    3.06364   3.08813   3.12027   3.13034   3.21533
 Alpha virt. eigenvalues --    3.23644   3.27655   3.32503   3.51318   3.64487
 Alpha virt. eigenvalues --    3.73711   3.76800   3.77871   3.79876   3.81289
 Alpha virt. eigenvalues --    3.82659   3.88731   3.98846   4.20939   4.26182
 Alpha virt. eigenvalues --    4.72266   4.81887   4.83047   4.89275   4.91448
 Alpha virt. eigenvalues --    5.19875   5.38193   5.46241   5.65911  23.69369
 Alpha virt. eigenvalues --   23.77135  23.90528  23.93649  49.76288  49.81359
 Alpha virt. eigenvalues --   49.86061
  Beta  occ. eigenvalues --  -19.18350 -19.18040 -19.13812 -10.24239 -10.22758
  Beta  occ. eigenvalues --  -10.17275 -10.16807  -1.12778  -0.98770  -0.92870
  Beta  occ. eigenvalues --   -0.78036  -0.70646  -0.66922  -0.57462  -0.52946
  Beta  occ. eigenvalues --   -0.49127  -0.47884  -0.46068  -0.44281  -0.41666
  Beta  occ. eigenvalues --   -0.40017  -0.39208  -0.38635  -0.37988  -0.35393
  Beta  occ. eigenvalues --   -0.32249  -0.28925  -0.25885
  Beta virt. eigenvalues --   -0.14193  -0.00006   0.03729   0.06151   0.08432
  Beta virt. eigenvalues --    0.09236   0.09596   0.10220   0.10980   0.14108
  Beta virt. eigenvalues --    0.15580   0.15873   0.18296   0.21585   0.23174
  Beta virt. eigenvalues --    0.25536   0.28742   0.29379   0.33503   0.38061
  Beta virt. eigenvalues --    0.38721   0.40242   0.42033   0.46789   0.47273
  Beta virt. eigenvalues --    0.49698   0.52216   0.54506   0.56168   0.56790
  Beta virt. eigenvalues --    0.58635   0.59207   0.60153   0.60536   0.62575
  Beta virt. eigenvalues --    0.63640   0.63882   0.67036   0.72728   0.74083
  Beta virt. eigenvalues --    0.80875   0.84945   0.87070   0.89064   0.90367
  Beta virt. eigenvalues --    0.93772   0.94997   0.98434   1.00530   1.02871
  Beta virt. eigenvalues --    1.05093   1.15109   1.17767   1.28262   1.29578
  Beta virt. eigenvalues --    1.33214   1.33337   1.38199   1.38865   1.42681
  Beta virt. eigenvalues --    1.44730   1.45160   1.46320   1.48426   1.48820
  Beta virt. eigenvalues --    1.50792   1.52045   1.54501   1.57788   1.61239
  Beta virt. eigenvalues --    1.62107   1.64651   1.66239   1.69091   1.69806
  Beta virt. eigenvalues --    1.72544   1.75849   1.78941   1.81128   1.88237
  Beta virt. eigenvalues --    1.88555   1.93270   1.94783   2.02299   2.08149
  Beta virt. eigenvalues --    2.09056   2.10506   2.17520   2.24256   2.27487
  Beta virt. eigenvalues --    2.29235   2.32765   2.35441   2.37180   2.44435
  Beta virt. eigenvalues --    2.44503   2.46011   2.47586   2.49132   2.49649
  Beta virt. eigenvalues --    2.51512   2.54017   2.56085   2.59391   2.62559
  Beta virt. eigenvalues --    2.64272   2.69139   2.71234   2.75946   2.78353
  Beta virt. eigenvalues --    2.84272   2.87250   2.88335   2.92653   2.95508
  Beta virt. eigenvalues --    2.98155   3.08002   3.09406   3.12262   3.13770
  Beta virt. eigenvalues --    3.21726   3.26170   3.29135   3.32906   3.51485
  Beta virt. eigenvalues --    3.64532   3.74741   3.76832   3.77966   3.80222
  Beta virt. eigenvalues --    3.81329   3.82685   3.90500   3.99006   4.21126
  Beta virt. eigenvalues --    4.26213   4.72315   4.82265   4.90307   4.91960
  Beta virt. eigenvalues --    4.93156   5.19962   5.38570   5.47708   5.65987
  Beta virt. eigenvalues --   23.69396  23.77096  23.90529  23.93651  49.76476
  Beta virt. eigenvalues --   49.82287  49.87309
          Condensed to atoms (all electrons):
              1          2          3          4          5          6
     1  O    8.033244   0.301709  -0.028697  -0.020790  -0.072239   0.005989
     2  C    0.301709   4.856707   0.389947   0.375864   0.273438  -0.083181
     3  H   -0.028697   0.389947   0.589758  -0.025728  -0.070054   0.011846
     4  H   -0.020790   0.375864  -0.025728   0.527735  -0.034095  -0.011689
     5  C   -0.072239   0.273438  -0.070054  -0.034095   5.418450   0.262484
     6  C    0.005989  -0.083181   0.011846  -0.011689   0.262484   4.998837
     7  H   -0.000257   0.008614  -0.000529  -0.000001  -0.030800   0.395014
     8  H   -0.000063  -0.008353  -0.000037   0.003330  -0.037176   0.400218
     9  H    0.016049  -0.003770   0.001104   0.000465  -0.035811   0.393571
    10  C   -0.001988  -0.063435  -0.011104   0.007744   0.331375  -0.062579
    11  H    0.008670  -0.004495   0.001041   0.000730  -0.037555  -0.004088
    12  H    0.000055  -0.009064   0.005660  -0.000224  -0.031529   0.010175
    13  H   -0.000237   0.008902  -0.000516  -0.000326  -0.030364  -0.010751
    14  O    0.001600  -0.040987   0.010866  -0.007195   0.167787  -0.044770
    15  O    0.000063  -0.010145  -0.000761   0.018351  -0.073239  -0.000191
    16  H   -0.000028   0.000342   0.000123  -0.001431  -0.002062   0.005719
              7          8          9         10         11         12
     1  O   -0.000257  -0.000063   0.016049  -0.001988   0.008670   0.000055
     2  C    0.008614  -0.008353  -0.003770  -0.063435  -0.004495  -0.009064
     3  H   -0.000529  -0.000037   0.001104  -0.011104   0.001041   0.005660
     4  H   -0.000001   0.003330   0.000465   0.007744   0.000730  -0.000224
     5  C   -0.030800  -0.037176  -0.035811   0.331375  -0.037555  -0.031529
     6  C    0.395014   0.400218   0.393571  -0.062579  -0.004088   0.010175
     7  H    0.571971  -0.029261  -0.023414  -0.007772  -0.000390  -0.000132
     8  H   -0.029261   0.569565  -0.024141   0.008697  -0.000082  -0.000417
     9  H   -0.023414  -0.024141   0.547184  -0.004452   0.002246  -0.000219
    10  C   -0.007772   0.008697  -0.004452   4.897814   0.397691   0.395352
    11  H   -0.000390  -0.000082   0.002246   0.397691   0.554992  -0.023309
    12  H   -0.000132  -0.000417  -0.000219   0.395352  -0.023309   0.556062
    13  H    0.004583  -0.000035  -0.000292   0.402272  -0.023904  -0.026830
    14  O    0.003230  -0.006320   0.004256  -0.036062   0.004040   0.003762
    15  O   -0.000491   0.017124   0.000283   0.006572  -0.000230  -0.000295
    16  H    0.000098  -0.000113  -0.000169  -0.001110   0.000053   0.000077
             13         14         15         16
     1  O   -0.000237   0.001600   0.000063  -0.000028
     2  C    0.008902  -0.040987  -0.010145   0.000342
     3  H   -0.000516   0.010866  -0.000761   0.000123
     4  H   -0.000326  -0.007195   0.018351  -0.001431
     5  C   -0.030364   0.167787  -0.073239  -0.002062
     6  C   -0.010751  -0.044770  -0.000191   0.005719
     7  H    0.004583   0.003230  -0.000491   0.000098
     8  H   -0.000035  -0.006320   0.017124  -0.000113
     9  H   -0.000292   0.004256   0.000283  -0.000169
    10  C    0.402272  -0.036062   0.006572  -0.001110
    11  H   -0.023904   0.004040  -0.000230   0.000053
    12  H   -0.026830   0.003762  -0.000295   0.000077
    13  H    0.557995   0.002326  -0.000269  -0.000015
    14  O    0.002326   8.142003   0.075523  -0.026242
    15  O   -0.000269   0.075523   7.942217   0.286443
    16  H   -0.000015  -0.026242   0.286443   0.465128
 Mulliken atomic charges:
              1
     1  O   -0.243080
     2  C    0.007907
     3  H    0.127082
     4  H    0.167261
     5  C    0.001390
     6  C   -0.266604
     7  H    0.109537
     8  H    0.107065
     9  H    0.127109
    10  C   -0.259015
    11  H    0.124593
    12  H    0.120879
    13  H    0.117461
    14  O   -0.253819
    15  O   -0.260954
    16  H    0.273188
 Sum of Mulliken charges=   0.00000
 Atomic charges with hydrogens summed into heavy atoms:
              1
     1  O   -0.243080
     2  C    0.302251
     3  H    0.000000
     4  H    0.000000
     5  C    0.001390
     6  C    0.077106
     7  H    0.000000
     8  H    0.000000
     9  H    0.000000
    10  C    0.103918
    11  H    0.000000
    12  H    0.000000
    13  H    0.000000
    14  O   -0.253819
    15  O    0.012234
    16  H    0.000000
 Sum of Mulliken charges=   0.00000
          Atomic-Atomic Spin Densities.
              1          2          3          4          5          6
     1  O    0.941667  -0.041122  -0.006625  -0.023172  -0.007672   0.000254
     2  C   -0.041122  -0.080602   0.004411   0.026598   0.029755   0.000724
     3  H   -0.006625   0.004411   0.052933  -0.017360   0.014943   0.000998
     4  H   -0.023172   0.026598  -0.017360   0.143660  -0.006408  -0.005157
     5  C   -0.007672   0.029755   0.014943  -0.006408   0.002800   0.001992
     6  C    0.000254   0.000724   0.000998  -0.005157   0.001992   0.003478
     7  H   -0.000020   0.000001   0.000031  -0.000136  -0.000860   0.001356
     8  H   -0.000065   0.000065  -0.000030   0.000486   0.000535  -0.001040
     9  H   -0.001698  -0.000201  -0.000051  -0.000304   0.001292   0.000763
    10  C    0.005306  -0.004613  -0.004630   0.002728  -0.014659  -0.005172
    11  H    0.002195  -0.001985  -0.000846   0.000433  -0.000184  -0.000419
    12  H   -0.000147   0.000595   0.000164  -0.000067  -0.000379  -0.000030
    13  H   -0.000122  -0.000103   0.000164  -0.000093   0.001456   0.000898
    14  O    0.000023  -0.000196  -0.001853   0.001582  -0.002677   0.000192
    15  O    0.000019  -0.000267   0.000229  -0.002392  -0.000145   0.000537
    16  H   -0.000004   0.000023  -0.000055   0.000297   0.000174  -0.000382
              7          8          9         10         11         12
     1  O   -0.000020  -0.000065  -0.001698   0.005306   0.002195  -0.000147
     2  C    0.000001   0.000065  -0.000201  -0.004613  -0.001985   0.000595
     3  H    0.000031  -0.000030  -0.000051  -0.004630  -0.000846   0.000164
     4  H   -0.000136   0.000486  -0.000304   0.002728   0.000433  -0.000067
     5  C   -0.000860   0.000535   0.001292  -0.014659  -0.000184  -0.000379
     6  C    0.001356  -0.001040   0.000763  -0.005172  -0.000419  -0.000030
     7  H    0.000379  -0.000149   0.000006  -0.000385  -0.000135   0.000013
     8  H   -0.000149   0.000352   0.000066   0.000090   0.000030  -0.000002
     9  H    0.000006   0.000066  -0.001114   0.000185  -0.000247  -0.000008
    10  C   -0.000385   0.000090   0.000185   0.024799   0.002599   0.000077
    11  H   -0.000135   0.000030  -0.000247   0.002599  -0.001034   0.000163
    12  H    0.000013  -0.000002  -0.000008   0.000077   0.000163  -0.000570
    13  H    0.000127  -0.000013   0.000092  -0.001756  -0.000979   0.000270
    14  O    0.000063  -0.000002  -0.000065   0.002253   0.000033  -0.000046
    15  O    0.000011  -0.000148   0.000007   0.000050  -0.000002  -0.000004
    16  H   -0.000043   0.000063  -0.000011   0.000091   0.000004  -0.000001
             13         14         15         16
     1  O   -0.000122   0.000023   0.000019  -0.000004
     2  C   -0.000103  -0.000196  -0.000267   0.000023
     3  H    0.000164  -0.001853   0.000229  -0.000055
     4  H   -0.000093   0.001582  -0.002392   0.000297
     5  C    0.001456  -0.002677  -0.000145   0.000174
     6  C    0.000898   0.000192   0.000537  -0.000382
     7  H    0.000127   0.000063   0.000011  -0.000043
     8  H   -0.000013  -0.000002  -0.000148   0.000063
     9  H    0.000092  -0.000065   0.000007  -0.000011
    10  C   -0.001756   0.002253   0.000050   0.000091
    11  H   -0.000979   0.000033  -0.000002   0.000004
    12  H    0.000270  -0.000046  -0.000004  -0.000001
    13  H    0.000097  -0.000117  -0.000004  -0.000013
    14  O   -0.000117   0.006713  -0.000440  -0.000613
    15  O   -0.000004  -0.000440   0.007527  -0.000300
    16  H   -0.000013  -0.000613  -0.000300   0.001544
 Mulliken atomic spin densities:
              1
     1  O    0.868817
     2  C   -0.066917
     3  H    0.042424
     4  H    0.120696
     5  C    0.019962
     6  C   -0.001008
     7  H    0.000257
     8  H    0.000236
     9  H   -0.001288
    10  C    0.006962
    11  H   -0.000376
    12  H    0.000029
    13  H   -0.000097
    14  O    0.004850
    15  O    0.004678
    16  H    0.000775
 Sum of Mulliken spin densities=   1.00000
 APT atomic charges:
              1
     1  O   -0.213994
     2  C    0.011820
     3  H    0.010401
     4  H    0.132664
     5  C    0.496393
     6  C   -0.044151
     7  H   -0.011718
     8  H   -0.001156
     9  H    0.032172
    10  C   -0.016589
    11  H    0.014966
    12  H    0.002490
    13  H    0.001167
    14  O   -0.327520
    15  O   -0.340455
    16  H    0.253511
 Sum of APT charges=   0.00000
 APT Atomic charges with hydrogens summed into heavy atoms:
              1
     1  O   -0.213994
     2  C    0.154884
     3  H    0.000000
     4  H    0.000000
     5  C    0.496393
     6  C   -0.024853
     7  H    0.000000
     8  H    0.000000
     9  H    0.000000
    10  C    0.002033
    11  H    0.000000
    12  H    0.000000
    13  H    0.000000
    14  O   -0.327520
    15  O   -0.086943
    16  H    0.000000
 Sum of APT charges=   0.00000
 Electronic spatial extent (au):  <R**2>=   821.4462
 Charge=     0.0000 electrons
 Dipole moment (field-independent basis, Debye):
    X=     1.5726    Y=    -1.2294    Z=    -0.5077  Tot=     2.0597
 Quadrupole moment (field-independent basis, Debye-Ang):
   XX=   -41.9788   YY=   -46.5174   ZZ=   -41.9894
   XY=    -1.2229   XZ=    -3.1197   YZ=    -2.4362
 Traceless Quadrupole moment (field-independent basis, Debye-Ang):
   XX=     1.5164   YY=    -3.0223   ZZ=     1.5058
   XY=    -1.2229   XZ=    -3.1197   YZ=    -2.4362
 Octapole moment (field-independent basis, Debye-Ang**2):
  XXX=    42.0276  YYY=    26.6131  ZZZ=     1.3447  XYY=    23.7398
  XXY=     9.0957  XXZ=     0.8579  XZZ=    25.1962  YZZ=     4.3767
  YYZ=    -5.0020  XYZ=     8.6030
 Hexadecapole moment (field-independent basis, Debye-Ang**3):
 XXXX=  -262.7715 YYYY=  -368.3975 ZZZZ=  -362.9165 XXXY=    11.6441
 XXXZ=    11.7294 YYYX=    11.7967 YYYZ=   -40.7771 ZZZX=   -11.6253
 ZZZY=   -14.8376 XXYY=  -108.1145 XXZZ=  -107.6637 YYZZ=  -114.4524
 XXYZ=   -13.6750 YYXZ=     2.6229 ZZXY=    -7.4066
 N-N= 3.355731486991D+02 E-N=-1.570826922691D+03  KE= 3.821998903031D+02
  Exact polarizability:  57.538  -2.858  57.959  -3.235   1.966  64.839
 Approx polarizability:  74.085   0.041  81.560  -2.981   4.396  93.536
                          Isotropic Fermi Contact Couplings
        Atom                 a.u.       MegaHertz       Gauss      10(-4) cm-1
     1  O(17)              0.05284     -32.03067     -11.42934     -10.68428
     2  C(13)             -0.03446     -38.74189     -13.82407     -12.92290
     3  H(1)               0.01921      85.86661      30.63934      28.64202
     4  H(1)               0.05927     264.93255      94.53452      88.37199
     5  C(13)              0.00179       2.01293       0.71827       0.67144
     6  C(13)             -0.00106      -1.19389      -0.42601      -0.39824
     7  H(1)               0.00010       0.45054       0.16077       0.15029
     8  H(1)               0.00001       0.05432       0.01938       0.01812
     9  H(1)               0.00011       0.50656       0.18075       0.16897
    10  C(13)             -0.00071      -0.79952      -0.28529      -0.26669
    11  H(1)               0.00023       1.03469       0.36920       0.34513
    12  H(1)               0.00017       0.74943       0.26742       0.24998
    13  H(1)              -0.00003      -0.15166      -0.05412      -0.05059
    14  O(17)              0.00076      -0.46146      -0.16466      -0.15393
    15  O(17)              0.00585      -3.54650      -1.26548      -1.18299
    16  H(1)               0.00051       2.26219       0.80721       0.75459
 --------------------------------------------------------
       Center         ----  Spin Dipole Couplings  ----
                      3XX-RR        3YY-RR        3ZZ-RR
 --------------------------------------------------------
     1   Atom       -0.667311     -0.143361      0.810671
     2   Atom       -0.038522      0.018666      0.019855
     3   Atom        0.008283     -0.002585     -0.005699
     4   Atom       -0.016459     -0.006780      0.023238
     5   Atom       -0.008071      0.024495     -0.016424
     6   Atom        0.003030      0.000881     -0.003911
     7   Atom        0.001391      0.000635     -0.002025
     8   Atom        0.004140     -0.001933     -0.002207
     9   Atom        0.008917     -0.002914     -0.006003
    10   Atom       -0.008538      0.002931      0.005607
    11   Atom       -0.006763      0.008108     -0.001345
    12   Atom       -0.002653      0.005746     -0.003093
    13   Atom       -0.002181      0.003801     -0.001620
    14   Atom        0.010091      0.007495     -0.017585
    15   Atom       -0.016653      0.029788     -0.013134
    16   Atom       -0.000040      0.000297     -0.000257
 --------------------------------------------------------
                        XY            XZ            YZ
 --------------------------------------------------------
     1   Atom        1.304103     -1.648150     -2.011951
     2   Atom        0.033435     -0.022753     -0.002178
     3   Atom        0.009215      0.013071      0.008791
     4   Atom        0.002060     -0.004487      0.000974
     5   Atom       -0.021366      0.000961      0.000996
     6   Atom       -0.006978     -0.001531      0.001193
     7   Atom       -0.003222     -0.000168      0.000214
     8   Atom       -0.004142     -0.003125      0.001933
     9   Atom       -0.007329      0.001673     -0.000924
    10   Atom       -0.001631      0.001696     -0.002359
    11   Atom       -0.002856      0.001736     -0.007547
    12   Atom        0.002396     -0.000775     -0.002079
    13   Atom       -0.001915      0.000313     -0.001330
    14   Atom       -0.025952     -0.004278      0.006522
    15   Atom       -0.000323     -0.001666     -0.001989
    16   Atom       -0.001894     -0.001814      0.002270
 --------------------------------------------------------


 ---------------------------------------------------------------------------------
              Anisotropic Spin Dipole Couplings in Principal Axis System
 ---------------------------------------------------------------------------------

       Atom             a.u.   MegaHertz   Gauss  10(-4) cm-1        Axes

              Baa    -1.7355   125.579    44.810    41.889  0.7966 -0.6032  0.0390
     1 O(17)  Bbb    -1.7337   125.450    44.764    41.846  0.4003  0.5747  0.7138
              Bcc     3.4692  -251.029   -89.574   -83.734 -0.4530 -0.5530  0.6993
 
              Baa    -0.0590    -7.912    -2.823    -2.639  0.8924 -0.3774  0.2472
     2 C(13)  Bbb     0.0174     2.335     0.833     0.779  0.0297  0.5958  0.8026
              Bcc     0.0416     5.578     1.990     1.861  0.4502  0.7089 -0.5429
 
              Baa    -0.0146    -7.815    -2.789    -2.607 -0.3456 -0.3657  0.8642
     3 H(1)   Bbb    -0.0077    -4.114    -1.468    -1.372 -0.5666  0.8154  0.1185
              Bcc     0.0224    11.929     4.257     3.979  0.7480  0.4487  0.4891
 
              Baa    -0.0174    -9.282    -3.312    -3.096  0.9735 -0.1992  0.1123
     4 H(1)   Bbb    -0.0064    -3.393    -1.211    -1.132  0.2006  0.9797 -0.0018
              Bcc     0.0238    12.676     4.523     4.228 -0.1096  0.0243  0.9937
 
              Baa    -0.0193    -2.584    -0.922    -0.862  0.8121  0.4062 -0.4190
     5 C(13)  Bbb    -0.0158    -2.124    -0.758    -0.708  0.3792  0.1785  0.9079
              Bcc     0.0351     4.707     1.680     1.570 -0.4436  0.8962  0.0091
 
              Baa    -0.0051    -0.686    -0.245    -0.229  0.6581  0.7467  0.0972
     6 C(13)  Bbb    -0.0042    -0.562    -0.200    -0.187  0.0459 -0.1686  0.9846
              Bcc     0.0093     1.248     0.445     0.416  0.7516 -0.6435 -0.1452
 
              Baa    -0.0022    -1.197    -0.427    -0.399  0.6404  0.7340 -0.2261
     7 H(1)   Bbb    -0.0020    -1.081    -0.386    -0.361  0.1814  0.1415  0.9732
              Bcc     0.0043     2.277     0.813     0.760  0.7463 -0.6642 -0.0425
 
              Baa    -0.0042    -2.227    -0.795    -0.743  0.2777  0.8681 -0.4115
     8 H(1)   Bbb    -0.0034    -1.831    -0.653    -0.611  0.4814  0.2449  0.8416
              Bcc     0.0076     4.058     1.448     1.354  0.8314 -0.4318 -0.3498
 
              Baa    -0.0065    -3.449    -1.231    -1.150  0.3624  0.8485  0.3857
     9 H(1)   Bbb    -0.0062    -3.282    -1.171    -1.095 -0.2522 -0.3091  0.9170
              Bcc     0.0126     6.731     2.402     2.245  0.8973 -0.4295  0.1020
 
              Baa    -0.0089    -1.194    -0.426    -0.398  0.9884  0.1171 -0.0966
    10 C(13)  Bbb     0.0016     0.213     0.076     0.071 -0.0500  0.8522  0.5209
              Bcc     0.0073     0.981     0.350     0.327  0.1433 -0.5100  0.8481
 
              Baa    -0.0073    -3.917    -1.398    -1.307  0.9832  0.1109 -0.1449
    11 H(1)   Bbb    -0.0055    -2.942    -1.050    -0.981  0.0718  0.4949  0.8660
              Bcc     0.0129     6.859     2.447     2.288 -0.1678  0.8619 -0.4786
 
              Baa    -0.0037    -1.970    -0.703    -0.657  0.4956  0.0650  0.8661
    12 H(1)   Bbb    -0.0032    -1.696    -0.605    -0.566  0.8304 -0.3279 -0.4505
              Bcc     0.0069     3.666     1.308     1.223  0.2547  0.9425 -0.2165
 
              Baa    -0.0027    -1.466    -0.523    -0.489  0.9516  0.2954  0.0846
    13 H(1)   Bbb    -0.0019    -1.019    -0.364    -0.340 -0.1421  0.1790  0.9735
              Bcc     0.0047     2.485     0.887     0.829 -0.2725  0.9384 -0.2124
 
              Baa    -0.0198     1.435     0.512     0.479 -0.2988 -0.4805  0.8245
    14 O(17)  Bbb    -0.0160     1.159     0.414     0.387  0.6331  0.5467  0.5480
              Bcc     0.0359    -2.595    -0.926    -0.865  0.7141 -0.6858 -0.1408
 
              Baa    -0.0173     1.255     0.448     0.419  0.9258  0.0223  0.3773
    15 O(17)  Bbb    -0.0125     0.907     0.324     0.303 -0.3779  0.0406  0.9249
              Bcc     0.0299    -2.162    -0.772    -0.721 -0.0053  0.9989 -0.0460
 
              Baa    -0.0023    -1.217    -0.434    -0.406  0.1364 -0.5964  0.7910
    16 H(1)   Bbb    -0.0017    -0.920    -0.328    -0.307  0.8281  0.5069  0.2394
              Bcc     0.0040     2.137     0.763     0.713 -0.5438  0.6224  0.5630
 

 ---------------------------------------------------------------------------------

 Use density number 0.
 Entering OneElI...
 Calculate overlap and kinetic energy integrals
    NBasis = 187  MinDer = 2  MaxDer = 2
 Requested accuracy = 0.1000D-12
 PrsmSu:  NPrtUS=   1 ThrOK=F
 PRISM was handed   130758548 working-precision words and  2548 shell-pairs
 Entering OneElI...
 Calculate potential energy integrals
    NBasis = 187  MinDer = 2  MaxDer = 2
 Requested accuracy = 0.1000D-12
 PrsmSu:  NPrtUS=   8 ThrOK=T
 PRISM was handed    16300031 working-precision words and  2426 shell-pairs
 PRISM was handed    16300031 working-precision words and  2426 shell-pairs
 PRISM was handed    16300031 working-precision words and  2426 shell-pairs
 PRISM was handed    16300031 working-precision words and  2426 shell-pairs
 PRISM was handed    16300031 working-precision words and  2426 shell-pairs
 PRISM was handed    16300031 working-precision words and  2426 shell-pairs
 PRISM was handed    16300031 working-precision words and  2426 shell-pairs
 PRISM was handed    16300031 working-precision words and  2426 shell-pairs
 Polarizability after L701:
                1             2             3
      1  0.575377D+02
      2 -0.285751D+01  0.579585D+02
      3 -0.323472D+01  0.196583D+01  0.648391D+02
 Dipole Derivatives after L701:
               1            2            3            4            5
      1-0.171672D+00-0.253339D-01-0.451942D-01-0.935876D-01 0.140309D+00
      2-0.618678D-01-0.307198D+00 0.289965D-01 0.315367D+00 0.230083D+00
      3-0.162582D-02 0.789732D-01-0.163113D+00 0.828521D-01-0.101964D+00
               6            7            8            9           10
      1 0.543066D-01-0.132485D+00-0.123832D+00-0.188215D-01 0.225839D+00
      2-0.164676D+00-0.163094D-01 0.574442D-01 0.360338D-01-0.147880D+00
      3-0.101036D+00-0.246908D-01-0.315461D-01 0.106243D+00 0.736138D-02
              11           12           13           14           15
      1-0.583665D-01 0.256160D-01 0.554136D+00-0.155191D-01-0.383908D-01
      2 0.661134D-01 0.997359D-01-0.115569D+00 0.412362D+00 0.217873D+00
      3 0.601283D-01 0.106040D+00-0.171165D-01 0.242755D+00 0.522681D+00
              16           17           18           19           20
      1-0.118257D+00-0.988021D-02 0.181274D-01-0.265969D-01 0.108958D+00
      2-0.829709D-01 0.201065D-02-0.254208D-01 0.716554D-01-0.790574D-01
      3-0.358582D-01-0.495003D-01-0.162076D-01-0.115747D-01 0.385964D-01
              21           22           23           24           25
      1-0.171813D-01 0.242250D-01-0.198222D-01 0.920351D-01 0.848600D-01
      2 0.293835D-01-0.154255D-01 0.410567D-01 0.808181D-01-0.327537D-02
      3 0.704993D-01 0.333197D-01 0.711424D-01-0.687499D-01-0.405346D-02
              26           27           28           29           30
      1-0.409259D-01-0.388542D-01 0.207018D-01-0.698183D-02 0.398372D-01
      2 0.205256D-01-0.686728D-01 0.222814D-01 0.264695D-01-0.276332D-02
      3-0.824977D-01-0.886837D-02 0.247041D-01-0.339587D-01-0.969396D-01
              31           32           33           34           35
      1 0.739660D-01-0.214692D-01 0.256161D-03-0.113775D+00-0.350301D-01
      2-0.191419D-01 0.531772D-02-0.535431D-01-0.616805D-01 0.516937D-01
      3-0.122217D-01-0.813709D-01-0.343870D-01 0.599528D-02 0.246520D-01
              36           37           38           39           40
      1-0.330812D-01 0.466676D-02 0.800401D-01-0.473027D-02-0.356696D+00
      2-0.506183D-02 0.102580D+00-0.724197D-01 0.353312D-01 0.605308D-01
      3 0.695515D-01-0.161370D-01 0.543197D-01 0.712543D-01-0.148725D+00
              41           42           43           44           45
      1 0.802393D-01-0.648964D-01-0.195967D+00-0.135777D+00 0.383694D-01
      2-0.480376D+00-0.142797D+00-0.104394D+00-0.215881D+00-0.145178D+00
      3-0.228422D+00-0.145489D+00 0.129197D+00-0.540639D-01-0.609516D+00
              46           47           48
      1 0.220642D+00 0.833928D-01-0.739824D-02
      2 0.560996D-01 0.241855D+00 0.799414D-01
      3-0.114258D-01 0.927567D-01 0.298036D+00
 Hessian after L701:
                1             2             3             4             5
      1  0.926150D+01
      2  0.223005D+00  0.277137D+01
      3 -0.544545D+00 -0.535411D+01  0.532782D+01
      4 -0.958446D+01  0.105430D+01  0.975289D+00  0.201627D+02
      5  0.998388D+00 -0.384861D+01  0.542238D+01  0.120654D+01  0.131258D+02
      6  0.955461D+00  0.542528D+01 -0.463980D+01 -0.563820D+00 -0.427995D+01
      7  0.438456D+00  0.643468D-01  0.123413D+00 -0.157863D+01  0.992113D+00
      8  0.571753D-01 -0.158856D+00 -0.115608D+00  0.758055D+00 -0.445380D+01
      9  0.869436D-01 -0.141669D+00 -0.962000D-02  0.495077D+00  0.150777D+00
     10  0.574613D-02 -0.163721D-01 -0.808494D-01 -0.443791D+01  0.252650D+00
     11  0.328294D-02 -0.243364D-01 -0.975742D-01  0.366597D+00 -0.415147D+01
     12 -0.494268D-01 -0.314967D-01  0.227965D+00 -0.733295D+00 -0.108140D+01
     13  0.409700D+00 -0.544310D+00 -0.160983D+00 -0.436269D+01 -0.287961D+01
     14 -0.534192D+00  0.183753D+00 -0.450217D+00 -0.286741D+01 -0.135486D+01
     15 -0.160328D+00 -0.447222D+00 -0.321850D+00 -0.219886D-01 -0.227610D+00
     16 -0.679763D-02 -0.365573D+00 -0.160196D+00 -0.351552D-01  0.126627D+00
     17 -0.438570D+00  0.159869D+00  0.207995D+00  0.265817D-02  0.140526D+00
     18 -0.203785D+00  0.225297D+00 -0.233148D+00 -0.201345D-01 -0.931926D-02
     19  0.177261D-01 -0.389850D-01 -0.785824D-02  0.137227D+00 -0.131240D+00
     20 -0.370654D-01  0.289547D-01  0.858653D-02 -0.126181D+00  0.232003D-01
     21  0.640256D-03 -0.730173D-03 -0.167482D-01  0.318744D-01 -0.226652D-01
     22  0.331248D-01 -0.375839D-01 -0.421203D-01 -0.277858D-01  0.189630D-02
     23 -0.132146D-01 -0.238165D-01  0.673554D-02  0.946978D-03  0.194161D-02
     24 -0.627501D-01  0.377917D-01  0.139959D-01 -0.224595D-01 -0.936971D-04
     25  0.116019D+00 -0.158239D+00 -0.201702D-01  0.851314D-02  0.216128D-01
     26 -0.782209D-01 -0.680702D-01  0.898567D-02  0.257575D-01 -0.167235D-01
     27  0.504262D-01 -0.302163D-01 -0.125583D+00  0.403661D-01  0.100072D-01
     28 -0.243133D+00 -0.931435D-01  0.654325D-02  0.830208D-02 -0.290962D-01
     29 -0.781429D-01  0.415843D+00 -0.913701D-01  0.394788D-01  0.226520D+00
     30  0.528354D-02 -0.295028D-01 -0.253372D+00 -0.483911D-01 -0.714035D-01
     31 -0.864707D-01 -0.240860D-01  0.903659D-02 -0.113160D-01 -0.669945D-02
     32 -0.112756D-01  0.864250D-01 -0.724587D-01 -0.251231D-02 -0.380239D-01
     33  0.133614D-01 -0.167161D+00 -0.141962D-01  0.107654D-01 -0.278524D-02
     34 -0.917106D-02  0.691838D-01 -0.506720D-02  0.178238D-01  0.953371D-02
     35  0.263849D-01  0.624686D-01 -0.994183D-02  0.282583D-02 -0.166322D-01
     36 -0.251782D-02 -0.737442D-02 -0.267305D-01  0.555511D-02  0.281038D-01
     37 -0.880735D-02 -0.280589D-01  0.194452D-02 -0.309120D-01 -0.738889D-01
     38 -0.166950D-01  0.530456D-01 -0.608707D-02 -0.706773D-01  0.146118D+00
     39  0.306614D-02 -0.128599D-01 -0.151095D-01  0.387739D-01 -0.107385D+00
     40 -0.203425D+00 -0.508911D-01 -0.312235D-01  0.403173D-02 -0.431150D+00
     41 -0.461262D-01  0.315692D+00  0.307151D+00 -0.319181D+00  0.333833D+00
     42 -0.286895D-01  0.317671D+00 -0.214788D-01 -0.921133D-01 -0.165740D-01
     43 -0.141010D+00 -0.327042D-01 -0.425730D-01 -0.266042D+00 -0.356738D-01
     44 -0.446028D-01  0.325301D-01  0.213923D+00 -0.557282D-01 -0.127579D+00
     45 -0.560190D-01  0.201199D+00  0.995628D-01 -0.878124D-01  0.189716D+00
     46  0.100048D-02 -0.208919D-01 -0.206401D-01 -0.366018D-02 -0.220074D-01
     47 -0.101314D-01  0.137388D-01  0.216079D-01 -0.154776D-01  0.978516D-02
     48 -0.712163D-02  0.151003D-01  0.829954D-02 -0.768530D-02  0.181986D-01
                6             7             8             9            10
      6  0.170313D+02
      7  0.526815D+00  0.115183D+01
      8  0.121213D+00 -0.859385D+00  0.434136D+01
      9 -0.454452D+01 -0.574073D+00 -0.109995D+00  0.435606D+01
     10 -0.604757D+00 -0.136868D-01 -0.434346D-01  0.777781D-01  0.453848D+01
     11 -0.131209D+01 -0.581113D-01  0.606910D-01  0.420654D-01 -0.181329D+00
     12 -0.184893D+01  0.457043D-01  0.216352D-01  0.510293D-01  0.711921D+00
     13 -0.459398D-01 -0.365472D+00  0.255635D+00 -0.246639D-01  0.110144D+00
     14 -0.185724D+00  0.189844D+00  0.246070D+00 -0.120731D-01  0.254602D-01
     15 -0.609936D+01 -0.137658D-01 -0.819150D-02  0.295745D+00 -0.354469D-01
     16 -0.426423D-01  0.273662D+00 -0.612906D-01  0.311082D-01 -0.417715D-01
     17 -0.788649D-02 -0.682235D-01 -0.653919D-01 -0.838255D-02  0.417839D-01
     18  0.147225D+00  0.268230D-01 -0.594085D-02 -0.690329D-01 -0.340886D-01
     19  0.221853D-01 -0.233266D-02  0.610683D-02 -0.583684D-03  0.111484D-02
     20 -0.135182D-01 -0.489003D-02 -0.136691D-02 -0.815254D-03 -0.259478D-02
     21 -0.520717D-01  0.442458D-03  0.665866D-03  0.489956D-03  0.177420D-02
     22 -0.140219D-01  0.113426D-01  0.120911D-02 -0.571332D-03  0.330809D-01
     23 -0.415193D-02  0.423530D-02 -0.142126D-02  0.696244D-05 -0.140561D-01
     24  0.160686D-01 -0.107415D-01 -0.137293D-02 -0.217293D-02 -0.202428D-03
     25  0.232591D-01  0.293218D-01  0.168976D-02  0.101793D-01  0.422997D-02
     26  0.718981D-02  0.800139D-02 -0.483606D-02  0.150160D-02 -0.104825D-02
     27  0.340771D-02  0.190611D-01  0.141074D-02 -0.104050D-02  0.100331D-01
     28  0.175707D-01  0.368785D-03  0.317567D-01 -0.188679D-01 -0.532195D-01
     29 -0.945357D-01  0.223621D-01 -0.322741D-01  0.220146D-01  0.723293D-03
     30  0.191145D-02 -0.290743D-01  0.376983D-01 -0.148625D-01  0.193714D-02
     31  0.186298D-01  0.402815D-02 -0.374600D-02  0.107711D-01 -0.476342D-02
     32  0.155028D-01 -0.522165D-03 -0.454388D-02 -0.411816D-02 -0.967487D-03
     33  0.375257D-01  0.256176D-01 -0.515283D-02  0.145874D-01 -0.639571D-03
     34  0.152599D-02 -0.338457D-01 -0.181447D-02 -0.150709D-02  0.169727D-02
     35  0.196045D-01 -0.265251D-01  0.278262D-01 -0.415096D-01  0.186988D-02
     36 -0.223241D-01  0.162409D-01 -0.379040D-01  0.375334D-02 -0.101006D-02
     37  0.363125D-01  0.605745D-02  0.511281D-03  0.140210D-02 -0.802084D-03
     38 -0.958349D-01 -0.917539D-02 -0.179314D-02 -0.161118D-02  0.276885D-02
     39 -0.610148D-02  0.237676D-02  0.740551D-03 -0.864106D-03 -0.130579D-02
     40 -0.172156D+00  0.329541D-01 -0.120274D+00 -0.523777D-01 -0.115619D-01
     41  0.444795D-01 -0.200453D+00  0.726184D-01  0.792417D-01 -0.305986D-02
     42 -0.274386D+00 -0.916372D-01  0.834741D-01 -0.781586D-01  0.151922D-02
     43 -0.127499D+00  0.338953D-01 -0.202785D-01 -0.367338D-01 -0.128057D+00
     44  0.328814D+00 -0.441477D-01 -0.237389D-01  0.219108D-01 -0.701030D-01
     45  0.247817D+00 -0.600858D-01  0.155852D-01 -0.205405D-02 -0.521034D-01
     46 -0.309220D-01  0.120534D-01 -0.191575D-02 -0.388010D-02 -0.271453D-02
     47  0.316043D-01 -0.946995D-02 -0.544056D-03  0.265595D-02  0.770982D-02
     48  0.225714D-02 -0.711546D-02  0.174210D-02  0.661268D-03  0.544083D-02
               11            12            13            14            15
     11  0.389068D+01
     12  0.119506D+01  0.152895D+01
     13 -0.262184D-01  0.206829D-01  0.176052D+02
     14 -0.153110D-01  0.599640D-01 -0.556753D-01  0.156494D+02
     15  0.136542D+00  0.358161D-01 -0.245805D+00 -0.123434D+01  0.161880D+02
     16  0.532943D-01 -0.234007D-01 -0.711111D+00  0.150050D+01  0.387923D+00
     17 -0.118493D-01  0.376813D-02  0.143038D+01 -0.572798D+01 -0.556753D-01
     18  0.241230D-01  0.843355D-02  0.419811D+00 -0.525802D-01 -0.599206D+01
     19 -0.747709D-02  0.929802D-02  0.398179D-01  0.721975D-01  0.286916D-01
     20  0.558716D-02 -0.103779D-01 -0.128302D-01  0.742472D-01 -0.204498D-01
     21 -0.348711D-02  0.179798D-02  0.224676D-01 -0.407838D-02  0.709520D-01
     22 -0.286696D-01  0.200878D-01  0.574410D-01 -0.523714D-01  0.978405D-01
     23 -0.120125D-01 -0.134173D-02 -0.159657D-01  0.709666D-01  0.342102D-01
     24  0.350247D-02 -0.262058D-01 -0.151307D-02  0.661592D-02  0.821374D-01
     25 -0.558755D-02  0.162750D-01  0.250286D-01 -0.738795D-01 -0.116591D+00
     26 -0.713765D-02  0.423918D-02 -0.136944D-01  0.653739D-01 -0.375686D-01
     27 -0.799691D-02  0.158333D-01 -0.451980D-01 -0.275687D-01  0.362999D-01
     28  0.148704D-02  0.394653D-02 -0.584807D+01  0.738293D+00 -0.134768D+01
     29  0.787128D-01 -0.144665D+00  0.763050D+00 -0.510942D+01 -0.234970D+01
     30 -0.135259D+00  0.835129D-01 -0.138886D+01 -0.235801D+01 -0.234655D+01
     31 -0.101272D-02  0.221538D-02  0.102277D+00  0.222471D-01 -0.112213D-01
     32 -0.909437D-03 -0.543334D-02  0.920461D-02  0.114985D+00  0.227484D-01
     33 -0.159052D-01  0.247770D-01 -0.530836D-01 -0.771104D-01 -0.769425D-01
     34  0.679925D-02 -0.108391D-01  0.576288D-01 -0.155081D-01 -0.312280D-01
     35  0.260168D-02 -0.650725D-02 -0.551372D-01  0.323146D-01 -0.404281D-02
     36 -0.181876D-02  0.109254D-02  0.578232D-01  0.260899D-01  0.886594D-01
     37 -0.252496D-02  0.444148D-02  0.724598D-01 -0.392127D-01  0.238315D-01
     38  0.172324D-03 -0.619093D-02  0.104187D-01  0.349459D-01 -0.458701D-01
     39  0.260111D-02  0.217990D-03 -0.262191D-01  0.246466D-01  0.104021D+00
     40 -0.291596D-01  0.911141D-02 -0.740621D+01  0.115909D+01  0.116037D+01
     41  0.530896D-01 -0.736497D-01  0.120280D+01 -0.426859D+01  0.400404D+01
     42 -0.187894D-01 -0.169351D-01  0.123284D+01  0.408204D+01 -0.204894D+01
     43 -0.940033D-01 -0.385145D-01  0.177096D+00 -0.392053D-01  0.360546D+00
     44  0.136899D+00  0.899220D-01 -0.347739D-01  0.103514D-01  0.212405D+00
     45  0.197069D+00 -0.817338D-01  0.300559D+00  0.192241D+00  0.436522D-04
     46  0.263348D-02  0.117924D-01  0.367550D-01 -0.301847D-01 -0.751422D-01
     47 -0.541018D-02 -0.135254D-01 -0.332781D-01 -0.623125D-02  0.207210D-01
     48 -0.803967D-02 -0.561592D-02 -0.619196D-01  0.101047D-01 -0.160066D-01
               16            17            18            19            20
     16  0.123056D+02
     17 -0.944426D+00  0.157767D+02
     18 -0.407268D+00 -0.282449D+00  0.155129D+02
     19 -0.349109D+01 -0.144704D+01  0.295725D+00  0.302609D+01
     20 -0.122167D+01 -0.256448D+01 -0.388601D+00  0.142908D+01  0.262154D+01
     21  0.281406D+00 -0.436567D+00 -0.433339D+01 -0.447571D+00  0.401303D+00
     22 -0.430358D+01  0.469295D+00 -0.101226D+01  0.986462D-01  0.150383D-01
     23  0.353844D+00 -0.407056D+01 -0.112953D+01  0.235594D-01 -0.269363D-01
     24 -0.719723D+00 -0.104969D+01 -0.243686D+01 -0.269225D-01  0.852807D-01
     25 -0.442690D+01  0.463689D+00  0.498929D+00  0.688326D-01  0.290019D-01
     26  0.267870D+00 -0.317929D+01  0.142421D+01  0.316525D-01 -0.582261D-01
     27  0.287789D+00  0.144281D+01 -0.290824D+01  0.171287D-01 -0.310807D-01
     28  0.779202D-01  0.799745D-01 -0.126215D+00 -0.167722D-01 -0.309889D-01
     29  0.727422D-02  0.501922D-01 -0.449904D-01 -0.125013D-01 -0.334808D-02
     30 -0.547558D-02 -0.220712D-01  0.385267D-01  0.273484D-02  0.477091D-02
     31 -0.989685D-02 -0.341401D-02 -0.210416D-01  0.343500D-02 -0.401383D-02
     32 -0.151418D-01 -0.271903D-01  0.232804D-01 -0.718495D-02  0.280892D-02
     33 -0.221611D-01  0.339383D-02  0.329008D-01 -0.127752D-01  0.103508D-01
     34  0.167703D+00  0.103241D+00 -0.775447D-01  0.140197D-01 -0.785785D-02
     35  0.105773D+00 -0.142912D-01 -0.337930D-01  0.276575D-02 -0.352689D-02
     36 -0.827105D-01 -0.355509D-01 -0.387557D-01 -0.167205D-02  0.281992D-03
     37 -0.391393D-02 -0.237447D-01  0.247705D-01  0.145046D-01  0.158324D-01
     38 -0.183968D-01  0.265618D-02  0.139497D-01  0.400072D-01 -0.158134D-01
     39  0.288009D-01  0.316346D-01 -0.253892D-01 -0.308552D-01 -0.843670D-02
     40  0.516360D+00  0.283143D+00  0.362019D+00  0.700200D-01 -0.103203D-01
     41  0.158809D+00 -0.160613D+00  0.179727D-01  0.464662D-01 -0.557059D-01
     42  0.282129D+00  0.546572D-01 -0.571248D-01  0.967251D-01 -0.482425D-02
     43 -0.259908D+00  0.596120D-01  0.294264D+00  0.266721D-01 -0.353289D-01
     44  0.415215D-01 -0.294053D+00  0.113706D+00 -0.129226D-01 -0.190852D-01
     45  0.133129D+00  0.804921D-01  0.204099D+00  0.479757D-01 -0.278060D-01
     46 -0.510830D-01 -0.836406D-02 -0.200036D-01 -0.791281D-02  0.478356D-02
     47  0.109790D-01 -0.141872D-01  0.104663D+00  0.551255D-02 -0.785134D-02
     48  0.312920D-01  0.735190D-01  0.149914D+00  0.777295D-02 -0.466454D-02
               21            22            23            24            25
     21  0.424712D+01
     22 -0.269207D-01  0.390974D+01
     23  0.121983D+00 -0.577147D+00  0.406343D+01
     24  0.128772D-01  0.934486D+00  0.101367D+01  0.244585D+01
     25  0.245618D-01  0.736414D-01  0.970776D-02  0.471479D-02  0.408488D+01
     26 -0.650918D-01  0.818964D-02  0.788016D-01 -0.103219D-02 -0.414977D+00
     27  0.598139D-01  0.169517D-01 -0.440277D-01 -0.700824D-01 -0.525519D+00
     28 -0.132215D-03  0.511409D-01  0.763138D-01 -0.109844D+00  0.622863D-02
     29 -0.541181D-03  0.802091D-01 -0.186766D-03 -0.784897D-01  0.218921D-01
     30 -0.334434D-02 -0.116647D+00 -0.796995D-01  0.540744D-01  0.977491D-02
     31 -0.277570D-02  0.185404D-03  0.129901D-02 -0.355254D-02  0.941153D-02
     32  0.173835D-02 -0.137385D-02 -0.344332D-02  0.332273D-02  0.844152D-02
     33  0.718248D-03 -0.774451D-02 -0.531059D-02  0.118421D-01 -0.231399D-01
     34  0.859919D-04 -0.534068D-03  0.170181D-02 -0.548152D-02  0.546574D-02
     35  0.119157D-03 -0.255727D-02  0.151525D-03 -0.103687D-02  0.316687D-02
     36 -0.207564D-02  0.475565D-02  0.190265D-02 -0.108182D-02  0.248012D-03
     37 -0.178631D-01 -0.287845D-02 -0.673064D-03  0.162554D-02 -0.290824D-02
     38 -0.147305D-01  0.646788D-02  0.715888D-02 -0.120725D-01  0.852046D-02
     39 -0.781108D-02 -0.366357D-02 -0.514604D-02  0.376023D-02 -0.130269D-02
     40  0.846868D-01  0.340349D-01  0.408089D-01 -0.383162D-01  0.446259D-02
     41  0.296782D-01  0.226492D-01 -0.717057D-03 -0.317447D-01  0.713436D-01
     42 -0.378923D-02 -0.116885D-02  0.492277D-03 -0.233051D-01  0.713296D-01
     43  0.505624D-01  0.435547D-01  0.116667D+00  0.594753D-01 -0.344117D-02
     44 -0.133025D-01  0.865429D-01 -0.890228D-01  0.268688D-01  0.122031D-01
     45  0.190067D-01  0.146187D+00  0.829797D-01 -0.749647D-01  0.268466D-01
     46 -0.323989D-02 -0.111532D-01 -0.802773D-02  0.120501D-02 -0.278378D-02
     47  0.570628D-02  0.820524D-02  0.567191D-02 -0.152317D-02  0.141407D-02
     48  0.645381D-02  0.481076D-02  0.722054D-02 -0.592826D-02  0.604884D-03
               26            27            28            29            30
     26  0.312365D+01
     27 -0.145675D+01  0.293699D+01
     28  0.430087D-01  0.199923D-01  0.161351D+02
     29  0.137043D-01  0.154690D-01 -0.442538D+00  0.149482D+02
     30  0.752352D-02 -0.178620D-01  0.104423D+01  0.163608D+01  0.129104D+02
     31  0.159988D-01 -0.705659D-02 -0.441200D+01  0.145408D+00  0.193487D+00
     32 -0.922195D-02 -0.623244D-02  0.159937D+00 -0.349271D+01  0.125834D+01
     33 -0.205329D-01 -0.983143D-02  0.259285D+00  0.153935D+01 -0.248492D+01
     34  0.100138D-01  0.704458D-02 -0.171814D+01  0.716005D+00  0.305607D+00
     35  0.262572D-02  0.285720D-02  0.839609D+00 -0.422284D+01  0.102322D+00
     36  0.284377D-03 -0.133792D-02  0.631127D-01  0.232069D-01 -0.444989D+01
     37 -0.159373D-03 -0.193282D-02 -0.358603D+01 -0.123070D+01  0.189422D+00
     38  0.165866D-01  0.693708D-02 -0.134844D+01 -0.238544D+01 -0.293412D+00
     39 -0.340946D-02 -0.436623D-02  0.323690D+00 -0.469801D+00 -0.435277D+01
     40  0.765636D-01  0.775766D-01 -0.207333D+00 -0.520621D-01 -0.620825D-01
     41  0.448169D-01  0.924588D-01 -0.463799D-01 -0.300004D+00  0.598694D-01
     42  0.939389D-01  0.430990D-01 -0.321657D-01  0.151961D+00  0.377644D+00
     43  0.260562D-01  0.396467D-01 -0.191157D+00  0.256376D-01 -0.886267D-01
     44 -0.559923D-02  0.251470D-01  0.236391D-01 -0.184773D+00 -0.126357D+00
     45  0.333859D-01  0.393872D-01 -0.105428D+00 -0.115457D+00  0.466285D+00
     46 -0.501202D-02 -0.630924D-02 -0.319510D-02 -0.610010D-02 -0.133205D-01
     47  0.354213D-02  0.677043D-02 -0.343256D-02 -0.215919D-02  0.911593D-02
     48  0.312455D-02  0.350791D-02  0.196709D-02  0.146998D-02 -0.875760D-02
               31            32            33            34            35
     31  0.439748D+01
     32 -0.117073D+00  0.343344D+01
     33 -0.149398D+00 -0.122912D+01  0.216237D+01
     34  0.848404D-02 -0.401778D-01 -0.571151D-01  0.157715D+01
     35 -0.754176D-01  0.261967D-01 -0.519840D-01 -0.908740D+00  0.412194D+01
     36 -0.743344D-01 -0.362438D-01  0.313520D-01  0.805230D-01  0.537999D-01
     37  0.612277D-01  0.200596D-01  0.159053D-01 -0.547198D-01  0.687527D-01
     38  0.512442D-01 -0.492569D-01 -0.564873D-01  0.396014D-01  0.712133D-01
     39  0.334307D-01 -0.646590D-01  0.561550D-01 -0.311480D-01  0.105322D-01
     40 -0.511623D-01 -0.243690D-03  0.349206D-02 -0.403429D-01  0.869588D-02
     41 -0.852418D-03 -0.295494D-01  0.737574D-01  0.861353D-02 -0.746606D-01
     42  0.115905D-02  0.764310D-01  0.184379D+00 -0.128961D+00 -0.247968D-01
     43 -0.103207D-01  0.239608D-02  0.539208D-02 -0.200548D-02  0.647702D-02
     44  0.259439D-03 -0.103335D-01 -0.648409D-03  0.140308D-01 -0.129528D-01
     45  0.154467D-02  0.141137D-01  0.237494D-01 -0.392242D-01 -0.142531D-01
     46 -0.592156D-03 -0.356596D-02 -0.776176D-02  0.878478D-02  0.205605D-02
     47 -0.141687D-03  0.133050D-02  0.534806D-02 -0.462586D-02 -0.243811D-02
     48 -0.893649D-03  0.279034D-02  0.553993D-02 -0.667143D-02 -0.136940D-02
               36            37            38            39            40
     36  0.422570D+01
     37 -0.881642D-02  0.361411D+01
     38 -0.204593D-02  0.131199D+01  0.217204D+01
     39  0.727962D-01 -0.340028D+00  0.635878D+00  0.403553D+01
     40 -0.351972D-01 -0.616428D-01 -0.440465D-02  0.150049D-02  0.116648D+02
     41 -0.355934D-02 -0.115962D-01 -0.493058D-01 -0.151883D-01 -0.151411D+01
     42  0.101202D+00  0.521696D-01 -0.843044D-01  0.113332D+00  0.218203D+00
     43 -0.173803D-01 -0.111908D-01 -0.961616D-02  0.751900D-02 -0.463395D+01
     44 -0.102687D-01 -0.842703D-02  0.232411D-02 -0.212080D-01  0.778641D+00
     45  0.141328D-01  0.148570D-01 -0.339457D-01  0.239680D-01 -0.158789D+01
     46 -0.461978D-02 -0.455222D-02  0.638776D-02 -0.463544D-02  0.289005D+00
     47  0.109629D-02  0.183693D-02 -0.464658D-02  0.205998D-02 -0.134333D+00
     48  0.350744D-02  0.195817D-02 -0.417227D-02  0.262552D-02  0.622882D-01
               41            42            43            44            45
     41  0.808627D+01
     42 -0.200842D+01  0.460519D+00
     43  0.723379D+00 -0.157229D+01  0.871035D+01
     44 -0.408746D+01 -0.286601D+01  0.132126D+01  0.996308D+01
     45 -0.269587D+01  0.149888D+01  0.256397D+01  0.127815D+01  0.336916D+01
     46 -0.923064D-01 -0.904593D-02 -0.334448D+01 -0.200739D+01 -0.124650D+01
     47  0.120283D+00  0.163061D+00 -0.201467D+01 -0.529059D+01  0.602410D+00
     48  0.119789D+00 -0.254940D+00 -0.145775D+01  0.726957D+00 -0.584734D+01
               46            47            48
     46  0.308453D+01
     47  0.218990D+01  0.517970D+01
     48  0.143303D+01 -0.961770D+00  0.595582D+01
 ReadGW:  IGet=0 IStart=         114 Next=        7213 LGW=        7099.
 ICntrl=12127.
 Symmetry not used in FoFDir.
 MinBra= 0 MaxBra= 2 Meth= 1.
 IRaf=       0 NMat=   1 IRICut=       1 DoRegI=T DoRafI=F ISym2E= 0 JSym2E=0.
 PrsmSu:  NPrtUS=   8 ThrOK=T
 PRISM was handed    16286026 working-precision words and  2501 shell-pairs
 PRISM was handed    16286026 working-precision words and  2501 shell-pairs
 PRISM was handed    16286026 working-precision words and  2501 shell-pairs
 PRISM was handed    16286026 working-precision words and  2501 shell-pairs
 PRISM was handed    16286026 working-precision words and  2501 shell-pairs
 PRISM was handed    16286026 working-precision words and  2501 shell-pairs
 PRISM was handed    16286026 working-precision words and  2501 shell-pairs
 PRISM was handed    16286026 working-precision words and  2501 shell-pairs
 Pruned (  75, 302) grid will be used in CalDFT.
 CkSvGd:  ISavGI=        -1 IRadAn=       4 IRASav=       4 ISavGd=        -1.
 CalDSu:  NPrtUS=   8 ThrOK=T
 IPart= 0 IRanGd=          0 ScrnBf=T ScrnGd=T RCrit=4.00D+00 DoMicB=T.
 IPart= 6 IRanGd=          0 ScrnBf=T ScrnGd=T RCrit=4.00D+00 DoMicB=T.
 IPart= 4 IRanGd=          0 ScrnBf=T ScrnGd=T RCrit=4.00D+00 DoMicB=T.
 IPart= 7 IRanGd=          0 ScrnBf=T ScrnGd=T RCrit=4.00D+00 DoMicB=T.
 IPart= 1 IRanGd=          0 ScrnBf=T ScrnGd=T RCrit=4.00D+00 DoMicB=T.
 CutRad = 1000.00    CtRdIn =    0.00    XCrit =  15.00   ICut = 0
 IPart= 2 IRanGd=          0 ScrnBf=T ScrnGd=T RCrit=4.00D+00 DoMicB=T.
 CutRad = 1000.00    CtRdIn =    0.00    XCrit =  15.00   ICut = 0
 IPart= 3 IRanGd=          0 ScrnBf=T ScrnGd=T RCrit=4.00D+00 DoMicB=T.
 CutRad = 1000.00    CtRdIn =    0.00    XCrit =  15.00   ICut = 0
 CutRad = 1000.00    CtRdIn =    0.00    XCrit =  15.00   ICut = 0
 CutRad = 1000.00    CtRdIn =    0.00    XCrit =  15.00   ICut = 0
 CutRad = 1000.00    CtRdIn =    0.00    XCrit =  15.00   ICut = 0
 CutRad = 1000.00    CtRdIn =    0.00    XCrit =  15.00   ICut = 0
 IPart= 5 IRanGd=          0 ScrnBf=T ScrnGd=T RCrit=4.00D+00 DoMicB=T.
 CutRad = 1000.00    CtRdIn =    0.00    XCrit =  15.00   ICut = 0
 IPart= 5        13213 of        14628 points in      30 batches and       81 microbatches, Max-NSigAt=      16 Max-NSgAt2=      16
 IPart= 1        13588 of        15730 points in      33 batches and      100 microbatches, Max-NSigAt=      16 Max-NSgAt2=      16
 IPart= 4        14177 of        16222 points in      33 batches and       89 microbatches, Max-NSigAt=      16 Max-NSgAt2=      16
 IPart= 3        14528 of        16850 points in      35 batches and       90 microbatches, Max-NSigAt=      16 Max-NSgAt2=      16
 IPart= 2        13201 of        14838 points in      29 batches and       89 microbatches, Max-NSigAt=      16 Max-NSgAt2=      16
 IPart= 7        14284 of        16888 points in      36 batches and      109 microbatches, Max-NSigAt=      16 Max-NSgAt2=      16
 IPart= 6        14138 of        16146 points in      33 batches and      101 microbatches, Max-NSigAt=      16 Max-NSgAt2=      16
 IPart= 0        14763 of        16488 points in      33 batches and      107 microbatches, Max-NSigAt=      16 Max-NSgAt2=      16
 Polarizability after L703:
                1             2             3
      1  0.575377D+02
      2 -0.285751D+01  0.579585D+02
      3 -0.323472D+01  0.196583D+01  0.648391D+02
 Dipole Derivatives after L703:
               1            2            3            4            5
      1-0.171672D+00-0.253339D-01-0.451942D-01-0.935876D-01 0.140309D+00
      2-0.618678D-01-0.307198D+00 0.289965D-01 0.315367D+00 0.230083D+00
      3-0.162582D-02 0.789732D-01-0.163113D+00 0.828521D-01-0.101964D+00
               6            7            8            9           10
      1 0.543066D-01-0.132485D+00-0.123832D+00-0.188215D-01 0.225839D+00
      2-0.164676D+00-0.163094D-01 0.574442D-01 0.360338D-01-0.147880D+00
      3-0.101036D+00-0.246908D-01-0.315461D-01 0.106243D+00 0.736138D-02
              11           12           13           14           15
      1-0.583665D-01 0.256160D-01 0.554136D+00-0.155191D-01-0.383908D-01
      2 0.661134D-01 0.997359D-01-0.115569D+00 0.412362D+00 0.217873D+00
      3 0.601283D-01 0.106040D+00-0.171165D-01 0.242755D+00 0.522681D+00
              16           17           18           19           20
      1-0.118257D+00-0.988021D-02 0.181274D-01-0.265969D-01 0.108958D+00
      2-0.829709D-01 0.201065D-02-0.254208D-01 0.716554D-01-0.790574D-01
      3-0.358582D-01-0.495003D-01-0.162076D-01-0.115747D-01 0.385964D-01
              21           22           23           24           25
      1-0.171813D-01 0.242250D-01-0.198222D-01 0.920351D-01 0.848600D-01
      2 0.293835D-01-0.154255D-01 0.410567D-01 0.808181D-01-0.327537D-02
      3 0.704993D-01 0.333197D-01 0.711424D-01-0.687499D-01-0.405346D-02
              26           27           28           29           30
      1-0.409259D-01-0.388542D-01 0.207018D-01-0.698183D-02 0.398372D-01
      2 0.205256D-01-0.686728D-01 0.222814D-01 0.264695D-01-0.276332D-02
      3-0.824977D-01-0.886837D-02 0.247041D-01-0.339587D-01-0.969396D-01
              31           32           33           34           35
      1 0.739660D-01-0.214692D-01 0.256161D-03-0.113775D+00-0.350301D-01
      2-0.191419D-01 0.531772D-02-0.535431D-01-0.616805D-01 0.516937D-01
      3-0.122217D-01-0.813709D-01-0.343870D-01 0.599528D-02 0.246520D-01
              36           37           38           39           40
      1-0.330812D-01 0.466676D-02 0.800401D-01-0.473027D-02-0.356696D+00
      2-0.506183D-02 0.102580D+00-0.724197D-01 0.353312D-01 0.605308D-01
      3 0.695515D-01-0.161370D-01 0.543197D-01 0.712543D-01-0.148725D+00
              41           42           43           44           45
      1 0.802393D-01-0.648964D-01-0.195967D+00-0.135777D+00 0.383694D-01
      2-0.480376D+00-0.142797D+00-0.104394D+00-0.215881D+00-0.145178D+00
      3-0.228422D+00-0.145489D+00 0.129197D+00-0.540639D-01-0.609516D+00
              46           47           48
      1 0.220642D+00 0.833928D-01-0.739824D-02
      2 0.560996D-01 0.241855D+00 0.799414D-01
      3-0.114258D-01 0.927567D-01 0.298036D+00
 Hessian after L703:
                1             2             3             4             5
      1  0.463208D-01
      2  0.250853D-01  0.212942D+00
      3  0.358180D-01  0.157475D+00  0.179144D+00
      4 -0.374602D-01 -0.192410D-01 -0.338132D-01  0.423474D+00
      5 -0.241513D-01 -0.168348D+00 -0.113876D+00  0.629389D-01  0.447119D+00
      6 -0.261222D-01 -0.857175D-01 -0.115758D+00  0.104558D-01 -0.817402D-02
      7 -0.895933D-03 -0.152267D-01 -0.125134D-01 -0.256440D+00 -0.377552D-01
      8 -0.187226D-01 -0.123732D-01 -0.143685D-01 -0.675085D-01 -0.586419D-01
      9 -0.258898D-01 -0.227476D-01 -0.178702D-01 -0.158709D-01  0.425356D-02
     10 -0.825287D-02  0.378176D-02  0.488168D-03 -0.243993D-01 -0.349831D-01
     11  0.412176D-02  0.381780D-02 -0.181758D-01 -0.266001D-01 -0.728264D-01
     12 -0.734340D-03 -0.154358D-01 -0.413119D-01  0.624101D-01  0.963941D-01
     13 -0.105533D-02  0.551697D-02  0.123616D-01 -0.820879D-01  0.138794D-01
     14  0.949780D-02 -0.309187D-01 -0.138969D-01  0.286386D-01 -0.980415D-01
     15  0.171879D-01 -0.327717D-01 -0.756436D-02 -0.267499D-01  0.270477D-01
     16 -0.179359D-02 -0.583418D-03 -0.864817D-03 -0.239021D-01  0.263857D-02
     17 -0.139355D-02  0.142331D-02 -0.437865D-03  0.298611D-01  0.658944D-02
     18 -0.165381D-02  0.622624D-03  0.835992D-03 -0.464778D-02  0.131694D-02
     19  0.117001D-02 -0.183676D-03  0.121924D-03 -0.649246D-02 -0.380675D-02
     20  0.107199D-02  0.206110D-03  0.230737D-03 -0.291505D-02 -0.696915D-04
     21  0.860233D-03  0.173652D-03  0.147184D-03 -0.605906D-03 -0.842151D-03
     22  0.169973D-03  0.345839D-03  0.133045D-03  0.887233D-03 -0.116474D-02
     23  0.000000D+00 -0.297943D-03  0.229842D-03  0.670630D-03  0.293633D-03
     24 -0.230943D-03 -0.500296D-03  0.189911D-03  0.110905D-02  0.176462D-03
     25 -0.479952D-05  0.475939D-03  0.548464D-03  0.428250D-03 -0.270172D-03
     26  0.164327D-02 -0.775211D-03  0.494906D-03 -0.317495D-03 -0.112578D-03
     27  0.241665D-02 -0.108332D-03 -0.208824D-03 -0.270204D-02 -0.519826D-03
     28  0.194364D-02 -0.161819D-02 -0.160165D-02 -0.255536D-03  0.104494D-01
     29 -0.446528D-03  0.268081D-02  0.243449D-02 -0.352028D-02 -0.204268D-01
     30 -0.234276D-04 -0.547082D-03 -0.439025D-03 -0.519459D-03  0.103630D-01
     31 -0.280897D-03 -0.485803D-04 -0.453232D-04  0.509043D-03  0.991664D-04
     32  0.430511D-03  0.466049D-04 -0.108680D-03 -0.485249D-03  0.540049D-03
     33 -0.560966D-03 -0.249442D-03  0.783162D-03  0.608272D-03 -0.100773D-02
     34 -0.519383D-04 -0.472661D-03 -0.197404D-03  0.906612D-03  0.124682D-02
     35 -0.190123D-03 -0.229069D-03  0.865263D-04 -0.418579D-03  0.197955D-03
     36 -0.213027D-03  0.557847D-04  0.165939D-03  0.102170D-02 -0.114601D-02
     37 -0.189760D-03  0.490888D-04 -0.102639D-05  0.355346D-03 -0.737644D-03
     38 -0.257125D-03  0.298814D-03  0.186808D-03 -0.169633D-02 -0.240177D-03
     39  0.530005D-03 -0.771276D-03 -0.242791D-03  0.530349D-03  0.196182D-02
     40 -0.241249D-03  0.286016D-02 -0.154591D-04  0.554300D-02  0.111224D-01
     41  0.264834D-02 -0.102289D-01 -0.639785D-03  0.100058D-02 -0.343294D-01
     42  0.635222D-03 -0.185639D-02  0.602476D-03  0.444696D-02 -0.135236D-01
     43  0.853901D-03 -0.862012D-03 -0.646993D-03 -0.155906D-02  0.135058D-02
     44  0.889925D-03  0.120495D-02  0.246293D-03 -0.736037D-03 -0.666777D-03
     45 -0.197224D-02  0.236001D-02  0.146057D-02  0.469121D-02 -0.307683D-02
     46 -0.231775D-03  0.121170D-03  0.228093D-03  0.493138D-03 -0.856426D-03
     47 -0.227458D-03  0.551172D-03  0.118859D-03  0.328763D-03 -0.103717D-02
     48 -0.472549D-04  0.181989D-04  0.655797D-04 -0.364216D-03  0.652646D-03
                6             7             8             9            10
      6  0.420727D+00
      7 -0.105996D-01  0.288796D+00
      8 -0.121322D-02  0.599516D-01  0.667759D-01
      9 -0.309283D-01  0.242729D-01  0.100576D-01  0.481505D-01
     10  0.509112D-01 -0.128230D-01 -0.657725D-02  0.245748D-01  0.517880D-01
     11  0.735150D-01 -0.326945D-02 -0.150853D-02  0.846179D-02  0.270429D-01
     12 -0.191752D+00 -0.886650D-03  0.259390D-02  0.548719D-03 -0.608822D-01
     13 -0.253371D-01 -0.210060D-01  0.318337D-01 -0.661424D-02 -0.733215D-02
     14  0.321080D-01 -0.682484D-02  0.396539D-02 -0.390615D-03  0.130632D-01
     15 -0.670432D-01  0.559317D-04  0.221884D-03 -0.775142D-03 -0.123232D-01
     16 -0.806674D-03 -0.614439D-03  0.245047D-02  0.225984D-03  0.511945D-03
     17  0.300323D-02  0.424659D-02 -0.479186D-02  0.582517D-03  0.105800D-04
     18  0.992775D-03 -0.956157D-03  0.812023D-03 -0.327429D-04 -0.115048D-02
     19 -0.162563D-03 -0.125257D-02  0.158061D-02 -0.311178D-03  0.340097D-03
     20 -0.522230D-03 -0.168577D-03  0.248443D-03 -0.189799D-03  0.159806D-04
     21  0.314008D-03 -0.223483D-03 -0.421001D-04  0.222139D-03  0.286176D-03
     22  0.308799D-03  0.328107D-03 -0.124303D-03 -0.216361D-03 -0.456216D-03
     23 -0.819792D-03 -0.184293D-04  0.552419D-04 -0.258911D-04  0.117550D-04
     24 -0.503656D-05 -0.360563D-04  0.135668D-03  0.184344D-03 -0.113812D-03
     25 -0.640652D-04  0.184167D-03 -0.591917D-04 -0.873223D-04  0.127267D-03
     26 -0.312442D-03 -0.139317D-03 -0.629058D-04 -0.111934D-03 -0.237030D-04
     27  0.124024D-03  0.107102D-03 -0.324162D-03 -0.131411D-03  0.542920D-03
     28 -0.123441D-01  0.917429D-03 -0.459569D-03 -0.106396D-02  0.217153D-03
     29  0.240893D-01 -0.113196D-02  0.144033D-02 -0.524156D-03  0.174588D-02
     30 -0.609639D-02  0.770423D-03 -0.100918D-02  0.646036D-03 -0.365683D-03
     31 -0.426597D-03 -0.133456D-03 -0.237547D-04 -0.540361D-04 -0.167063D-03
     32 -0.448531D-03  0.105041D-03 -0.147900D-03 -0.221331D-04  0.110469D-03
     33  0.897810D-03 -0.204450D-03  0.554296D-03 -0.222280D-03  0.403107D-05
     34 -0.205433D-03  0.529946D-03 -0.288250D-03  0.180647D-03 -0.203927D-04
     35 -0.672344D-03  0.560795D-03  0.972961D-04  0.341417D-03 -0.154806D-03
     36  0.607183D-03 -0.476875D-03  0.374506D-03  0.794413D-05 -0.100126D-03
     37  0.151283D-02  0.260973D-03 -0.776335D-04  0.291184D-03  0.334861D-03
     38  0.276216D-02  0.215334D-04  0.234384D-03 -0.324669D-04  0.453937D-03
     39 -0.322933D-02  0.548071D-05 -0.456432D-03 -0.131678D-03  0.371272D-04
     40  0.111315D-01  0.209069D-02 -0.191862D-02  0.524557D-03  0.600142D-03
     41 -0.345786D-01 -0.609349D-03  0.515079D-02  0.310472D-03 -0.554989D-02
     42 -0.900611D-02  0.467125D-03  0.169740D-02  0.517110D-03 -0.131419D-02
     43  0.278800D-02  0.133139D-03 -0.386589D-03 -0.702338D-05 -0.297853D-04
     44 -0.263733D-02  0.458729D-03 -0.542663D-03 -0.169277D-03  0.891730D-03
     45  0.125893D-03  0.288218D-03  0.968895D-03 -0.597539D-04 -0.697587D-03
     46 -0.103976D-02 -0.743584D-04  0.329884D-03  0.447359D-04 -0.438682D-03
     47 -0.381673D-03 -0.200498D-03  0.101184D-03  0.206569D-03  0.160565D-03
     48  0.293622D-04 -0.705093D-04 -0.258447D-05 -0.125309D-03  0.102857D-03
               11            12            13            14            15
     11  0.851017D-01
     12 -0.872993D-01  0.238794D+00
     13 -0.269264D-02  0.862010D-03  0.483317D+00
     14 -0.136245D-01  0.673994D-02  0.228637D-01  0.473350D+00
     15  0.237653D-01 -0.456205D-02 -0.105636D-01 -0.483045D-01  0.447166D+00
     16 -0.135504D-02  0.427203D-03 -0.177198D+00 -0.177073D-01  0.364037D-02
     17  0.103534D-02 -0.466538D-03 -0.110112D-01 -0.806260D-01  0.312766D-02
     18 -0.594043D-03  0.253585D-03  0.759424D-02  0.630205D-02 -0.768400D-01
     19 -0.226536D-03  0.269856D-04 -0.195336D-01  0.296850D-01 -0.469219D-02
     20  0.306075D-04 -0.959709D-04 -0.507293D-02  0.544729D-02 -0.176955D-02
     21 -0.143393D-03  0.129365D-03 -0.181625D-02  0.779426D-03 -0.209811D-02
     22  0.699278D-03 -0.290216D-03 -0.902253D-02 -0.128980D-01  0.307325D-01
     23  0.327394D-03  0.526437D-04 -0.237013D-02 -0.479274D-02  0.636421D-02
     24 -0.930947D-04  0.242505D-03 -0.521384D-03 -0.606933D-03  0.178892D-02
     25  0.349087D-04 -0.221420D-03  0.113388D-03 -0.199811D-01 -0.235901D-01
     26 -0.495336D-04  0.784309D-04 -0.909328D-03 -0.590304D-02 -0.545514D-02
     27 -0.601961D-04 -0.109201D-03  0.735101D-03  0.151042D-03 -0.222516D-02
     28  0.328162D-02 -0.851433D-03 -0.865317D-01 -0.164162D-01  0.225666D-01
     29 -0.464427D-02  0.608301D-03 -0.186005D-01 -0.106303D+00  0.474843D-01
     30 -0.412836D-03  0.634906D-03  0.238959D-01  0.398085D-01 -0.132631D+00
     31  0.215101D-04 -0.559598D-04 -0.435183D-03  0.713634D-02  0.752355D-02
     32  0.377724D-03 -0.248303D-04  0.260065D-02  0.996383D-02  0.132791D-01
     33 -0.399687D-03 -0.346757D-03 -0.445055D-02 -0.179759D-01 -0.208666D-01
     34  0.843276D-04 -0.440696D-04 -0.107918D-01 -0.258220D-02 -0.322536D-03
     35  0.285418D-03 -0.106601D-03 -0.165902D-01 -0.608957D-02 -0.270728D-02
     36 -0.168786D-03  0.916515D-04  0.273180D-01  0.711206D-02  0.246735D-02
     37 -0.263959D-03  0.133977D-03  0.457742D-02 -0.947467D-02  0.637835D-03
     38 -0.927525D-03 -0.451123D-05  0.927543D-02 -0.152931D-01  0.177161D-02
     39  0.129327D-02 -0.334549D-03 -0.152901D-01  0.238550D-01 -0.552545D-02
     40 -0.120659D-02 -0.295649D-03 -0.704061D-01 -0.277724D-01 -0.401882D-02
     41  0.258022D-02 -0.107020D-02 -0.397427D-01 -0.144413D+00 -0.204183D-01
     42  0.133697D-02 -0.160075D-02 -0.206432D-01 -0.593967D-01 -0.836664D-01
     43 -0.114099D-05  0.778271D-04 -0.390380D-02  0.164822D-02 -0.627828D-04
     44 -0.539616D-03 -0.204005D-02  0.112472D-01  0.162990D-01 -0.105506D-01
     45 -0.720970D-03 -0.677227D-03  0.646986D-02  0.217742D-01 -0.436523D-01
     46  0.329151D-03  0.323874D-03  0.129606D-02  0.112376D-02 -0.215096D-04
     47  0.564117D-03  0.765422D-04 -0.227370D-03 -0.302070D-02 -0.108479D-02
     48 -0.304108D-03  0.000000D+00  0.599976D-02  0.194140D-02 -0.397263D-02
               16            17            18            19            20
     16  0.468035D+00
     17 -0.288944D-01  0.574685D+00
     18 -0.648140D-02 -0.167383D-02  0.576230D+00
     19 -0.120418D+00  0.114005D+00 -0.238990D-01  0.133096D+00
     20  0.116683D+00 -0.226180D+00  0.386355D-01 -0.126724D+00  0.243870D+00
     21 -0.238767D-01  0.397310D-01 -0.555772D-01  0.263600D-01 -0.431949D-01
     22 -0.697974D-01 -0.290658D-01  0.648083D-01  0.529358D-02  0.579979D-02
     23 -0.296321D-01 -0.916565D-01  0.933942D-01 -0.867780D-02 -0.995495D-02
     24  0.676543D-01  0.941312D-01 -0.243662D+00  0.498736D-03  0.886691D-03
     25 -0.542093D-01 -0.277387D-01 -0.308711D-01  0.291391D-02  0.107218D-01
     26 -0.298553D-01 -0.162509D+00 -0.130257D+00 -0.520027D-02 -0.161997D-01
     27 -0.332663D-01 -0.129534D+00 -0.190091D+00  0.224151D-02  0.517677D-02
     28 -0.142508D-01 -0.170892D-01  0.295358D-01  0.116650D-02 -0.440698D-03
     29 -0.558023D-02 -0.429915D-02  0.857385D-02  0.142747D-02  0.552061D-03
     30  0.494995D-02  0.286345D-02  0.137087D-02 -0.983219D-03 -0.188124D-03
     31 -0.163969D-04  0.286105D-03 -0.947694D-04 -0.157433D-04  0.687524D-04
     32  0.154299D-03  0.156405D-03 -0.272979D-03 -0.524461D-04 -0.589796D-04
     33 -0.581787D-03 -0.570156D-03  0.865703D-03  0.970243D-05  0.945714D-04
     34  0.563589D-03 -0.101466D-02  0.259800D-02  0.427115D-03  0.192119D-05
     35 -0.406890D-04 -0.131840D-02  0.319166D-02 -0.246524D-03  0.253708D-03
     36  0.567460D-03  0.204578D-02 -0.477027D-02 -0.108746D-03 -0.847317D-04
     37  0.864461D-03 -0.865704D-03 -0.265191D-04 -0.106831D-04 -0.850086D-04
     38  0.995789D-03  0.301361D-03 -0.709659D-03 -0.996134D-03  0.300102D-03
     39 -0.135799D-02 -0.534934D-03  0.782760D-03  0.658076D-03 -0.146228D-03
     40 -0.634508D-02 -0.305580D-01 -0.327805D-01  0.354575D-02  0.775334D-03
     41 -0.767359D-02 -0.132871D-01 -0.188484D-01 -0.636568D-03  0.153796D-02
     42 -0.993395D-02 -0.123925D-01 -0.129519D-01  0.690532D-03  0.772037D-03
     43 -0.166361D-02 -0.114516D-02 -0.177215D-02  0.394523D-04  0.133899D-03
[...]
    X8        2.88645   0.00000   0.00000  -0.00021  -0.00013   2.88632
    Y8        0.57018   0.00000   0.00000   0.00058   0.00053   0.57071
    Z8       -1.43523   0.00000   0.00000   0.00030   0.00029  -1.43494
    X9        2.61394   0.00000   0.00000  -0.00005   0.00002   2.61396
    Y9        1.08638   0.00000   0.00000  -0.00034  -0.00038   1.08600
    Z9        1.84932   0.00000   0.00000   0.00044   0.00042   1.84975
   X10       -1.40930   0.00000   0.00000  -0.00003  -0.00005  -1.40935
   Y10       -2.35538   0.00000   0.00000  -0.00018  -0.00012  -2.35549
   Z10        2.59551   0.00000   0.00000  -0.00002  -0.00006   2.59545
   X11       -1.19917   0.00000   0.00000   0.00003   0.00002  -1.19915
   Y11       -1.13385   0.00000   0.00000  -0.00036  -0.00031  -1.13416
   Z11        4.24601   0.00000   0.00000   0.00011   0.00007   4.24608
   X12       -3.39261   0.00000   0.00000  -0.00002  -0.00006  -3.39267
   Y12       -2.90032   0.00000   0.00000  -0.00020  -0.00010  -2.90042
   Z12        2.42328   0.00000   0.00000  -0.00001  -0.00007   2.42321
   X13       -0.27960   0.00000   0.00000   0.00000  -0.00007  -0.27967
   Y13       -4.05881   0.00000   0.00000  -0.00020  -0.00017  -4.05898
   Z13        2.87589   0.00000   0.00000  -0.00024  -0.00027   2.87562
   X14       -1.10936   0.00000   0.00000   0.00000   0.00000  -1.10936
   Y14       -2.68396   0.00000   0.00000   0.00000   0.00006  -2.68390
   Z14       -1.77077   0.00000   0.00000   0.00002  -0.00002  -1.77079
   X15       -0.47750   0.00000   0.00000   0.00011   0.00016  -0.47734
   Y15       -1.53548   0.00000   0.00000   0.00000   0.00003  -1.53545
   Z15       -4.18767   0.00000   0.00000   0.00005   0.00002  -4.18765
   X16        0.99773  -0.00001   0.00000   0.00027   0.00030   0.99803
   Y16       -2.50997   0.00001   0.00000   0.00019   0.00019  -2.50978
   Z16       -4.64760   0.00000   0.00000   0.00021   0.00018  -4.64742
         Item               Value     Threshold  Converged?
 Maximum Force            0.000008     0.000450     YES
 RMS     Force            0.000003     0.000300     YES
 Maximum Displacement     0.000713     0.001800     YES
 RMS     Displacement     0.000264     0.001200     YES
 Predicted change in Energy=-3.275623D-10
 Optimization completed.
    -- Stationary point found.
 GradGradGradGradGradGradGradGradGradGradGradGradGradGradGradGradGradGrad


 Test job not archived.
 1\1\GINC-NODE24\Freq\UB3LYP\CBSB7\C4H9O3(2)\NYEE\10-Jun-2013\0\\# freq
  nosymm b3lyp/cbsb7 iop(7/33=1)\\Title Card Required\\0,2\O,-0.984106,
 1.749955,0.842802\C,-1.156271,0.773589,-0.082559\H,-2.218758,0.498093,
 -0.209592\H,-0.867286,1.226345,-1.054526\C,-0.285462,-0.490417,0.12767
 6\C,1.200064,-0.146351,0.180662\H,1.794593,-1.043113,0.372342\H,1.5274
 41,0.301728,-0.759491\H,1.383238,0.574889,0.978619\C,-0.745769,-1.2464
 11,1.373487\H,-0.634575,-0.600007,2.246892\H,-1.795292,-1.534783,1.282
 343\H,-0.147957,-2.147832,1.521855\O,-0.587046,-1.42029,-0.93705\O,-0.
 252684,-0.812543,-2.216019\H,0.527978,-1.328219,-2.459406\\Version=AM6
 4L-G03RevD.01\HF=-383.460229\S2=0.753448\S2-1=0.\S2A=0.750009\RMSD=2.6
 64e-09\RMSF=2.996e-06\ZeroPoint=0.1289366\Thermal=0.1376398\Dipole=0.6
 187132,-0.4836981,-0.1997375\DipoleDeriv=-0.1716719,-0.0618678,-0.0016
 258,-0.0253339,-0.3071985,0.0789732,-0.0451942,0.0289965,-0.1631129,-0
 .0935876,0.315367,0.0828521,0.1403086,0.2300829,-0.1019642,0.0543066,-
 0.1646761,-0.1010359,-0.1324853,-0.0163094,-0.0246908,-0.1238322,0.057
 4442,-0.0315461,-0.0188215,0.0360338,0.106243,0.2258388,-0.1478801,0.0
 073614,-0.0583665,0.0661134,0.0601283,0.025616,0.0997359,0.1060399,0.5
 541363,-0.1155688,-0.0171165,-0.0155191,0.4123623,0.2427549,-0.0383908
 ,0.2178729,0.5226811,-0.1182574,-0.0829709,-0.0358582,-0.0098802,0.002
 0106,-0.0495003,0.0181274,-0.0254208,-0.0162076,-0.0265969,0.0716554,-
 0.0115747,0.1089577,-0.0790574,0.0385964,-0.0171813,0.0293835,0.070499
 3,0.024225,-0.0154255,0.0333197,-0.0198222,0.0410567,0.0711424,0.09203
 51,0.0808181,-0.0687499,0.08486,-0.0032754,-0.0040535,-0.0409259,0.020
 5256,-0.0824977,-0.0388542,-0.0686728,-0.0088684,0.0207018,0.0222814,0
 .0247041,-0.0069818,0.0264695,-0.0339587,0.0398372,-0.0027633,-0.09693
 96,0.073966,-0.0191419,-0.0122217,-0.0214692,0.0053177,-0.0813709,0.00
 02562,-0.0535431,-0.034387,-0.1137748,-0.0616805,0.0059953,-0.0350301,
 0.0516937,0.024652,-0.0330812,-0.0050618,0.0695515,0.0046668,0.10258,-
 0.016137,0.0800401,-0.0724197,0.0543197,-0.0047303,0.0353312,0.0712543
 ,-0.3566957,0.0605308,-0.1487253,0.0802393,-0.4803758,-0.2284217,-0.06
 48964,-0.1427969,-0.1454886,-0.1959675,-0.1043939,0.1291968,-0.1357773
 ,-0.2158806,-0.0540639,0.0383694,-0.1451785,-0.6095156,0.2206423,0.056
 0996,-0.0114258,0.0833928,0.2418551,0.0927567,-0.0073982,0.0799414,0.2
 980364\Polar=57.537657,-2.8575118,57.9585073,-3.2347218,1.9658281,64.8
 390536\PG=C01 [X(C4H9O3)]\NImag=0\\0.04632083,0.02508534,0.21294155,0.
 03581798,0.15747515,0.17914431,-0.03746022,-0.01924101,-0.03381324,0.4
 2347434,-0.02415129,-0.16834815,-0.11387606,0.06293890,0.44711948,-0.0
 2612217,-0.08571747,-0.11575804,0.01045579,-0.00817402,0.42072721,-0.0
 0089593,-0.01522672,-0.01251336,-0.25644030,-0.03775519,-0.01059962,0.
 28879564,-0.01872262,-0.01237316,-0.01436847,-0.06750852,-0.05864192,-
 0.00121322,0.05995165,0.06677589,-0.02588985,-0.02274762,-0.01787017,-
 0.01587087,0.00425356,-0.03092832,0.02427288,0.01005757,0.04815052,-0.
 00825287,0.00378176,0.00048817,-0.02439933,-0.03498309,0.05091116,-0.0
 1282302,-0.00657725,0.02457485,0.05178805,0.00412176,0.00381780,-0.018
 17585,-0.02660008,-0.07282639,0.07351501,-0.00326945,-0.00150853,0.008
 46179,0.02704288,0.08510170,-0.00073434,-0.01543583,-0.04131191,0.0624
 1007,0.09639411,-0.19175186,-0.00088665,0.00259390,0.00054872,-0.06088
 221,-0.08729935,0.23879409,-0.00105533,0.00551697,0.01236160,-0.082087
 95,0.01387943,-0.02533706,-0.02100601,0.03183368,-0.00661424,-0.007332
 15,-0.00269264,0.00086201,0.48331695,0.00949780,-0.03091865,-0.0138969
 0,0.02863865,-0.09804150,0.03210798,-0.00682484,0.00396539,-0.00039061
 ,0.01306320,-0.01362446,0.00673994,0.02286369,0.47335012,0.01718792,-0
 .03277168,-0.00756436,-0.02674988,0.02704770,-0.06704318,0.00005593,0.
 00022188,-0.00077514,-0.01232320,0.02376527,-0.00456205,-0.01056364,-0
 .04830446,0.44716577,-0.00179359,-0.00058342,-0.00086482,-0.02390211,0
 .00263857,-0.00080667,-0.00061444,0.00245047,0.00022598,0.00051194,-0.
 00135504,0.00042720,-0.17719774,-0.01770729,0.00364037,0.46803458,-0.0
 0139355,0.00142331,-0.00043787,0.02986111,0.00658944,0.00300323,0.0042
 4659,-0.00479186,0.00058252,0.00001058,0.00103534,-0.00046654,-0.01101
 122,-0.08062597,0.00312766,-0.02889436,0.57468513,-0.00165381,0.000622
 62,0.00083599,-0.00464778,0.00131694,0.00099277,-0.00095616,0.00081202
 ,-0.00003274,-0.00115048,-0.00059404,0.00025358,0.00759424,0.00630205,
 -0.07684002,-0.00648140,-0.00167383,0.57623038,0.00117001,-0.00018368,
 0.00012192,-0.00649246,-0.00380675,-0.00016256,-0.00125257,0.00158061,
 -0.00031118,0.00034010,-0.00022654,0.00002699,-0.01953361,0.02968498,-
 0.00469219,-0.12041759,0.11400474,-0.02389900,0.13309578,0.00107199,0.
 00020611,0.00023074,-0.00291505,-0.00006969,-0.00052223,-0.00016858,0.
 00024844,-0.00018980,0.00001598,0.00003061,-0.00009597,-0.00507293,0.0
 0544729,-0.00176955,0.11668261,-0.22617974,0.03863547,-0.12672413,0.24
 386963,0.00086023,0.00017365,0.00014718,-0.00060591,-0.00084215,0.0003
 1401,-0.00022348,-0.00004210,0.00022214,0.00028618,-0.00014339,0.00012
 936,-0.00181625,0.00077943,-0.00209811,-0.02387666,0.03973103,-0.05557
 720,0.02636004,-0.04319487,0.05496102,0.00016997,0.00034584,0.00013305
 ,0.00088723,-0.00116474,0.00030880,0.00032811,-0.00012430,-0.00021636,
 -0.00045622,0.00069928,-0.00029022,-0.00902253,-0.01289798,0.03073254,
 -0.06979740,-0.02906582,0.06480825,0.00529358,0.00579979,-0.01594159,0
 .07558625,-0.00000024,-0.00029794,0.00022984,0.00067063,0.00029363,-0.
 00081979,-0.00001843,0.00005524,-0.00002589,0.00001176,0.00032739,0.00
 005264,-0.00237013,-0.00479274,0.00636421,-0.02963210,-0.09165645,0.09
 339419,-0.00867780,-0.00995495,0.02299120,0.03423046,0.09544351,-0.000
 23094,-0.00050030,0.00018991,0.00110905,0.00017646,-0.00000504,-0.0000
 3606,0.00013567,0.00018434,-0.00011381,-0.00009309,0.00024250,-0.00052
 138,-0.00060693,0.00178892,0.06765430,0.09413124,-0.24366219,0.0004987
 4,0.00088669,-0.00338672,-0.07330488,-0.10301905,0.26548943,-0.0000048
 0,0.00047594,0.00054846,0.00042825,-0.00027017,-0.00006407,0.00018417,
 -0.00005919,-0.00008732,0.00012727,0.00003491,-0.00022142,0.00011339,-
 0.01998106,-0.02359014,-0.05420931,-0.02773867,-0.03087109,0.00291391,
 0.01072178,0.01405777,0.00098777,0.00710044,0.00653694,0.05707732,0.00
 164327,-0.00077521,0.00049491,-0.00031750,-0.00011258,-0.00031244,-0.0
 0013932,-0.00006291,-0.00011193,-0.00002370,-0.00004953,0.00007843,-0.
 00090933,-0.00590304,-0.00545514,-0.02985531,-0.16250928,-0.13025716,-
 0.00520027,-0.01619965,-0.01911343,0.00318512,0.01029615,0.01073732,0.
 03311785,0.17467759,0.00241665,-0.00010833,-0.00020882,-0.00270204,-0.
 00051983,0.00012402,0.00010710,-0.00032416,-0.00013141,0.00054292,-0.0
 0006020,-0.00010920,0.00073510,0.00015104,-0.00222516,-0.03326631,-0.1
 2953446,-0.19009140,0.00224151,0.00517677,0.00549715,-0.00495648,-0.01
 862077,-0.01955495,0.03498687,0.14258414,0.20534699,0.00194364,-0.0016
 1819,-0.00160165,-0.00025554,0.01044937,-0.01234413,0.00091743,-0.0004
 5957,-0.00106396,0.00021715,0.00328162,-0.00085143,-0.08653169,-0.0164
 1624,0.02256656,-0.01425077,-0.01708918,0.02953576,0.00116650,-0.00044
 070,0.00055295,-0.00630194,-0.00190456,0.00035231,0.00113758,0.0004545
 4,0.00004413,0.56729012,-0.00044653,0.00268081,0.00243449,-0.00352028,
 -0.02042684,0.02408925,-0.00113196,0.00144033,-0.00052416,0.00174588,-
 0.00464427,0.00060830,-0.01860053,-0.10630288,0.04748430,-0.00558023,-
 0.00429915,0.00857385,0.00142747,0.00055206,-0.00061694,-0.00122353,-0
 .00012905,-0.00026212,0.00032049,0.00004754,0.00039198,-0.01952320,0.5
 5047890,-0.00002343,-0.00054708,-0.00043902,-0.00051946,0.01036298,-0.
 00609639,0.00077042,-0.00100918,0.00064604,-0.00036568,-0.00041284,0.0
 0063491,0.02389588,0.03980846,-0.13263067,0.00494995,0.00286345,0.0013
 7087,-0.00098322,-0.00018812,0.00000566,-0.00198876,-0.00071825,0.0006
 6906,-0.00025708,-0.00013593,-0.00001849,0.03128411,0.04755832,0.49813
 371,-0.00028090,-0.00004858,-0.00004532,0.00050904,0.00009917,-0.00042
 660,-0.00013346,-0.00002375,-0.00005404,-0.00016706,0.00002151,-0.0000
 5596,-0.00043518,0.00713634,0.00752355,-0.00001640,0.00028611,-0.00009
 477,-0.00001574,0.00006875,0.00013324,0.00013263,0.00007517,-0.0002368
 3,-0.00031288,-0.00043557,0.00035585,-0.04863485,-0.01650089,-0.022470
 35,0.04948193,0.00043051,0.00004660,-0.00010868,-0.00048525,0.00054005
 ,-0.00044853,0.00010504,-0.00014790,-0.00002213,0.00011047,0.00037772,
 -0.00002483,0.00260065,0.00996383,0.01327915,0.00015430,0.00015640,-0.
 00027298,-0.00005245,-0.00005898,-0.00013193,0.00028118,0.00010873,-0.
 00001738,-0.00037038,0.00015450,0.00018652,-0.01642996,-0.14041239,-0.
 12762273,0.01900922,0.15023496,-0.00056097,-0.00024944,0.00078316,0.00
 060827,-0.00100773,0.00089781,-0.00020445,0.00055430,-0.00022228,0.000
 00403,-0.00039969,-0.00034676,-0.00445055,-0.01797589,-0.02086656,-0.0
 0058179,-0.00057016,0.00086570,0.00000970,0.00009457,-0.00004256,-0.00
 024971,0.00016669,0.00024742,0.00070297,0.00047682,0.00027748,-0.02174
 672,-0.12497231,-0.21403043,0.02337229,0.13705354,0.23432112,-0.000051
 94,-0.00047266,-0.00019740,0.00090661,0.00124682,-0.00020543,0.0005299
 5,-0.00028825,0.00018065,-0.00002039,0.00008433,-0.00004407,-0.0107917
 7,-0.00258220,-0.00032254,0.00056359,-0.00101466,0.00259800,0.00042711
 ,0.00000192,-0.00013129,-0.00059569,-0.00040629,-0.00016253,0.00011129
 ,0.00008772,-0.00015005,-0.29065477,-0.06515189,-0.02343795,-0.0015421
 5,0.00005570,-0.00034290,0.31572949,-0.00019012,-0.00022907,0.00008653
 ,-0.00041858,0.00019795,-0.00067234,0.00056079,0.00009730,0.00034142,-
 0.00015481,0.00028542,-0.00010660,-0.01659018,-0.00608957,-0.00270728,
 -0.00004069,-0.00131840,0.00319166,-0.00024652,0.00025371,0.00001394,-
 0.00118774,0.00023014,0.00004341,0.00033677,0.00018079,0.00006302,-0.0
 6406281,-0.06571434,-0.00478294,-0.01816764,-0.00500786,-0.00038559,0.
 07311376,0.06820622,-0.00021303,0.00005578,0.00016594,0.00102170,-0.00
 114601,0.00060718,-0.00047687,0.00037451,0.00000794,-0.00010013,-0.000
 16879,0.00009165,0.02731802,0.00711206,0.00246735,0.00056746,0.0020457
 8,-0.00477027,-0.00010875,-0.00008473,-0.00008919,0.00163881,0.0005786
 5,0.00004167,-0.00003093,0.00013995,0.00006697,-0.02587960,-0.00602886
 ,-0.04903328,-0.02541495,-0.00520536,-0.00127649,0.02500704,0.00386659
 ,0.05131281,-0.00018976,0.00004909,-0.00000103,0.00035535,-0.00073764,
 0.00151283,0.00026097,-0.00007763,0.00029118,0.00033486,-0.00026396,0.
 00013398,0.00457742,-0.00947467,0.00063784,0.00086446,-0.00086570,-0.0
 0002652,-0.00001068,-0.00008501,0.00032772,0.00007864,0.00010822,-0.00
 013277,-0.00004469,-0.00010268,0.00002874,-0.12977435,0.12159986,-0.01
 878592,0.00165281,-0.00409495,0.00120773,-0.01556571,0.02593361,-0.003
 25481,0.13723838,-0.00025712,0.00029881,0.00018681,-0.00169633,-0.0002
 4018,0.00276216,0.00002153,0.00023438,-0.00003247,0.00045394,-0.000927
 52,-0.00000451,0.00927543,-0.01529305,0.00177161,0.00099579,0.00030136
 ,-0.00070966,-0.00099613,0.00030010,0.00019355,-0.00015850,0.00043980,
 -0.00007879,0.00004721,-0.00004195,0.00008545,0.11983607,-0.22533925,0
 .02778586,0.00980748,-0.01435598,0.00336315,-0.00490594,0.00857893,-0.
 00143547,-0.13206029,0.24478499,0.00053001,-0.00077128,-0.00024279,0.0
 0053035,0.00196182,-0.00322933,0.00000548,-0.00045643,-0.00013168,0.00
 003713,0.00129327,-0.00033455,-0.01529011,0.02385499,-0.00552545,-0.00
 135799,-0.00053493,0.00078276,0.00065808,-0.00014623,0.00025800,-0.000
 11460,-0.00028244,0.00000613,0.00006121,-0.00012631,-0.00003183,-0.017
 70303,0.02601540,-0.04960875,0.01553068,-0.02073546,0.00483672,-0.0017
 6151,0.00247246,-0.00123677,0.01882934,-0.03269920,0.05251625,-0.00024
 125,0.00286016,-0.00001546,0.00554300,0.01112245,0.01113149,0.00209069
 ,-0.00191862,0.00052456,0.00060014,-0.00120659,-0.00029565,-0.07040606
 ,-0.02777236,-0.00401882,-0.00634508,-0.03055800,-0.03278051,0.0035457
 5,0.00077533,0.00041817,0.00145900,-0.00006561,0.00112211,-0.00919222,
 -0.00234975,0.00047699,0.00279491,0.00492307,0.00790418,-0.00111120,-0
 .00063307,0.00186312,0.00028106,0.00080779,0.00067616,0.00021632,-0.00
 002573,-0.00016111,0.11852561,0.00264834,-0.01022893,-0.00063978,0.001
 00058,-0.03432936,-0.03457857,-0.00060935,0.00515079,0.00031047,-0.005
 54989,0.00258022,-0.00107020,-0.03974269,-0.14441304,-0.02041826,-0.00
 767359,-0.01328714,-0.01884840,-0.00063657,0.00153796,0.00032673,0.000
 82426,-0.00026066,0.00038291,-0.00398735,0.00003580,0.00104536,0.00391
 786,0.01175096,0.01027002,-0.00113631,-0.00200255,0.00430986,0.0000004
 4,0.00053442,0.00019795,0.00024113,0.00103825,0.00087244,0.07593635,0.
 26503559,0.00063522,-0.00185639,0.00060248,0.00444696,-0.01352358,-0.0
 0900611,0.00046713,0.00169740,0.00051711,-0.00131419,0.00133697,-0.001
 60075,-0.02064324,-0.05939674,-0.08366642,-0.00993395,-0.01239250,-0.0
 1295185,0.00069053,0.00077204,0.00064429,0.00135920,0.00100817,-0.0005
 9528,-0.00273858,0.00033063,0.00030198,0.00141855,-0.01117391,-0.04339
 849,0.00057702,0.00096485,-0.00285562,-0.00098760,-0.00117375,0.000570
 69,-0.00035405,-0.00135295,0.00133636,-0.04199313,0.01435515,0.3347078
 3,0.00085390,-0.00086201,-0.00064699,-0.00155906,0.00135058,0.00278800
 ,0.00013314,-0.00038659,-0.00000702,-0.00002979,-0.00000114,0.00007783
 ,-0.00390380,0.00164822,-0.00006278,-0.00166361,-0.00114516,-0.0017721
 5,0.00003945,0.00013390,-0.00006652,0.00150207,0.00167749,-0.00223970,
 0.00081016,0.00080985,-0.00111760,0.00133381,0.00225650,0.00055043,0.0
 0073922,-0.00076299,0.00063069,0.00072965,0.00033319,-0.00086139,-0.00
 002756,-0.00037741,0.00010640,-0.04615023,-0.02315269,0.06578056,0.378
 00174,0.00088993,0.00120495,0.00024629,-0.00073604,-0.00066678,-0.0026
 3733,0.00045873,-0.00054266,-0.00016928,0.00089173,-0.00053962,-0.0020
 4005,0.01124716,0.01629900,-0.01055062,-0.00214938,-0.00096871,0.00041
 373,0.00003667,0.00010745,-0.00030418,0.00092192,0.00087186,-0.0018121
 3,0.00029026,0.00051250,-0.00101563,0.00015815,-0.00052133,-0.00374688
 ,-0.00026257,0.00056297,-0.00070410,0.00022386,-0.00018304,-0.00024475
 ,-0.00025424,0.00021862,-0.00070426,-0.00959083,-0.09032910,0.05948243
 ,-0.22290940,0.24428631,-0.00197224,0.00236001,0.00146057,0.00469121,-
 0.00307683,0.00012589,0.00028822,0.00096889,-0.00005975,-0.00069759,-0
 .00072097,-0.00067723,0.00646986,0.02177420,-0.04365227,-0.00048323,-0
 .00012060,0.00216904,-0.00014699,0.00030506,-0.00057460,-0.00114816,-0
 .00020687,-0.00141497,0.00116281,0.00063040,0.00038065,-0.00404596,-0.
 01249023,-0.00520861,0.00142691,0.00272748,-0.00219563,0.00015283,-0.0
 0012924,0.00085053,-0.00039976,0.00004374,0.00072663,0.02558513,0.0578
 9438,-0.15956647,-0.13337080,-0.00820715,0.25635048,-0.00023178,0.0001
 2117,0.00022809,0.00049314,-0.00085643,-0.00103976,-0.00007436,0.00032
 988,0.00004474,-0.00043868,0.00032915,0.00032387,0.00129606,0.00112376
 ,-0.00002151,0.00023345,0.00036720,-0.00020258,-0.00026954,0.00013433,
 -0.00033458,-0.00025146,-0.00079902,-0.00029454,-0.00012721,0.00003508
 ,0.00025661,-0.00039724,-0.00059423,-0.00052314,0.00013419,0.00008197,
 -0.00026172,-0.00005633,-0.00002682,0.00011128,0.00003353,0.00004002,0
 .00009969,-0.00161044,-0.00208051,0.00258956,-0.33080911,0.22078405,0.
 10248777,0.33207579,-0.00022746,0.00055117,0.00011886,0.00032876,-0.00
 103717,-0.00038167,-0.00020050,0.00010118,0.00020657,0.00016056,0.0005
 6412,0.00007654,-0.00022737,-0.00302070,-0.00108479,0.00054965,0.00144
 574,-0.00090647,0.00001636,-0.00009034,0.00017947,-0.00046522,-0.00097
 466,-0.00010390,-0.00003881,-0.00025071,0.00049911,-0.00015321,0.00083
 889,0.00051485,0.00007157,-0.00016011,0.00024597,0.00000734,-0.0000225
 9,-0.00005730,0.00008488,0.00000268,-0.00001382,-0.02230459,0.00718681
 ,0.02092217,0.24138765,-0.17031243,-0.06175227,-0.21898962,0.16517810,
 -0.00004725,0.00001820,0.00006558,-0.00036422,0.00065265,0.00002936,-0
 .00007051,-0.00000258,-0.00012531,0.00010286,-0.00030411,-0.00000051,0
 .00599976,0.00194140,-0.00397263,0.00018756,0.00024597,0.00042457,-0.0
 0030364,0.00009017,-0.00041043,-0.00076988,-0.00109254,-0.00024023,-0.
 00019641,0.00003976,0.00037604,-0.00051786,-0.00108736,-0.00099610,-0.
 00012072,0.00037847,-0.00039308,-0.00019525,-0.00012128,0.00022326,-0.
 00001451,0.00012073,-0.00012170,0.02956278,-0.01441007,-0.02503974,0.0
 7021104,-0.02800610,-0.04871424,-0.10346377,0.04153669,0.07889518\\0.0
 0000134,0.00000301,-0.00000462,0.00000148,-0.00000104,-0.00000299,0.00
 000202,0.00000231,-0.00000478,0.00000389,-0.00000169,-0.00000422,0.000
 00033,0.00000085,0.00000056,-0.00000019,-0.00000116,0.00000203,-0.0000
 0133,-0.00000200,0.00000434,0.00000173,-0.00000381,0.00000184,-0.00000
 036,-0.00000083,0.00000072,-0.00000376,0.00000363,0.00000087,-0.000003
 97,0.00000413,-0.00000080,-0.00000301,0.00000418,-0.00000056,-0.000004
 46,0.00000258,0.00000326,0.00000034,-0.00000037,0.00000033,-0.00000178
 ,-0.00000175,0.00000233,0.00000775,-0.00000802,0.00000167\\\@


 In the beginning there was nothing, which exploded.
 Job cpu time:  0 days  1 hours 11 minutes 54.8 seconds.
 File lengths (MBytes):  RWF=    125 Int=      0 D2E=      0 Chk=      8 Scr=      1
 Normal termination of Gaussian 03 at Mon Jun 10 09:54:23 2013.
