 Entering Gaussian System, Link 0=g03
 Input=p17.gjf
 Output=p17.log
 Initial command:
 /opt/g03/l1.exe /scratch/goldmanm/Gau-16160.inp -scrdir=/scratch/goldmanm/
 Entering Link 1 = /opt/g03/l1.exe PID=     16162.
  
 Copyright (c) 1988,1990,1992,1993,1995,1998,2003,2004, Gaussian, Inc.
                  All Rights Reserved.
  
 This is the Gaussian(R) 03 program.  It is based on the
 the Gaussian(R) 98 system (copyright 1998, Gaussian, Inc.),
 the Gaussian(R) 94 system (copyright 1995, Gaussian, Inc.),
 the Gaussian 92(TM) system (copyright 1992, Gaussian, Inc.),
 the Gaussian 90(TM) system (copyright 1990, Gaussian, Inc.),
 the Gaussian 88(TM) system (copyright 1988, Gaussian, Inc.),
 the Gaussian 86(TM) system (copyright 1986, Carnegie Mellon
 University), and the Gaussian 82(TM) system (copyright 1983,
 Carnegie Mellon University). Gaussian is a federally registered
 trademark of Gaussian, Inc.
  
 This software contains proprietary and confidential information,
 including trade secrets, belonging to Gaussian, Inc.
  
 This software is provided under written license and may be
 used, copied, transmitted, or stored only in accord with that
 written license.
  
 The following legend is applicable only to US Government
 contracts under FAR:
  
                    RESTRICTED RIGHTS LEGEND
  
 Use, reproduction and disclosure by the US Government is
 subject to restrictions as set forth in subparagraphs (a)
 and (c) of the Commercial Computer Software - Restricted
 Rights clause in FAR 52.227-19.
  
 Gaussian, Inc.
 340 Quinnipiac St., Bldg. 40, Wallingford CT 06492
  
  
 ---------------------------------------------------------------
 Warning -- This program may not be used in any manner that
 competes with the business of Gaussian, Inc. or will provide
 assistance to any competitor of Gaussian, Inc.  The licensee
 of this program is prohibited from giving any competitor of
 Gaussian, Inc. access to this program.  By using this program,
 the user acknowledges that Gaussian, Inc. is engaged in the
 business of creating and licensing software in the field of
 computational chemistry and represents and warrants to the
 licensee that it is not a competitor of Gaussian, Inc. and that
 it will not use this program in any manner prohibited above.
 ---------------------------------------------------------------
  

 Cite this work as:
 Gaussian 03, Revision D.01,
 M. J. Frisch, G. W. Trucks, H. B. Schlegel, G. E. Scuseria, 
 M. A. Robb, J. R. Cheeseman, J. A. Montgomery, Jr., T. Vreven, 
 K. N. Kudin, J. C. Burant, J. M. Millam, S. S. Iyengar, J. Tomasi, 
 V. Barone, B. Mennucci, M. Cossi, G. Scalmani, N. Rega, 
 G. A. Petersson, H. Nakatsuji, M. Hada, M. Ehara, K. Toyota, 
 R. Fukuda, J. Hasegawa, M. Ishida, T. Nakajima, Y. Honda, O. Kitao, 
 H. Nakai, M. Klene, X. Li, J. E. Knox, H. P. Hratchian, J. B. Cross, 
 V. Bakken, C. Adamo, J. Jaramillo, R. Gomperts, R. E. Stratmann, 
 O. Yazyev, A. J. Austin, R. Cammi, C. Pomelli, J. W. Ochterski, 
 P. Y. Ayala, K. Morokuma, G. A. Voth, P. Salvador, J. J. Dannenberg, 
 V. G. Zakrzewski, S. Dapprich, A. D. Daniels, M. C. Strain, 
 O. Farkas, D. K. Malick, A. D. Rabuck, K. Raghavachari, 
 J. B. Foresman, J. V. Ortiz, Q. Cui, A. G. Baboul, S. Clifford, 
 J. Cioslowski, B. B. Stefanov, G. Liu, A. Liashenko, P. Piskorz, 
 I. Komaromi, R. L. Martin, D. J. Fox, T. Keith, M. A. Al-Laham, 
 C. Y. Peng, A. Nanayakkara, M. Challacombe, P. M. W. Gill, 
 B. Johnson, W. Chen, M. W. Wong, C. Gonzalez, and J. A. Pople, 
 Gaussian, Inc., Wallingford CT, 2004.
 
 ******************************************
 Gaussian 03:  AM64L-G03RevD.01 13-Oct-2005
                14-Mar-2019 
 ******************************************
 %chk=input.chk
 %mem=1500mb
 %nproc=8
 Will use up to    8 processors via shared memory.
 -------------------------------------
 # freq nosymm b3lyp/cbsb7 iop(7/33=1)
 -------------------------------------
 1/10=4,30=1,38=1/1,3;
 2/15=1,17=6,18=5,40=1/2;
 3/5=4,6=6,7=700,11=2,16=1,25=1,30=1,74=-5/1,2,3;
 4//1;
 5/5=2,38=5/2;
 8/6=4,10=90,11=11/1;
 11/6=1,8=1,9=11,15=111,16=1,31=1/1,2,10;
 10/6=1,31=1/2;
 6/7=2,8=2,9=2,10=2,18=1,28=1/1;
 7/8=1,10=1,25=1,30=1,33=1/1,2,3,16;
 1/10=4,30=1/3;
 99//99;
 -------
 NBO NRT
 -------
 Symbolic Z-matrix:
 Charge =  0 Multiplicity = 1
 O                    -4.48816   0.50838   0.79086 
 C                    -3.90916   1.61361   0.11702 
 C                    -2.44678   1.82548   0.40573 
 C                    -1.74769   1.15133   1.31249 
 H                    -4.02781  -0.2838    0.4941 
 H                    -4.05386   1.5385   -0.97242 
 H                    -4.4774    2.49204   0.44176 
 H                    -1.9639    2.59486  -0.19433 
 H                    -2.21641   0.3953    1.93277 
 H                    -0.69376   1.34318   1.47465 
 

 GradGradGradGradGradGradGradGradGradGradGradGradGradGradGradGradGradGrad
 Berny optimization.
 Initialization pass.
 Trust Radius=3.00D-01 FncErr=1.00D-07 GrdErr=1.00D-07
 Number of steps in this run=   2 maximum allowed number of steps=   2.
 GradGradGradGradGradGradGradGradGradGradGradGradGradGradGradGradGradGrad

                          Input orientation:                          
 ---------------------------------------------------------------------
 Center     Atomic     Atomic              Coordinates (Angstroms)
 Number     Number      Type              X           Y           Z
 ---------------------------------------------------------------------
    1          8             0       -4.488160    0.508380    0.790860
    2          6             0       -3.909160    1.613610    0.117020
    3          6             0       -2.446780    1.825480    0.405730
    4          6             0       -1.747690    1.151330    1.312490
    5          1             0       -4.027810   -0.283800    0.494100
    6          1             0       -4.053860    1.538500   -0.972420
    7          1             0       -4.477400    2.492040    0.441760
    8          1             0       -1.963900    2.594860   -0.194330
    9          1             0       -2.216410    0.395300    1.932770
   10          1             0       -0.693760    1.343180    1.474650
 ---------------------------------------------------------------------
                    Distance matrix (angstroms):
                    1          2          3          4          5
     1  O    0.000000
     2  C    1.418039   0.000000
     3  C    2.459738   1.505589   0.000000
     4  C    2.862806   2.512927   1.328691   0.000000
     5  H    0.963088   1.938152   2.637523   2.815725   0.000000
     6  H    2.087803   1.101571   2.136437   3.269424   2.339260
     7  H    2.014173   1.095441   2.137526   3.163383   2.812500
     8  H    3.419925   2.200870   1.088665   2.097864   3.608371
     9  H    2.545112   2.765254   2.104836   1.084448   2.410833
    10  H    3.944861   3.500727   2.109095   1.083453   3.837243
                    6          7          8          9         10
     6  H    0.000000
     7  H    1.757421   0.000000
     8  H    2.467641   2.594776   0.000000
     9  H    3.622604   3.425128   3.070241   0.000000
    10  H    4.161319   4.086890   2.442428   1.851165   0.000000
 Symmetry turned off by external request.
 Stoichiometry    C3H6O
 Framework group  C1[X(C3H6O)]
 Deg. of freedom    24
 Full point group                 C1
 Rotational constants (GHZ):     16.9035759      5.9085686      4.5611132
 Standard basis: CBSB7 (5D, 7F)
 Integral buffers will be    131072 words long.
 Raffenetti 2 integral format.
 Two-electron integral symmetry is turned off.
   108 basis functions,   176 primitive gaussians,   112 cartesian basis functions
    16 alpha electrons       16 beta electrons
       nuclear repulsion energy       118.5495342374 Hartrees.
 NAtoms=   10 NActive=   10 NUniq=   10 SFac= 7.50D-01 NAtFMM=   80 NAOKFM=F Big=F
 One-electron integrals computed using PRISM.
 NBasis=   108 RedAO= T  NBF=   108
 NBsUse=   108 1.00D-06 NBFU=   108
 Harris functional with IExCor=  402 diagonalized for initial guess.
 ExpMin= 1.03D-01 ExpMax= 8.59D+03 ExpMxC= 1.30D+03 IAcc=1 IRadAn=         1 AccDes= 1.00D-06
 HarFok:  IExCor= 402 AccDes= 1.00D-06 IRadAn=         1 IDoV=1
 ScaDFX=  1.000000  1.000000  1.000000  1.000000
 Requested convergence on RMS density matrix=1.00D-08 within 128 cycles.
 Requested convergence on MAX density matrix=1.00D-06.
 Requested convergence on             energy=1.00D-06.
 No special actions if energy rises.
 Keep R1 integrals in memory in canonical form, NReq=    21926357.
 Integral accuracy reduced to 1.0D-05 until final iterations.
 Initial convergence to 1.0D-05 achieved.  Increase integral accuracy.
 SCF Done:  E(RB+HF-LYP) =  -193.175777512     A.U. after   13 cycles
             Convg  =    0.5605D-08             -V/T =  2.0038
             S**2   =   0.0000
 Range of M.O.s used for correlation:     1   108
 NBasis=   108 NAE=    16 NBE=    16 NFC=     0 NFV=     0
 NROrb=    108 NOA=    16 NOB=    16 NVA=    92 NVB=    92
 Symmetrizing basis deriv contribution to polar:
 IMax=3 JMax=2 DiffMx= 0.00D+00
 G2DrvN: will do   11 centers at a time, making    1 passes doing MaxLOS=2.
 FoFDir/FoFCou used for L=0 through L=2.
 DoAtom=TTTTTTTTTT
          Differentiating once with respect to electric field.
                with respect to dipole field.
          Differentiating once with respect to nuclear coordinates.
          Store integrals in memory, NReq=    20848010.
          There are  33 degrees of freedom in the 1st order CPHF.
    30 vectors were produced by pass  0.
 AX will form  30 AO Fock derivatives at one time.
    30 vectors were produced by pass  1.
    30 vectors were produced by pass  2.
    30 vectors were produced by pass  3.
    30 vectors were produced by pass  4.
    15 vectors were produced by pass  5.
     3 vectors were produced by pass  6.
 Inv2:  IOpt= 1 Iter= 1 AM= 1.69D-15 Conv= 1.00D-12.
 Inverted reduced A of dimension  168 with in-core refinement.
 Isotropic polarizability for W=    0.000000       37.65 Bohr**3.
 End of Minotr Frequency-dependent properties file   721 does not exist.

 **********************************************************************

            Population analysis using the SCF density.

 **********************************************************************

 Alpha  occ. eigenvalues --  -19.11744 -10.22342 -10.17676 -10.16387  -1.02627
 Alpha  occ. eigenvalues --   -0.78407  -0.68683  -0.56785  -0.50241  -0.48493
 Alpha  occ. eigenvalues --   -0.44606  -0.40827  -0.37907  -0.33851  -0.28650
 Alpha  occ. eigenvalues --   -0.26484
 Alpha virt. eigenvalues --    0.00738   0.03823   0.06085   0.08306   0.10247
 Alpha virt. eigenvalues --    0.11802   0.13884   0.18202   0.24481   0.29613
 Alpha virt. eigenvalues --    0.34767   0.36155   0.37249   0.39953   0.41702
 Alpha virt. eigenvalues --    0.44397   0.45755   0.47997   0.51453   0.53495
 Alpha virt. eigenvalues --    0.58025   0.58265   0.60946   0.66226   0.68072
 Alpha virt. eigenvalues --    0.77568   0.79423   0.82719   0.86928   0.88443
 Alpha virt. eigenvalues --    0.95084   1.05627   1.07832   1.13270   1.21241
 Alpha virt. eigenvalues --    1.34140   1.37453   1.39745   1.41145   1.45069
 Alpha virt. eigenvalues --    1.47576   1.51734   1.52835   1.57811   1.61538
 Alpha virt. eigenvalues --    1.62828   1.63915   1.72718   1.74010   1.79189
 Alpha virt. eigenvalues --    1.86877   1.88214   1.96260   2.01042   2.05273
 Alpha virt. eigenvalues --    2.10216   2.12223   2.17523   2.19797   2.27187
 Alpha virt. eigenvalues --    2.28690   2.36891   2.38776   2.49919   2.52163
 Alpha virt. eigenvalues --    2.57006   2.58287   2.60973   2.68783   2.72233
 Alpha virt. eigenvalues --    2.78398   2.88569   2.89190   3.01787   3.09012
 Alpha virt. eigenvalues --    3.14404   3.23917   3.34775   3.46021   3.66415
 Alpha virt. eigenvalues --    3.73368   3.86618   3.92964   3.95697   4.24838
 Alpha virt. eigenvalues --    4.89548   5.25803   5.64173  23.69466  23.80218
 Alpha virt. eigenvalues --   24.27656  49.88345
          Condensed to atoms (all electrons):
              1          2          3          4          5          6
     1  O    7.862093   0.311031  -0.057449   0.000498   0.310353  -0.032404
     2  C    0.311031   4.684138   0.328202  -0.066866  -0.053375   0.409836
     3  C   -0.057449   0.328202   5.128544   0.614648   0.006091  -0.068759
     4  C    0.000498  -0.066866   0.614648   4.869342   0.001511   0.007511
     5  H    0.310353  -0.053375   0.006091   0.001511   0.506821  -0.013634
     6  H   -0.032404   0.409836  -0.068759   0.007511  -0.013634   0.640992
     7  H   -0.027394   0.392680  -0.040558  -0.005605   0.011303  -0.044722
     8  H    0.003983  -0.032966   0.381951  -0.035826  -0.000011  -0.002273
     9  H    0.021731  -0.013996  -0.052441   0.408695  -0.001636   0.002083
    10  H    0.000222   0.007564  -0.035247   0.406773  -0.000218  -0.000242
              7          8          9         10
     1  O   -0.027394   0.003983   0.021731   0.000222
     2  C    0.392680  -0.032966  -0.013996   0.007564
     3  C   -0.040558   0.381951  -0.052441  -0.035247
     4  C   -0.005605  -0.035826   0.408695   0.406773
     5  H    0.011303  -0.000011  -0.001636  -0.000218
     6  H   -0.044722  -0.002273   0.002083  -0.000242
     7  H    0.589539   0.003366  -0.000125  -0.000309
     8  H    0.003366   0.584695   0.009333  -0.011267
     9  H   -0.000125   0.009333   0.563015  -0.038247
    10  H   -0.000309  -0.011267  -0.038247   0.563235
 Mulliken atomic charges:
              1
     1  O   -0.392663
     2  C    0.033752
     3  C   -0.204981
     4  C   -0.200682
     5  H    0.232795
     6  H    0.101612
     7  H    0.121826
     8  H    0.099017
     9  H    0.101587
    10  H    0.107736
 Sum of Mulliken charges=   0.00000
 Atomic charges with hydrogens summed into heavy atoms:
              1
     1  O   -0.159868
     2  C    0.257191
     3  C   -0.105965
     4  C    0.008641
     5  H    0.000000
     6  H    0.000000
     7  H    0.000000
     8  H    0.000000
     9  H    0.000000
    10  H    0.000000
 Sum of Mulliken charges=   0.00000
 APT atomic charges:
              1
     1  O   -0.564658
     2  C    0.473195
     3  C    0.000119
     4  C   -0.134303
     5  H    0.241334
     6  H   -0.075419
     7  H   -0.027285
     8  H    0.005470
     9  H    0.048857
    10  H    0.032691
 Sum of APT charges=   0.00000
 APT Atomic charges with hydrogens summed into heavy atoms:
              1
     1  O   -0.323325
     2  C    0.370491
     3  C    0.005589
     4  C   -0.052755
     5  H    0.000000
     6  H    0.000000
     7  H    0.000000
     8  H    0.000000
     9  H    0.000000
    10  H    0.000000
 Sum of APT charges=   0.00000
 Electronic spatial extent (au):  <R**2>=  1689.4877
 Charge=     0.0000 electrons
 Dipole moment (field-independent basis, Debye):
    X=     0.9897    Y=    -0.0306    Z=    -1.1767  Tot=     1.5379
 Quadrupole moment (field-independent basis, Debye-Ang):
   XX=   -33.8320   YY=   -22.5498   ZZ=   -26.8763
   XY=     0.6052   XZ=     5.8909   YZ=    -2.0571
 Traceless Quadrupole moment (field-independent basis, Debye-Ang):
   XX=    -6.0793   YY=     5.2029   ZZ=     0.8764
   XY=     0.6052   XZ=     5.8909   YZ=    -2.0571
 Octapole moment (field-independent basis, Debye-Ang**2):
  XXX=   295.3011  YYY=   -92.3001  ZZZ=   -51.6412  XYY=    67.2296
  XXY=   -34.4189  XXZ=   -42.8699  XZZ=    85.7348  YZZ=   -35.8739
  YYZ=   -19.2638  XYZ=     6.5717
 Hexadecapole moment (field-independent basis, Debye-Ang**3):
 XXXX= -2061.9654 YYYY=  -323.4253 ZZZZ=  -144.2047 XXXY=   295.0671
 XXXZ=   250.4091 YYYX=   263.6637 YYYZ=   -56.6215 ZZZX=   138.3483
 ZZZY=   -55.8661 XXYY=  -286.3347 XXZZ=  -336.2115 YYZZ=   -85.3567
 XXYZ=   -36.0222 YYXZ=    46.2646 ZZXY=   105.3929
 N-N= 1.185495342374D+02 E-N=-6.884032362091D+02  KE= 1.924491542381D+02
  Exact polarizability:  41.781  -1.672  35.319   7.530  -8.090  35.848
 Approx polarizability:  54.639  -5.511  50.681  10.794 -13.723  52.416
 Use density number 0.
 Entering OneElI...
 Calculate overlap and kinetic energy integrals
    NBasis = 112  MinDer = 2  MaxDer = 2
 Requested accuracy = 0.1000D-12
 PrsmSu:  NPrtUS=   1 ThrOK=F
 PRISM was handed   196486006 working-precision words and   990 shell-pairs
 Entering OneElI...
 Calculate potential energy integrals
    NBasis = 112  MinDer = 2  MaxDer = 2
 Requested accuracy = 0.1000D-12
 PrsmSu:  NPrtUS=   8 ThrOK=T
 PRISM was handed    24541114 working-precision words and   973 shell-pairs
 PRISM was handed    24541114 working-precision words and   973 shell-pairs
 PRISM was handed    24541114 working-precision words and   973 shell-pairs
 PRISM was handed    24541114 working-precision words and   973 shell-pairs
 PRISM was handed    24541114 working-precision words and   973 shell-pairs
 PRISM was handed    24541114 working-precision words and   973 shell-pairs
 PRISM was handed    24541114 working-precision words and   973 shell-pairs
 PRISM was handed    24541114 working-precision words and   973 shell-pairs
 Polarizability after L701:
                1             2             3
      1  0.417807D+02
      2 -0.167189D+01  0.353189D+02
      3  0.752954D+01 -0.809007D+01  0.358480D+02
 Dipole Derivatives after L701:
               1            2            3            4            5
      1-0.592342D+00-0.326975D+00-0.126068D-01 0.380262D+00 0.253136D+00
      2-0.255692D+00-0.629553D+00 0.157089D+00 0.168508D+00 0.575559D+00
      3-0.521017D-01 0.170160D+00-0.472081D+00-0.780513D-01-0.657255D-01
               6            7            8            9           10
      1-0.852070D-01 0.126003D+00 0.475127D-01 0.216218D-01-0.554120D-01
      2-0.889850D-01-0.244685D-01-0.548522D-01-0.170972D+00 0.112228D+00
      3 0.463765D+00 0.109078D+00-0.184861D+00-0.707945D-01-0.401446D-01
              11           12           13           14           15
      1 0.136277D+00-0.238999D-01 0.258381D+00 0.790506D-01 0.925099D-01
      2-0.173609D+00-0.124560D+00 0.133759D+00 0.222508D+00-0.915338D-02
      3-0.110452D+00-0.173888D+00 0.874712D-01 0.765263D-03 0.243111D+00
              16           17           18           19           20
      1-0.180994D-01-0.498538D-01-0.397158D-01-0.570280D-01 0.351968D-01
      2-0.244619D-01 0.178028D-01 0.439979D-01 0.776663D-01-0.791665D-01
      3-0.286525D-01-0.128276D-01-0.225960D+00-0.109538D-01-0.357692D-01
              21           22           23           24           25
      1 0.576562D-01-0.221891D-02-0.742337D-01 0.132789D-01 0.512817D-01
      2-0.442445D-01-0.788942D-01-0.537363D-02 0.115143D+00-0.771884D-01
      3 0.543381D-01 0.183930D-01 0.108594D+00 0.240038D-01 0.463998D-01
              26           27           28           29           30
      1-0.455263D-01 0.909618D-02-0.908275D-01-0.545850D-01-0.327334D-01
      2 0.320705D-01 0.827892D-01-0.314564D-01 0.946132D-01 0.388955D-01
      3 0.938109D-01 0.632190D-01-0.514376D-01 0.363046D-01 0.942859D-01
 Hessian after L701:
                1             2             3             4             5
      1  0.860750D+01
      2 -0.153905D+01  0.372682D+01
      3  0.190898D+01  0.195654D+01  0.102543D+02
      4 -0.539390D+01  0.272996D+01 -0.169838D+01  0.109596D+02
      5  0.282148D+01 -0.138842D+01 -0.325769D+01 -0.259242D+01  0.114168D+02
      6 -0.171201D+01 -0.324015D+01 -0.486297D+01  0.526416D+00  0.246040D+01
      7  0.576057D+00  0.332758D+00  0.139728D+00  0.107653D+00  0.832276D+00
      8  0.402032D+00 -0.155555D+00  0.163895D+00  0.917007D+00 -0.488581D+01
      9  0.922723D-01  0.167386D+00 -0.241953D+00  0.876587D+00  0.192626D+00
     10  0.494772D+00  0.179922D+00  0.399495D-01  0.270580D+00  0.440061D-01
     11  0.248800D+00 -0.289115D+00  0.265571D-01 -0.393312D-01 -0.824404D-01
     12  0.661082D-01  0.160540D-01 -0.333238D+00  0.205644D+00  0.775793D-01
     13 -0.452073D+01 -0.153176D+01 -0.514401D+00  0.104412D+00 -0.570655D-01
     14 -0.178724D+01 -0.179357D+01  0.103935D+01  0.586277D-01  0.723681D-01
     15 -0.542210D+00  0.962792D+00 -0.497244D+01 -0.170744D-01  0.284728D-01
     16 -0.498490D-03 -0.578376D-01  0.685022D-01 -0.334695D+01 -0.753918D-02
     17 -0.645142D-01 -0.728157D-01  0.525700D-01 -0.833551D-02 -0.337360D+01
     18  0.425777D-01  0.343037D-01  0.318808D+00  0.343920D+00  0.159687D-01
     19 -0.580584D-02 -0.187952D+00  0.192486D-01 -0.280927D+01 -0.101009D+01
     20 -0.108768D+00  0.771108D-01  0.106285D+00 -0.103155D+01 -0.173870D+01
     21  0.148092D-01  0.176385D+00 -0.568196D-01 -0.295445D+00  0.475843D+00
     22  0.536694D-01  0.807782D-01 -0.479507D-01 -0.684526D-02 -0.481989D-01
     23  0.105967D+00  0.364102D-01 -0.489936D-01 -0.312348D-01  0.227049D-01
     24 -0.647067D-01 -0.475523D-01 -0.124571D-01  0.791017D-02 -0.136923D-01
     25  0.109342D+00 -0.197989D-01  0.771574D-01 -0.231808D-01  0.250591D-01
     26 -0.972796D-01 -0.124479D+00 -0.372617D-01  0.828710D-02 -0.942238D-02
     27  0.175913D+00 -0.259557D-01 -0.761311D-01 -0.151930D-01  0.168267D-01
     28  0.795928D-01  0.129807D-01  0.716883D-02  0.137875D+00 -0.750995D-02
     29  0.185708D-01 -0.163835D-01 -0.125717D-02 -0.110138D-01 -0.334728D-01
     30  0.182715D-01  0.198443D-03 -0.171137D-01  0.656144D-01  0.366080D-02
                6             7             8             9            10
      6  0.138282D+02
      7  0.936134D+00  0.746671D+01
      8  0.209035D+00 -0.749358D-01  0.135232D+02
      9 -0.499686D+01 -0.367412D+01  0.440131D+01  0.128432D+02
     10  0.158404D+00 -0.549303D+01 -0.194835D+01  0.339829D+01  0.852409D+01
     11  0.438882D-01 -0.178938D+01 -0.679968D+01 -0.387722D+01  0.534891D+00
     12  0.374770D-01  0.326587D+01 -0.394042D+01 -0.518554D+01 -0.333270D+01
     13 -0.763652D-02  0.928391D-02  0.288700D-01  0.106650D-01  0.260774D-01
     14 -0.364273D-01  0.842657D-01  0.215559D-01  0.156391D-01  0.705976D-01
     15  0.111035D+00  0.233784D-01  0.379892D-01 -0.467428D-01  0.303755D-01
     16  0.377774D+00 -0.350448D-01 -0.552712D-02 -0.168960D+00  0.270686D-01
     17 -0.136481D-01  0.709191D-02  0.136353D+00  0.310325D-02  0.636824D-02
     18 -0.875691D+00 -0.172141D+00 -0.120083D-02  0.118556D-01  0.125438D+00
     19 -0.347542D+00  0.339158D-01 -0.544578D-01  0.359507D-01  0.360659D-02
     20  0.576993D+00 -0.858508D-01  0.117888D+00 -0.225310D-02 -0.503950D-01
     21 -0.325777D+01  0.715768D-02  0.147083D-01  0.516326D-01 -0.330049D-01
     22  0.284966D-01 -0.284049D+01  0.695707D+00 -0.564476D+00  0.251963D-01
     23 -0.534563D-02  0.692077D+00 -0.206887D+01 -0.873540D+00  0.252065D-01
     24  0.429762D-01 -0.559395D+00 -0.869667D+00 -0.252440D+01 -0.261515D-01
     25 -0.282377D-01  0.813566D-01  0.613977D-01 -0.542214D-01 -0.294849D+01
     26  0.196682D-02 -0.299220D-01  0.938804D-01 -0.298145D-01  0.817136D+00
     27 -0.194595D-01  0.357617D-01 -0.196779D-02  0.648682D-01 -0.732897D+00
     28  0.682025D-01  0.935936D-01 -0.217433D-01  0.480055D-01 -0.929876D+00
     29  0.328708D-02  0.316234D-01  0.170689D-01  0.276293D-02  0.320617D+00
     30 -0.694127D-02 -0.237934D-02 -0.136774D-01  0.239454D-01  0.372294D+00
               11            12            13            14            15
     11  0.121716D+02
     12  0.474928D+01  0.108747D+02
     13  0.569669D-02  0.197712D-02  0.438200D+01
     14 -0.173662D-01  0.996683D-02  0.159202D+01  0.158070D+01
     15  0.850525D-02 -0.306214D-01  0.496124D+00 -0.109801D+01  0.498915D+01
     16  0.608199D-02  0.991782D-01  0.306030D-01  0.127081D-03 -0.265015D-02
     17 -0.480431D-01  0.605518D-02 -0.349091D-02 -0.406029D-01  0.533661D-01
     18  0.185159D-02  0.105452D+00  0.997720D-02  0.507127D-01 -0.187194D-01
     19 -0.383529D-01 -0.216858D-01 -0.271045D-01 -0.516824D-01 -0.912854D-03
     20  0.290935D-01 -0.758173D-03 -0.379031D-01  0.170119D+00  0.692368D-02
     21  0.929088D-02 -0.286644D-01 -0.138131D-02  0.719897D-02 -0.342592D-01
     22  0.659076D-01 -0.625059D-01 -0.186582D-02  0.134903D-01  0.108115D-02
     23  0.103024D+00 -0.559657D-01  0.156688D-02  0.170407D-01  0.182430D-02
     24 -0.479831D-01  0.372556D-01  0.464251D-03 -0.890906D-02 -0.391257D-02
     25  0.624929D+00 -0.532642D+00 -0.899297D-03  0.586154D-02  0.653603D-02
     26 -0.207144D+01 -0.944101D+00  0.107762D-02 -0.125879D-01 -0.372212D-02
     27 -0.101646D+01 -0.247608D+01  0.393232D-02  0.176902D-01  0.696719D-02
     28  0.380761D+00  0.310754D+00 -0.177845D-02  0.139321D-01  0.535223D-02
     29 -0.299562D+01  0.823057D-01  0.985890D-03  0.234511D-02  0.186244D-02
     30  0.102279D+00 -0.300070D+01  0.278939D-03  0.278922D-02 -0.453069D-03
               16            17            18            19            20
     16  0.322418D+01
     17  0.365665D-01  0.336693D+01
     18 -0.443863D+00  0.299330D-01  0.497250D+00
     19  0.982103D-01  0.312889D-01  0.600229D-01  0.265811D+01
     20  0.309121D-01  0.346189D-01 -0.124645D+00  0.130802D+01  0.132284D+01
     21  0.557715D-01 -0.119898D+00 -0.625845D-01  0.268341D+00 -0.557723D+00
     22 -0.142779D-02  0.259802D-03  0.820588D-02  0.414366D-01 -0.121176D-01
     23  0.364005D-02  0.536834D-03  0.114434D-01  0.132468D-01 -0.220308D-01
     24 -0.378582D-02 -0.268556D-02 -0.653075D-02 -0.215855D-01  0.842206D-02
     25  0.148998D-02 -0.563018D-02  0.143273D-01 -0.108581D-02 -0.223638D-02
     26 -0.924461D-02 -0.250344D-02 -0.200445D-01 -0.920620D-02  0.108526D-01
     27  0.157154D-01 -0.887240D-02  0.275105D-01  0.885545D-02 -0.107550D-01
     28  0.236755D-02  0.395372D-03  0.115350D-01  0.798588D-02 -0.101145D-01
     29  0.282072D-02 -0.873642D-03  0.167702D-02 -0.812062D-03 -0.179299D-02
     30  0.231717D-02  0.767068D-04  0.264922D-02 -0.693255D-03 -0.249013D-02
               21            22            23            24            25
     21  0.339915D+01
     22 -0.152298D-01  0.275961D+01
     23 -0.503850D-02 -0.833123D+00  0.185671D+01
     24 -0.666570D-02  0.697492D+00  0.102971D+01  0.244106D+01
     25  0.144301D-02 -0.231839D-01  0.108275D-01 -0.135948D-01  0.287223D+01
     26 -0.243236D-03  0.181229D-01  0.611448D-01 -0.678064D-01 -0.599172D+00
     27 -0.176031D-02 -0.217460D-01 -0.717455D-01  0.509584D-01  0.475550D+00
     28 -0.246176D-02 -0.609957D-02  0.118264D-01 -0.166476D-01 -0.675799D-01
     29 -0.524100D-03  0.191745D-01 -0.667771D-02  0.201601D-01 -0.101238D+00
     30 -0.226065D-02 -0.233676D-01  0.176480D-01 -0.182794D-01  0.536816D-01
               26            27            28            29            30
     26  0.203155D+01
     27  0.107727D+01  0.234929D+01
     28 -0.997996D-01  0.541081D-01  0.683919D+00
     29  0.229990D-01  0.239666D-01 -0.280729D+00  0.301241D+01
     30  0.237561D-01  0.738372D-01 -0.486017D+00 -0.134241D+00  0.294531D+01
 ReadGW:  IGet=0 IStart=          78 Next=        4507 LGW=        4429.
 ICntrl=12127.
 Symmetry not used in FoFDir.
 MinBra= 0 MaxBra= 2 Meth= 1.
 IRaf=       0 NMat=   1 IRICut=       1 DoRegI=T DoRafI=F ISym2E= 0 JSym2E=0.
 PrsmSu:  NPrtUS=   8 ThrOK=T
 PRISM was handed    24537802 working-precision words and   988 shell-pairs
 PRISM was handed    24537802 working-precision words and   988 shell-pairs
 PRISM was handed    24537802 working-precision words and   988 shell-pairs
 PRISM was handed    24537802 working-precision words and   988 shell-pairs
 PRISM was handed    24537802 working-precision words and   988 shell-pairs
 PRISM was handed    24537802 working-precision words and   988 shell-pairs
 PRISM was handed    24537802 working-precision words and   988 shell-pairs
 PRISM was handed    24537802 working-precision words and   988 shell-pairs
 Pruned (  75, 302) grid will be used in CalDFT.
 CkSvGd:  ISavGI=        -1 IRadAn=       4 IRASav=       4 ISavGd=        -1.
 CalDSu:  NPrtUS=   8 ThrOK=T
 IPart= 0 IRanGd=          0 ScrnBf=T ScrnGd=T RCrit=4.00D+00 DoMicB=T.
 IPart= 7 IRanGd=          0 ScrnBf=T ScrnGd=T RCrit=4.00D+00 DoMicB=T.
 CutRad = 1000.00    CtRdIn =    0.00    XCrit =  15.00   ICut = 0
 IPart= 3 IRanGd=          0 ScrnBf=T ScrnGd=T RCrit=4.00D+00 DoMicB=T.
 CutRad = 1000.00    CtRdIn =    0.00    XCrit =  15.00   ICut = 0
 IPart= 4 IRanGd=          0 ScrnBf=T ScrnGd=T RCrit=4.00D+00 DoMicB=T.
 IPart= 2 IRanGd=          0 ScrnBf=T ScrnGd=T RCrit=4.00D+00 DoMicB=T.
 CutRad = 1000.00    CtRdIn =    0.00    XCrit =  15.00   ICut = 0
 CutRad = 1000.00    CtRdIn =    0.00    XCrit =  15.00   ICut = 0
 IPart= 6 IRanGd=          0 ScrnBf=T ScrnGd=T RCrit=4.00D+00 DoMicB=T.
 IPart= 5 IRanGd=          0 ScrnBf=T ScrnGd=T RCrit=4.00D+00 DoMicB=T.
 IPart= 1 IRanGd=          0 ScrnBf=T ScrnGd=T RCrit=4.00D+00 DoMicB=T.
 CutRad = 1000.00    CtRdIn =    0.00    XCrit =  15.00   ICut = 0
 CutRad = 1000.00    CtRdIn =    0.00    XCrit =  15.00   ICut = 0
 CutRad = 1000.00    CtRdIn =    0.00    XCrit =  15.00   ICut = 0
 CutRad = 1000.00    CtRdIn =    0.00    XCrit =  15.00   ICut = 0
 IPart= 6         9506 of        10610 points in      22 batches and       57 microbatches, Max-NSigAt=      10 Max-NSgAt2=      10
 IPart= 1         8519 of         9436 points in      20 batches and       74 microbatches, Max-NSigAt=      10 Max-NSgAt2=      10
 IPart= 2         8124 of         8842 points in      18 batches and       73 microbatches, Max-NSigAt=      10 Max-NSgAt2=      10
 IPart= 4        10122 of        11410 points in      23 batches and       62 microbatches, Max-NSigAt=      10 Max-NSgAt2=      10
 IPart= 7         9210 of        10294 points in      21 batches and       60 microbatches, Max-NSigAt=      10 Max-NSgAt2=      10
 IPart= 5         9072 of         9924 points in      19 batches and       51 microbatches, Max-NSigAt=      10 Max-NSgAt2=      10
 IPart= 0         8505 of         9098 points in      18 batches and       75 microbatches, Max-NSigAt=      10 Max-NSgAt2=      10
 IPart= 3         8966 of         9826 points in      20 batches and       71 microbatches, Max-NSigAt=      10 Max-NSgAt2=      10
 Polarizability after L703:
                1             2             3
      1  0.417807D+02
      2 -0.167189D+01  0.353189D+02
      3  0.752954D+01 -0.809007D+01  0.358480D+02
 Dipole Derivatives after L703:
               1            2            3            4            5
      1-0.592342D+00-0.326975D+00-0.126068D-01 0.380262D+00 0.253136D+00
      2-0.255692D+00-0.629553D+00 0.157089D+00 0.168508D+00 0.575559D+00
      3-0.521017D-01 0.170160D+00-0.472081D+00-0.780513D-01-0.657255D-01
               6            7            8            9           10
      1-0.852070D-01 0.126003D+00 0.475127D-01 0.216218D-01-0.554120D-01
      2-0.889850D-01-0.244685D-01-0.548522D-01-0.170972D+00 0.112228D+00
      3 0.463765D+00 0.109078D+00-0.184861D+00-0.707945D-01-0.401446D-01
              11           12           13           14           15
      1 0.136277D+00-0.238999D-01 0.258381D+00 0.790506D-01 0.925099D-01
      2-0.173609D+00-0.124560D+00 0.133759D+00 0.222508D+00-0.915338D-02
      3-0.110452D+00-0.173888D+00 0.874712D-01 0.765263D-03 0.243111D+00
              16           17           18           19           20
      1-0.180994D-01-0.498538D-01-0.397158D-01-0.570280D-01 0.351968D-01
      2-0.244619D-01 0.178028D-01 0.439979D-01 0.776663D-01-0.791665D-01
      3-0.286525D-01-0.128276D-01-0.225960D+00-0.109538D-01-0.357692D-01
              21           22           23           24           25
      1 0.576562D-01-0.221891D-02-0.742337D-01 0.132789D-01 0.512817D-01
      2-0.442445D-01-0.788942D-01-0.537363D-02 0.115143D+00-0.771884D-01
      3 0.543381D-01 0.183930D-01 0.108594D+00 0.240038D-01 0.463998D-01
              26           27           28           29           30
      1-0.455263D-01 0.909618D-02-0.908275D-01-0.545850D-01-0.327334D-01
      2 0.320705D-01 0.827892D-01-0.314564D-01 0.946132D-01 0.388955D-01
      3 0.938109D-01 0.632190D-01-0.514376D-01 0.363046D-01 0.942859D-01
 Hessian after L703:
                1             2             3             4             5
      1  0.254485D+00
      2 -0.118548D+00  0.573923D+00
      3 -0.154510D+00  0.297965D-01  0.189780D+00
      4 -0.977274D-01 -0.563673D-01  0.452873D-01  0.480287D+00
      5 -0.168467D-01 -0.172005D+00  0.384106D-01 -0.507149D-01  0.537617D+00
      6  0.368838D-01  0.670163D-01 -0.112316D+00 -0.647102D-02  0.255507D-01
      7 -0.199361D-01 -0.114834D-01  0.276812D-02 -0.191293D+00 -0.192247D-01
      8 -0.372392D-01 -0.149616D-01  0.375667D-02 -0.712793D-02 -0.848341D-01
      9  0.227746D-01  0.108584D-01  0.402873D-02 -0.286414D-01  0.391483D-02
     10  0.103147D-02  0.193564D-02 -0.101743D-02 -0.210660D-01  0.176790D-01
     11  0.454664D-03  0.685193D-03  0.536426D-03  0.309336D-02  0.806481D-02
     12  0.423220D-03  0.148207D-02 -0.193608D-02 -0.125626D-01  0.213341D-02
     13 -0.140260D+00  0.208095D+00  0.931440D-01  0.544356D-02 -0.188902D-01
     14  0.169387D+00 -0.347173D+00 -0.103695D+00  0.177983D-01 -0.345201D-01
     15  0.977664D-01 -0.139490D+00 -0.724166D-01 -0.837836D-02  0.242976D-01
     16  0.150820D-02 -0.499848D-02  0.190073D-01 -0.529769D-01 -0.466542D-02
     17 -0.333108D-02 -0.765861D-02  0.370424D-01 -0.314366D-02 -0.542901D-01
     18  0.554899D-02  0.138341D-01 -0.165415D-01 -0.336517D-01 -0.281203D-01
     19  0.863039D-02 -0.166357D-01 -0.353015D-02 -0.118549D+00  0.112553D+00
     20  0.966931D-02 -0.351046D-01 -0.266221D-02  0.994547D-01 -0.197864D+00
     21 -0.835677D-02  0.195947D-01  0.560516D-02  0.461250D-01 -0.697206D-01
     22 -0.698219D-02 -0.248201D-02 -0.685766D-03 -0.517186D-02 -0.209575D-01
     23 -0.169709D-02  0.624525D-03  0.296571D-03  0.222632D-03 -0.103913D-02
     24 -0.251613D-02 -0.564898D-03  0.158484D-02 -0.329785D-02 -0.389980D-02
     25 -0.846023D-03  0.285278D-03 -0.183475D-03 -0.111672D-02  0.190534D-02
     26 -0.755031D-03  0.296679D-03 -0.207999D-02 -0.779390D-03 -0.449551D-02
     27  0.113230D-02 -0.216813D-02  0.123126D-02  0.363130D-02 -0.158378D-02
     28  0.967197D-04  0.198673D-03 -0.279672D-03  0.217024D-02 -0.838399D-03
     29 -0.109465D-02  0.137242D-02 -0.140212D-02 -0.243595D-02  0.336613D-02
     30  0.853794D-03 -0.358730D-03  0.980413D-03 -0.204066D-02  0.901745D-02
                6             7             8             9            10
      6  0.542828D+00
      7 -0.246739D-01  0.576999D+00
      8  0.260121D-02 -0.244805D-02  0.471195D+00
      9 -0.911241D-01  0.147634D+00 -0.321852D+00  0.517199D+00
     10 -0.266848D-01 -0.228468D+00  0.109671D+00 -0.168667D+00  0.674825D+00
     11 -0.354112D-03  0.104083D+00 -0.199394D+00  0.183414D+00  0.266686D-01
     12  0.121395D-02 -0.163662D+00  0.186475D+00 -0.289799D+00  0.161547D+00
     13 -0.396746D-02  0.238613D-02 -0.293254D-02  0.119774D-02 -0.480274D-03
     14 -0.108600D-01  0.283277D-03  0.186164D-02 -0.130034D-02 -0.165936D-03
     15  0.332417D-02  0.100671D-02 -0.658592D-03 -0.290887D-04  0.127447D-04
     16 -0.356220D-01 -0.807653D-02 -0.253992D-02 -0.354023D-01 -0.391652D-02
     17 -0.313328D-01  0.273006D-02  0.223653D-02 -0.210625D-02 -0.992524D-03
     18 -0.272907D+00 -0.380989D-02 -0.121527D-02 -0.653812D-02 -0.496057D-03
     19  0.458041D-01 -0.204698D-01  0.255302D-01  0.614374D-02 -0.226132D-02
     20 -0.611186D-01  0.131318D-02  0.621310D-02  0.158488D-02 -0.109878D-02
     21 -0.748354D-01 -0.690140D-02  0.736250D-02  0.350232D-02 -0.631398D-03
     22  0.172630D-01 -0.111515D+00 -0.894291D-01  0.643558D-01  0.106716D-01
     23  0.321591D-02 -0.864995D-01 -0.180515D+00  0.110363D+00 -0.935222D-02
     24  0.390006D-02  0.622282D-01  0.110435D+00 -0.127938D+00  0.105984D-01
     25  0.733201D-03  0.131813D-01  0.112996D-01 -0.907926D-02 -0.108854D+00
     26 -0.361738D-02 -0.738754D-02 -0.784080D-02  0.117193D-01 -0.868963D-01
     27 -0.405304D-02  0.954268D-02  0.168888D-01 -0.808844D-02  0.645056D-01
     28 -0.326499D-02 -0.128090D-01 -0.478444D-02 -0.315234D-03 -0.321482D+00
     29  0.889880D-02  0.186340D-01  0.603971D-02  0.340474D-02 -0.574489D-01
     30  0.396887D-02 -0.241322D-01 -0.379362D-02 -0.121461D-02 -0.391661D-01
               11            12            13            14            15
     11  0.431477D+00
     12 -0.320727D+00  0.483818D+00
     13  0.736375D-03 -0.213777D-03  0.133559D+00
     14 -0.316710D-04 -0.186524D-03 -0.185027D+00  0.380304D+00
     15 -0.981654D-03  0.929779D-03 -0.897974D-01  0.111975D+00  0.699006D-01
     16 -0.189897D-02  0.117344D-02 -0.114696D-03  0.101022D-02 -0.121026D-02
     17  0.494029D-03 -0.246903D-03 -0.230461D-03  0.211380D-02  0.114750D-02
     18 -0.158934D-02  0.122260D-02  0.620889D-03 -0.175306D-03  0.614365D-03
     19 -0.225571D-02  0.109971D-02 -0.179233D-03 -0.354962D-02  0.113112D-02
     20  0.798698D-03 -0.785183D-03 -0.244326D-02 -0.356406D-02  0.304984D-02
     21 -0.368582D-03 -0.275037D-04  0.420559D-03  0.464930D-02 -0.837146D-03
     22  0.135765D-01 -0.120827D-01 -0.964952D-04  0.643546D-03  0.152083D-04
     23 -0.733228D-02  0.106835D-01  0.423143D-03  0.521803D-03  0.196409D-03
     24  0.178224D-01 -0.837247D-02 -0.166793D-04  0.289474D-03 -0.254961D-03
     25 -0.903178D-01  0.670674D-01 -0.368458D-03 -0.605483D-03 -0.761546D-03
     26 -0.179751D+00  0.118671D+00 -0.410628D-03  0.395402D-03 -0.617446D-04
     27  0.119219D+00 -0.136755D+00 -0.156290D-02 -0.508992D-03 -0.974206D-03
     28 -0.541396D-01 -0.427891D-01  0.110824D-03  0.225003D-03  0.215388D-03
     29 -0.550116D-01  0.249978D-02  0.679353D-03  0.918932D-04  0.525836D-03
     30  0.302806D-02 -0.502953D-01  0.175000D-03 -0.187891D-03 -0.256888D-03
               16            17            18            19            20
     16  0.597489D-01
     17  0.866244D-02  0.586355D-01
     18  0.341476D-01  0.209145D-01  0.304736D+00
     19  0.368469D-02 -0.331116D-02 -0.153604D-02  0.128971D+00
     20  0.287772D-02 -0.192038D-02 -0.359633D-02 -0.110923D+00  0.232034D+00
     21  0.167323D-01 -0.252720D-01 -0.110502D-01 -0.476909D-01  0.638541D-01
     22  0.812454D-03  0.479113D-04 -0.120195D-02  0.216293D-03  0.119664D-02
     23  0.121702D-04  0.142010D-03 -0.186989D-03 -0.110829D-02 -0.200845D-03
     24  0.108682D-02 -0.130603D-03  0.457682D-03 -0.800848D-04  0.203380D-03
     25  0.412948D-03 -0.410242D-03  0.644179D-03 -0.321524D-03 -0.244304D-03
     26 -0.674293D-03  0.396334D-04 -0.299378D-03  0.115200D-02 -0.912082D-04
     27 -0.843311D-03 -0.475347D-04 -0.994200D-04  0.899722D-03 -0.151005D-03
     28 -0.108249D-02 -0.212887D-04 -0.266050D-03  0.278616D-03  0.197917D-03
     29  0.221454D-02  0.207619D-03  0.434310D-03 -0.145192D-02 -0.300774D-03
     30  0.930351D-03  0.316835D-04  0.105320D-03 -0.224127D-02 -0.378815D-03
               21            22            23            24            25
     21  0.778539D-01
     22  0.310010D-03  0.112294D+00
     23 -0.129426D-03  0.961188D-01  0.186090D+00
     24  0.126765D-03 -0.653107D-01 -0.126803D+00  0.130048D+00
     25 -0.412955D-04 -0.876116D-03  0.154935D-03 -0.393924D-02  0.106565D+00
     26  0.499995D-03 -0.815282D-04  0.489140D-02  0.711134D-02  0.960574D-01
     27  0.342107D-03 -0.436039D-02  0.673215D-02  0.359981D-02 -0.698238D-01
     28  0.338082D-04  0.646834D-03  0.172541D-02  0.124729D-02 -0.777653D-02
     29 -0.469884D-03  0.136681D-02 -0.318215D-02 -0.446378D-02 -0.181247D-01
     30 -0.680032D-03  0.169750D-02 -0.436803D-02 -0.315177D-02  0.153838D-01
               26            27            28            29            30
     26  0.187421D+00
     27 -0.134469D+00  0.140007D+00
     28 -0.224659D-03 -0.312123D-02  0.339847D+00
     29 -0.865742D-03 -0.391163D-02  0.576614D-01  0.482825D-01
     30  0.252595D-02  0.478948D-02  0.485398D-01 -0.551606D-02  0.457546D-01
 FrcOut:
 IF    =   560 IFX   =   590 IFXYZ =   620
 IFFX  =   650 IFFFX =  1115 IFLen =    30
 IFFLen=   465 IFFFLn=     0 IEDerv=  1115
 LEDerv=  1493 IFroze=  2612 ICStrt= 26265
 DipoleDeriv   =-5.92341633D-01-2.55691675D-01-5.21017119D-02
                -3.26974560D-01-6.29552926D-01 1.70160498D-01
                -1.26067988D-02 1.57089417D-01-4.72080682D-01
                 3.80261680D-01 1.68507708D-01-7.80513174D-02
                 2.53136435D-01 5.75559419D-01-6.57255423D-02
                -8.52070204D-02-8.89850155D-02 4.63764735D-01
                 1.26002824D-01-2.44685010D-02 1.09077665D-01
                 4.75126542D-02-5.48521598D-02-1.84860895D-01
                 2.16218300D-02-1.70972371D-01-7.07944666D-02
                -5.54119614D-02 1.12227699D-01-4.01446418D-02
                 1.36276959D-01-1.73608951D-01-1.10451843D-01
                -2.38998897D-02-1.24559636D-01-1.73887566D-01
                 2.58381262D-01 1.33759476D-01 8.74712147D-02
                 7.90505756D-02 2.22508214D-01 7.65262624D-04
                 9.25098948D-02-9.15338132D-03 2.43111108D-01
                -1.80994461D-02-2.44619114D-02-2.86525233D-02
                -4.98538344D-02 1.78028212D-02-1.28276496D-02
                -3.97158495D-02 4.39979030D-02-2.25959865D-01
                -5.70279563D-02 7.76662653D-02-1.09538455D-02
                 3.51967683D-02-7.91664704D-02-3.57691664D-02
                 5.76562078D-02-4.42445496D-02 5.43381177D-02
                -2.21891213D-03-7.88942009D-02 1.83929924D-02
                -7.42337003D-02-5.37362704D-03 1.08593821D-01
                 1.32788949D-02 1.15142934D-01 2.40037569D-02
                 5.12816572D-02-7.71884234D-02 4.63997797D-02
                -4.55263018D-02 3.20705134D-02 9.38108794D-02
                 9.09618043D-03 8.27891519D-02 6.32189647D-02
                -9.08275135D-02-3.14564373D-02-5.14376115D-02
                -5.45849959D-02 9.46131674D-02 3.63046350D-02
                -3.27334493D-02 3.88955483D-02 9.42858971D-02
 Full mass-weighted force constant matrix:
 Low frequencies ---   -0.0009   -0.0008    0.0003    9.1128   22.8148   27.8317
 Low frequencies ---  195.3536  281.9700  350.6499
 Dipole derivatives wrt mode   1: -3.79747D-01 -1.20091D+00 -4.17961D-01
 Vibrational polarizability contributions from mode   1       0.1017259       1.0173312       0.1232291
 Vibrational hyperpolarizability contributions from mode   1       0.0000000       0.0000000       0.0000000
 Dipole derivatives wrt mode   2:  4.34971D-01  1.06827D+00  3.35175D-01
 Vibrational polarizability contributions from mode   2       0.0640456       0.3863040       0.0380287
 Vibrational hyperpolarizability contributions from mode   2       0.0000000       0.0000000       0.0000000
 Dipole derivatives wrt mode   3:  8.10100D+00  3.16632D+00  7.36527D+00
 Vibrational polarizability contributions from mode   3      14.3636007       2.1942983      11.8730694
 Vibrational hyperpolarizability contributions from mode   3       0.0000000       0.0000000       0.0000000
 Dipole derivatives wrt mode   4: -9.53090D-01 -2.55498D+00 -4.22834D+00
 Vibrational polarizability contributions from mode   4       0.0726697       0.5222281       1.4302907
 Vibrational hyperpolarizability contributions from mode   4       0.0000000       0.0000000       0.0000000
 Dipole derivatives wrt mode   5: -2.19876D+00  4.74568D-01 -7.80656D-01
 Vibrational polarizability contributions from mode   5       0.3419031       0.0159274       0.0430990
 Vibrational hyperpolarizability contributions from mode   5       0.0000000       0.0000000       0.0000000
 Dipole derivatives wrt mode   6: -8.25772D-01 -1.73676D+00  9.78549D-01
 Vibrational polarizability contributions from mode   6       0.0233360       0.1032251       0.0327696
 Vibrational hyperpolarizability contributions from mode   6       0.0000000       0.0000000       0.0000000
 Dipole derivatives wrt mode   7:  1.61368D+00 -4.97060D+00 -3.84717D+00
 Vibrational polarizability contributions from mode   7       0.0776876       0.7371150       0.4415707
 Vibrational hyperpolarizability contributions from mode   7       0.0000000       0.0000000       0.0000000
 Dipole derivatives wrt mode   8:  1.36628D+00  1.27908D+00 -1.47894D+00
 Vibrational polarizability contributions from mode   8       0.0509064       0.0446156       0.0596478
 Vibrational hyperpolarizability contributions from mode   8       0.0000000       0.0000000       0.0000000
 Dipole derivatives wrt mode   9:  4.76891D+00  3.54075D+00 -2.19003D+00
 Vibrational polarizability contributions from mode   9       0.5946782       0.3278191       0.1254138
 Vibrational hyperpolarizability contributions from mode   9       0.0000000       0.0000000       0.0000000
 Dipole derivatives wrt mode  10: -5.13424D-01 -4.85822D+00 -1.66772D+00
 Vibrational polarizability contributions from mode  10       0.0065615       0.5874969       0.0692306
 Vibrational hyperpolarizability contributions from mode  10       0.0000000       0.0000000       0.0000000
 Dipole derivatives wrt mode  11: -2.56413D+00 -5.18648D+00  3.95429D+00
 Vibrational polarizability contributions from mode  11       0.1385744       0.5669528       0.3295635
 Vibrational hyperpolarizability contributions from mode  11       0.0000000       0.0000000       0.0000000
 Dipole derivatives wrt mode  12: -2.17730D+00 -2.38106D+00  2.39364D+00
 Vibrational polarizability contributions from mode  12       0.0868266       0.1038380       0.1049387
 Vibrational hyperpolarizability contributions from mode  12       0.0000000       0.0000000       0.0000000
 Dipole derivatives wrt mode  13:  3.56496D-01  3.49604D-01  1.59496D-01
 Vibrational polarizability contributions from mode  13       0.0019734       0.0018978       0.0003950
 Vibrational hyperpolarizability contributions from mode  13       0.0000000       0.0000000       0.0000000
 Dipole derivatives wrt mode  14:  5.04507D-01  1.20779D+00 -1.01127D+00
 Vibrational polarizability contributions from mode  14       0.0036023       0.0206455       0.0144735
 Vibrational hyperpolarizability contributions from mode  14       0.0000000       0.0000000       0.0000000
 Dipole derivatives wrt mode  15:  4.23309D+00  4.06086D+00 -1.49156D+00
 Vibrational polarizability contributions from mode  15       0.2416671       0.2224016       0.0300045
 Vibrational hyperpolarizability contributions from mode  15       0.0000000       0.0000000       0.0000000
 Dipole derivatives wrt mode  16:  1.37712D+00 -7.00464D-01  1.32712D+00
 Vibrational polarizability contributions from mode  16       0.0245379       0.0063484       0.0227884
 Vibrational hyperpolarizability contributions from mode  16       0.0000000       0.0000000       0.0000000
 Dipole derivatives wrt mode  17: -2.15501D+00 -1.01732D-01 -7.85212D-01
 Vibrational polarizability contributions from mode  17       0.0559647       0.0001247       0.0074300
 Vibrational hyperpolarizability contributions from mode  17       0.0000000       0.0000000       0.0000000
 Dipole derivatives wrt mode  18:  1.83986D+00 -1.12988D+00  1.63917D+00
 Vibrational polarizability contributions from mode  18       0.0311941       0.0117645       0.0247602
 Vibrational hyperpolarizability contributions from mode  18       0.0000000       0.0000000       0.0000000
 Dipole derivatives wrt mode  19: -1.83341D+00  1.76027D+00 -7.66264D+00
 Vibrational polarizability contributions from mode  19       0.0103261       0.0095187       0.1803744
 Vibrational hyperpolarizability contributions from mode  19       0.0000000       0.0000000       0.0000000
 Dipole derivatives wrt mode  20: -2.26338D+00  4.09084D+00  1.57944D+00
 Vibrational polarizability contributions from mode  20       0.0148879       0.0486345       0.0072498
 Vibrational hyperpolarizability contributions from mode  20       0.0000000       0.0000000       0.0000000
 Dipole derivatives wrt mode  21: -8.22093D-01 -3.33157D+00  2.90236D+00
 Vibrational polarizability contributions from mode  21       0.0018616       0.0305732       0.0232031
 Vibrational hyperpolarizability contributions from mode  21       0.0000000       0.0000000       0.0000000
 Dipole derivatives wrt mode  22:  1.93953D+00  4.12847D-01  3.53616D-01
 Vibrational polarizability contributions from mode  22       0.0102553       0.0004647       0.0003409
 Vibrational hyperpolarizability contributions from mode  22       0.0000000       0.0000000       0.0000000
 Dipole derivatives wrt mode  23:  2.80945D+00  1.74066D+00 -7.07846D-01
 Vibrational polarizability contributions from mode  23       0.0204516       0.0078508       0.0012983
 Vibrational hyperpolarizability contributions from mode  23       0.0000000       0.0000000       0.0000000
 Dipole derivatives wrt mode  24: -7.76149D-01  4.23568D+00  9.27890D-01
 Vibrational polarizability contributions from mode  24       0.0011133       0.0331578       0.0015912
 Vibrational hyperpolarizability contributions from mode  24       0.0000000       0.0000000       0.0000000
 Diagonal vibrational polarizability:
       16.3403510       7.0005335      14.9847610
 Harmonic frequencies (cm**-1), IR intensities (KM/Mole), Raman scattering
 activities (A**4/AMU), depolarization ratios for plane and unpolarized
 incident light, reduced masses (AMU), force constants (mDyne/A),
 and normal coordinates:
                           1         2         3         4         5
                           A         A         A         A         A
       Frequencies ---   195.3194  281.9567  350.6497  579.9945  616.8690
    Reduced masses ---     1.6650    3.2229    1.1387    1.2130    2.6182
   Force constants ---     0.0374    0.1510    0.0825    0.2404    0.5870
    IR Intensities ---     1.7611    1.4427  129.8989   25.3151    5.6692
 Coord Atom Element:
   1     1     8         -0.02563   0.25289  -0.04941   0.02871   0.14917
   2     1     8          0.05195   0.00937  -0.00120  -0.00619   0.09050
   3     1     8          0.05911   0.09022  -0.06145  -0.00532   0.00199
   1     2     6          0.03224  -0.01327  -0.01695  -0.02521  -0.10772
   2     2     6         -0.07549   0.06328   0.01756   0.02030   0.06745
   3     2     6         -0.09423  -0.04609   0.01401  -0.00215  -0.11052
   1     3     6         -0.03724  -0.02572  -0.01974  -0.04755  -0.16329
   2     3     6          0.10154   0.07110  -0.01121   0.05956  -0.20103
   3     3     6          0.10873  -0.06486   0.02607   0.09786   0.05767
   1     4     6          0.03146  -0.26732   0.03363   0.02165   0.04094
   2     4     6         -0.06973  -0.12206  -0.01332  -0.02120  -0.03015
   3     4     6         -0.07389  -0.02282  -0.01136  -0.00970   0.06027
   1     5     1         -0.05639   0.47879   0.66442  -0.08632   0.10400
   2     5     1         -0.01913   0.09941   0.12768   0.00479   0.14281
   3     5     1          0.20457   0.19766   0.69223  -0.21013  -0.19704
   1     6     1          0.24588  -0.08930   0.04528   0.25696  -0.15191
   2     6     1         -0.34427  -0.02001   0.04732  -0.17386   0.10200
   3     6     1         -0.10667  -0.02948  -0.00043  -0.02928  -0.11205
   1     7     1         -0.08516  -0.09358  -0.03154  -0.24520  -0.02097
   2     7     1         -0.03242   0.00428   0.00929  -0.02083   0.10989
   3     7     1         -0.41972  -0.03106   0.01033  -0.28618  -0.06001
   1     8     1         -0.13316   0.11723  -0.00456   0.08482  -0.09417
   2     8     1          0.36347   0.02501  -0.07041  -0.28974  -0.11145
   3     8     1          0.36621  -0.00039  -0.03661  -0.24549   0.22164
   1     9     1          0.13177  -0.52758   0.08870  -0.01499   0.54790
   2     9     1         -0.33451  -0.04213   0.03878   0.25493  -0.22086
   3     9     1         -0.32116  -0.12619   0.09735   0.29887   0.20290
   1    10     1         -0.01135  -0.25192   0.05842   0.15762  -0.01290
   2    10     1          0.06235  -0.36202  -0.05062  -0.37553   0.49080
   3    10     1          0.04583   0.15037  -0.12962  -0.46761  -0.17542
                           6         7         8         9        10
                           A         A         A         A         A
       Frequencies ---   886.7745  949.7473  993.3907 1014.4824 1039.7779
    Reduced masses ---     3.2548    1.3062    1.4489    1.7783    1.1641
   Force constants ---     1.5080    0.6942    0.8424    1.0783    0.7415
    IR Intensities ---     4.6558   42.1116    5.6900   40.0756   26.6472
 Coord Atom Element:
   1     1     8          0.04006  -0.00021   0.00069  -0.06774   0.01907
   2     1     8          0.08606   0.00183  -0.00404  -0.11198   0.03483
   3     1     8         -0.06548   0.00777  -0.02167   0.05768  -0.01525
   1     2     6          0.27779   0.00716  -0.03021   0.08867  -0.01737
   2     2     6         -0.11200  -0.02094   0.06546   0.12723  -0.04286
   3     2     6          0.16229  -0.04450   0.13592  -0.00670  -0.00551
   1     3     6         -0.18977   0.01117   0.00280   0.03925  -0.02783
   2     3     6         -0.05564  -0.00827  -0.08813   0.04439   0.06005
   3     3     6          0.01376  -0.01872  -0.06300  -0.02713   0.06867
   1     4     6         -0.15188  -0.04213   0.01132  -0.11410   0.02052
   2     4     6          0.03669   0.10218   0.05545  -0.02728  -0.00322
   3     4     6         -0.08075   0.10877   0.02912  -0.00984  -0.00721
   1     5     1         -0.14666  -0.05012   0.23167   0.05870  -0.05747
   2     5     1         -0.08019  -0.05571   0.21167  -0.00476  -0.04006
   3     5     1          0.09642   0.08466  -0.23778  -0.04731   0.07396
   1     6     1          0.39678  -0.12397   0.35104   0.14419  -0.04460
   2     6     1          0.08391   0.10592  -0.37079  -0.06145   0.08875
   3     6     1          0.12242  -0.03333   0.10634   0.01023  -0.01205
   1     7     1          0.39603   0.07284  -0.17898  -0.01176  -0.03232
   2     7     1         -0.01501  -0.04246   0.16791   0.09921  -0.09136
   3     7     1          0.13892   0.13125  -0.42129  -0.13608   0.11019
   1     8     1         -0.42070   0.04289  -0.18489   0.48091   0.12887
   2     8     1         -0.03139   0.02338  -0.01314  -0.21514  -0.53025
   3     8     1         -0.12265   0.04827  -0.11734  -0.00031  -0.56139
   1     9     1          0.04202   0.18217  -0.04656   0.40256   0.05359
   2     9     1          0.04115  -0.43693  -0.24955  -0.26262  -0.30083
   3     9     1          0.05588  -0.38197  -0.38086   0.06909  -0.34188
   1    10     1         -0.14300   0.16288   0.00847  -0.16411  -0.05689
   2    10     1          0.19478  -0.49201  -0.07223   0.50340   0.15461
   3    10     1         -0.38648  -0.51453   0.17996  -0.29115   0.30690
                          11        12        13        14        15
                           A         A         A         A         A
       Frequencies ---  1129.9672 1212.1543 1316.4872 1378.9425 1412.5878
    Reduced masses ---     2.3815    1.1244    1.2949    1.2693    1.2816
   Force constants ---     1.7916    0.9734    1.3222    1.4221    1.5067
    IR Intensities ---    49.1108   16.1396    0.2748    2.7360   36.6344
 Coord Atom Element:
   1     1     8          0.04871   0.02152  -0.00448  -0.02876  -0.04489
   2     1     8          0.12544  -0.00680  -0.00547   0.02204   0.02556
   3     1     8         -0.10308   0.00546   0.01094   0.05088   0.02437
   1     2     6         -0.10831   0.00379   0.00278  -0.06563   0.13569
   2     2     6         -0.14792   0.07137   0.01470  -0.10707   0.00163
   3     2     6          0.15254  -0.00272  -0.01888  -0.01899  -0.02542
   1     3     6          0.11660  -0.00561   0.06003   0.03903  -0.02324
   2     3     6          0.05494  -0.05728   0.06812   0.00623  -0.02331
   3     3     6         -0.07321  -0.03307  -0.05406  -0.00634   0.00846
   1     4     6         -0.07125   0.01138  -0.02244  -0.02203   0.01505
   2     4     6         -0.03749   0.01431  -0.08668   0.00767   0.00136
   3     4     6          0.02140  -0.00316   0.07822  -0.01382   0.00388
   1     5     1         -0.12360  -0.31074   0.00070   0.30806   0.26794
   2     5     1         -0.03512  -0.31453   0.00603   0.34930   0.31050
   3     5     1          0.08858   0.33168  -0.01343  -0.34037  -0.28735
   1     6     1         -0.13612   0.43390   0.02777   0.59485  -0.38566
   2     6     1         -0.31424   0.32742   0.10042   0.44881  -0.02469
   3     6     1          0.15526  -0.08810  -0.03753  -0.16137   0.04354
   1     7     1         -0.40759  -0.52411  -0.09114   0.06640  -0.55703
   2     7     1         -0.28424  -0.29188  -0.04210  -0.10693  -0.48954
   3     7     1          0.00338   0.04649  -0.01507   0.17466   0.08249
   1     8     1          0.40394  -0.00084  -0.68024   0.09337  -0.04471
   2     8     1          0.07870   0.02607   0.22849   0.01416  -0.01189
   3     8     1          0.19516   0.07738  -0.46214   0.04559   0.01695
   1     9     1          0.31444  -0.05147   0.34727  -0.00237  -0.09709
   2     9     1         -0.11200   0.00515  -0.15688   0.00343   0.02243
   3     9     1          0.21585  -0.06261   0.27758  -0.00557  -0.05810
   1    10     1         -0.07455  -0.00205  -0.01395  -0.02482   0.01095
   2    10     1          0.22957   0.01755  -0.00309   0.05088   0.02946
   3    10     1         -0.22157   0.07229   0.01400  -0.05429  -0.02853
                          16        17        18        19        20
                           A         A         A         A         A
       Frequencies ---  1442.1792 1494.3707 1708.8917 2959.7664 3043.0333
    Reduced masses ---     1.1964    1.0768    4.5974    1.0731    1.0877
   Force constants ---     1.4662    1.4168    7.9103    5.5388    5.9344
    IR Intensities ---     4.1484    5.2710    7.3486   65.1760   24.3525
 Coord Atom Element:
   1     1     8         -0.00750   0.00414   0.00809   0.00091   0.00129
   2     1     8         -0.00178  -0.00864  -0.00016   0.00185  -0.00030
   3     1     8          0.00635   0.00459  -0.00035  -0.00062  -0.00112
   1     2     6          0.03809   0.01716  -0.03670  -0.01763  -0.04050
   2     2     6         -0.01133  -0.05786   0.02141   0.00020   0.06585
   3     2     6          0.01521   0.04834  -0.03168  -0.07491   0.03576
   1     3     6         -0.09372   0.00917   0.27756  -0.00162  -0.00174
   2     3     6          0.02800   0.00317  -0.17804  -0.00294  -0.00137
   3     3     6         -0.06128   0.00037   0.27116   0.00111   0.00153
   1     4     6         -0.00338   0.00276  -0.20927   0.00002  -0.00018
   2     4     6          0.02847  -0.00344   0.18247  -0.00005   0.00025
   3     4     6         -0.03271   0.00547  -0.25359  -0.00015  -0.00029
   1     5     1          0.01859  -0.00702  -0.01025   0.00224  -0.01159
   2     5     1          0.03438  -0.02160  -0.01042   0.00363   0.00758
   3     5     1         -0.05521   0.02217   0.01520   0.00115   0.00918
   1     6     1          0.01385  -0.29967  -0.20600   0.13246  -0.03105
   2     6     1          0.07335   0.62545   0.00191   0.09248   0.00004
   3     6     1          0.00938   0.01156  -0.00510   0.97164  -0.12264
   1     7     1         -0.00798  -0.07800  -0.13148   0.06509   0.51547
   2     7     1         -0.01636   0.17792  -0.02917  -0.11708  -0.78663
   3     7     1         -0.04858  -0.68057  -0.06794  -0.06488  -0.30187
   1     8     1          0.23685   0.03272  -0.40436   0.01135   0.00747
   2     8     1         -0.03208  -0.00623  -0.07557   0.03003   0.01784
   3     8     1          0.12788   0.01210  -0.06156  -0.02368  -0.01583
   1     9     1          0.53625  -0.05992   0.48604  -0.00197  -0.00446
   2     9     1         -0.06703   0.00622   0.09571  -0.00658  -0.00708
   3     9     1          0.28059  -0.03323   0.08793   0.00557   0.00656
   1    10     1          0.02402  -0.00024  -0.23842   0.00534   0.00873
   2    10     1         -0.50146   0.04738  -0.28763   0.00137   0.00224
   3    10     1          0.52312  -0.04984   0.20515   0.00055   0.00171
                          21        22        23        24
                           A         A         A         A
       Frequencies ---  3125.6835 3141.8818 3222.7247 3815.8995
    Reduced masses ---     1.0782    1.0708    1.1159    1.0660
   Force constants ---     6.2063    6.2276    6.8282    9.1458
    IR Intensities ---    20.1989    4.0573   11.4239   19.4044
 Coord Atom Element:
   1     1     8          0.00003  -0.00019   0.00018   0.02852
   2     1     8          0.00032   0.00005  -0.00030  -0.05230
   3     1     8         -0.00023  -0.00021   0.00027  -0.01819
   1     2     6          0.00207  -0.00269  -0.00032   0.00183
   2     2     6         -0.00164   0.00114   0.00062  -0.00134
   3     2     6          0.00251  -0.00116  -0.00053  -0.00131
   1     3     6         -0.03331   0.01035   0.00386  -0.00018
   2     3     6         -0.05380   0.02821   0.00715   0.00037
   3     3     6          0.04209  -0.02447  -0.00587  -0.00026
   1     4     6          0.01767   0.02645   0.08354  -0.00001
   2     4     6         -0.00859  -0.03669   0.04806  -0.00016
   3     4     6          0.01500   0.04655  -0.02092   0.00007
   1     5     1          0.00156  -0.00067  -0.00206  -0.46699
   2     5     1          0.00005   0.00059  -0.00007   0.82899
   3     5     1          0.00011   0.00020  -0.00060   0.30100
   1     6     1         -0.00697   0.00641   0.00031   0.00115
   2     6     1         -0.00319   0.00166   0.00026   0.00359
   3     6     1         -0.02815   0.02084   0.00183  -0.00065
   1     7     1         -0.01313   0.01537   0.00112  -0.00732
   2     7     1          0.01553  -0.01929  -0.00195   0.00939
   3     7     1          0.00665  -0.00670  -0.00083   0.00672
   1     8     1          0.40215  -0.17723  -0.04344   0.00129
   2     8     1          0.63496  -0.28204  -0.07102   0.00073
   3     8     1         -0.49453   0.22052   0.05545   0.00000
   1     9     1          0.11275   0.31182  -0.27368  -0.00109
   2     9     1          0.17562   0.49440  -0.45904   0.00114
   3     9     1         -0.14264  -0.40196   0.37932   0.00009
   1    10     1         -0.33524  -0.55884  -0.72192   0.00088
   2    10     1         -0.06562  -0.10881  -0.12827  -0.00019
   3    10     1         -0.04731  -0.07861  -0.11417  -0.00053
 Harmonic frequencies (cm**-1), IR intensities (KM/Mole), Raman scattering
 activities (A**4/AMU), depolarization ratios for plane and unpolarized
 incident light, reduced masses (AMU), force constants (mDyne/A),
 and normal coordinates:
                     1                      2                      3
                     A                      A                      A
 Frequencies --   195.3194               281.9567               350.6497
 Red. masses --     1.6650                 3.2229                 1.1387
 Frc consts  --     0.0374                 0.1510                 0.0825
 IR Inten    --     1.7611                 1.4427               129.8989
 Atom AN      X      Y      Z        X      Y      Z        X      Y      Z
   1   8    -0.03   0.05   0.06     0.25   0.01   0.09    -0.05   0.00  -0.06
   2   6     0.03  -0.08  -0.09    -0.01   0.06  -0.05    -0.02   0.02   0.01
   3   6    -0.04   0.10   0.11    -0.03   0.07  -0.06    -0.02  -0.01   0.03
   4   6     0.03  -0.07  -0.07    -0.27  -0.12  -0.02     0.03  -0.01  -0.01
   5   1    -0.06  -0.02   0.20     0.48   0.10   0.20     0.66   0.13   0.69
   6   1     0.25  -0.34  -0.11    -0.09  -0.02  -0.03     0.05   0.05   0.00
   7   1    -0.09  -0.03  -0.42    -0.09   0.00  -0.03    -0.03   0.01   0.01
   8   1    -0.13   0.36   0.37     0.12   0.03   0.00     0.00  -0.07  -0.04
   9   1     0.13  -0.33  -0.32    -0.53  -0.04  -0.13     0.09   0.04   0.10
  10   1    -0.01   0.06   0.05    -0.25  -0.36   0.15     0.06  -0.05  -0.13
                     4                      5                      6
                     A                      A                      A
 Frequencies --   579.9945               616.8690               886.7745
 Red. masses --     1.2130                 2.6182                 3.2548
 Frc consts  --     0.2404                 0.5870                 1.5080
 IR Inten    --    25.3151                 5.6692                 4.6558
 Atom AN      X      Y      Z        X      Y      Z        X      Y      Z
   1   8     0.03  -0.01  -0.01     0.15   0.09   0.00     0.04   0.09  -0.07
   2   6    -0.03   0.02   0.00    -0.11   0.07  -0.11     0.28  -0.11   0.16
   3   6    -0.05   0.06   0.10    -0.16  -0.20   0.06    -0.19  -0.06   0.01
   4   6     0.02  -0.02  -0.01     0.04  -0.03   0.06    -0.15   0.04  -0.08
   5   1    -0.09   0.00  -0.21     0.10   0.14  -0.20    -0.15  -0.08   0.10
   6   1     0.26  -0.17  -0.03    -0.15   0.10  -0.11     0.40   0.08   0.12
   7   1    -0.25  -0.02  -0.29    -0.02   0.11  -0.06     0.40  -0.02   0.14
   8   1     0.08  -0.29  -0.25    -0.09  -0.11   0.22    -0.42  -0.03  -0.12
   9   1    -0.01   0.25   0.30     0.55  -0.22   0.20     0.04   0.04   0.06
  10   1     0.16  -0.38  -0.47    -0.01   0.49  -0.18    -0.14   0.19  -0.39
                     7                      8                      9
                     A                      A                      A
 Frequencies --   949.7473               993.3907              1014.4824
 Red. masses --     1.3062                 1.4489                 1.7783
 Frc consts  --     0.6942                 0.8424                 1.0783
 IR Inten    --    42.1116                 5.6900                40.0756
 Atom AN      X      Y      Z        X      Y      Z        X      Y      Z
   1   8     0.00   0.00   0.01     0.00   0.00  -0.02    -0.07  -0.11   0.06
   2   6     0.01  -0.02  -0.04    -0.03   0.07   0.14     0.09   0.13  -0.01
   3   6     0.01  -0.01  -0.02     0.00  -0.09  -0.06     0.04   0.04  -0.03
   4   6    -0.04   0.10   0.11     0.01   0.06   0.03    -0.11  -0.03  -0.01
   5   1    -0.05  -0.06   0.08     0.23   0.21  -0.24     0.06   0.00  -0.05
   6   1    -0.12   0.11  -0.03     0.35  -0.37   0.11     0.14  -0.06   0.01
   7   1     0.07  -0.04   0.13    -0.18   0.17  -0.42    -0.01   0.10  -0.14
   8   1     0.04   0.02   0.05    -0.18  -0.01  -0.12     0.48  -0.22   0.00
   9   1     0.18  -0.44  -0.38    -0.05  -0.25  -0.38     0.40  -0.26   0.07
  10   1     0.16  -0.49  -0.51     0.01  -0.07   0.18    -0.16   0.50  -0.29
                    10                     11                     12
                     A                      A                      A
 Frequencies --  1039.7779              1129.9672              1212.1543
 Red. masses --     1.1641                 2.3815                 1.1244
 Frc consts  --     0.7415                 1.7916                 0.9734
 IR Inten    --    26.6472                49.1108                16.1396
 Atom AN      X      Y      Z        X      Y      Z        X      Y      Z
   1   8     0.02   0.03  -0.02     0.05   0.13  -0.10     0.02  -0.01   0.01
   2   6    -0.02  -0.04  -0.01    -0.11  -0.15   0.15     0.00   0.07   0.00
   3   6    -0.03   0.06   0.07     0.12   0.05  -0.07    -0.01  -0.06  -0.03
   4   6     0.02   0.00  -0.01    -0.07  -0.04   0.02     0.01   0.01   0.00
   5   1    -0.06  -0.04   0.07    -0.12  -0.04   0.09    -0.31  -0.31   0.33
   6   1    -0.04   0.09  -0.01    -0.14  -0.31   0.16     0.43   0.33  -0.09
   7   1    -0.03  -0.09   0.11    -0.41  -0.28   0.00    -0.52  -0.29   0.05
   8   1     0.13  -0.53  -0.56     0.40   0.08   0.20     0.00   0.03   0.08
   9   1     0.05  -0.30  -0.34     0.31  -0.11   0.22    -0.05   0.01  -0.06
  10   1    -0.06   0.15   0.31    -0.07   0.23  -0.22     0.00   0.02   0.07
                    13                     14                     15
                     A                      A                      A
 Frequencies --  1316.4872              1378.9425              1412.5878
 Red. masses --     1.2949                 1.2693                 1.2816
 Frc consts  --     1.3222                 1.4221                 1.5067
 IR Inten    --     0.2748                 2.7360                36.6344
 Atom AN      X      Y      Z        X      Y      Z        X      Y      Z
   1   8     0.00  -0.01   0.01    -0.03   0.02   0.05    -0.04   0.03   0.02
   2   6     0.00   0.01  -0.02    -0.07  -0.11  -0.02     0.14   0.00  -0.03
   3   6     0.06   0.07  -0.05     0.04   0.01  -0.01    -0.02  -0.02   0.01
   4   6    -0.02  -0.09   0.08    -0.02   0.01  -0.01     0.02   0.00   0.00
   5   1     0.00   0.01  -0.01     0.31   0.35  -0.34     0.27   0.31  -0.29
   6   1     0.03   0.10  -0.04     0.59   0.45  -0.16    -0.39  -0.02   0.04
   7   1    -0.09  -0.04  -0.02     0.07  -0.11   0.17    -0.56  -0.49   0.08
   8   1    -0.68   0.23  -0.46     0.09   0.01   0.05    -0.04  -0.01   0.02
   9   1     0.35  -0.16   0.28     0.00   0.00  -0.01    -0.10   0.02  -0.06
  10   1    -0.01   0.00   0.01    -0.02   0.05  -0.05     0.01   0.03  -0.03
                    16                     17                     18
                     A                      A                      A
 Frequencies --  1442.1792              1494.3707              1708.8917
 Red. masses --     1.1964                 1.0768                 4.5974
 Frc consts  --     1.4662                 1.4168                 7.9103
 IR Inten    --     4.1484                 5.2710                 7.3486
 Atom AN      X      Y      Z        X      Y      Z        X      Y      Z
   1   8    -0.01   0.00   0.01     0.00  -0.01   0.00     0.01   0.00   0.00
   2   6     0.04  -0.01   0.02     0.02  -0.06   0.05    -0.04   0.02  -0.03
   3   6    -0.09   0.03  -0.06     0.01   0.00   0.00     0.28  -0.18   0.27
   4   6     0.00   0.03  -0.03     0.00   0.00   0.01    -0.21   0.18  -0.25
   5   1     0.02   0.03  -0.06    -0.01  -0.02   0.02    -0.01  -0.01   0.02
   6   1     0.01   0.07   0.01    -0.30   0.63   0.01    -0.21   0.00  -0.01
   7   1    -0.01  -0.02  -0.05    -0.08   0.18  -0.68    -0.13  -0.03  -0.07
   8   1     0.24  -0.03   0.13     0.03  -0.01   0.01    -0.40  -0.08  -0.06
   9   1     0.54  -0.07   0.28    -0.06   0.01  -0.03     0.49   0.10   0.09
  10   1     0.02  -0.50   0.52     0.00   0.05  -0.05    -0.24  -0.29   0.21
                    19                     20                     21
                     A                      A                      A
 Frequencies --  2959.7664              3043.0333              3125.6835
 Red. masses --     1.0731                 1.0877                 1.0782
 Frc consts  --     5.5388                 5.9344                 6.2063
 IR Inten    --    65.1760                24.3525                20.1989
 Atom AN      X      Y      Z        X      Y      Z        X      Y      Z
   1   8     0.00   0.00   0.00     0.00   0.00   0.00     0.00   0.00   0.00
   2   6    -0.02   0.00  -0.07    -0.04   0.07   0.04     0.00   0.00   0.00
   3   6     0.00   0.00   0.00     0.00   0.00   0.00    -0.03  -0.05   0.04
   4   6     0.00   0.00   0.00     0.00   0.00   0.00     0.02  -0.01   0.01
   5   1     0.00   0.00   0.00    -0.01   0.01   0.01     0.00   0.00   0.00
   6   1     0.13   0.09   0.97    -0.03   0.00  -0.12    -0.01   0.00  -0.03
   7   1     0.07  -0.12  -0.06     0.52  -0.79  -0.30    -0.01   0.02   0.01
   8   1     0.01   0.03  -0.02     0.01   0.02  -0.02     0.40   0.63  -0.49
   9   1     0.00  -0.01   0.01     0.00  -0.01   0.01     0.11   0.18  -0.14
  10   1     0.01   0.00   0.00     0.01   0.00   0.00    -0.34  -0.07  -0.05
                    22                     23                     24
                     A                      A                      A
 Frequencies --  3141.8818              3222.7247              3815.8995
 Red. masses --     1.0708                 1.1159                 1.0660
 Frc consts  --     6.2276                 6.8282                 9.1458
 IR Inten    --     4.0573                11.4239                19.4044
 Atom AN      X      Y      Z        X      Y      Z        X      Y      Z
   1   8     0.00   0.00   0.00     0.00   0.00   0.00     0.03  -0.05  -0.02
   2   6     0.00   0.00   0.00     0.00   0.00   0.00     0.00   0.00   0.00
   3   6     0.01   0.03  -0.02     0.00   0.01  -0.01     0.00   0.00   0.00
   4   6     0.03  -0.04   0.05     0.08   0.05  -0.02     0.00   0.00   0.00
   5   1     0.00   0.00   0.00     0.00   0.00   0.00    -0.47   0.83   0.30
   6   1     0.01   0.00   0.02     0.00   0.00   0.00     0.00   0.00   0.00
   7   1     0.02  -0.02  -0.01     0.00   0.00   0.00    -0.01   0.01   0.01
   8   1    -0.18  -0.28   0.22    -0.04  -0.07   0.06     0.00   0.00   0.00
   9   1     0.31   0.49  -0.40    -0.27  -0.46   0.38     0.00   0.00   0.00
  10   1    -0.56  -0.11  -0.08    -0.72  -0.13  -0.11     0.00   0.00   0.00

 -------------------
 - Thermochemistry -
 -------------------
 Temperature   298.150 Kelvin.  Pressure   1.00000 Atm.
 Atom  1 has atomic number  8 and mass  15.99491
 Atom  2 has atomic number  6 and mass  12.00000
 Atom  3 has atomic number  6 and mass  12.00000
 Atom  4 has atomic number  6 and mass  12.00000
 Atom  5 has atomic number  1 and mass   1.00783
 Atom  6 has atomic number  1 and mass   1.00783
 Atom  7 has atomic number  1 and mass   1.00783
 Atom  8 has atomic number  1 and mass   1.00783
 Atom  9 has atomic number  1 and mass   1.00783
 Atom 10 has atomic number  1 and mass   1.00783
 Molecular mass:    58.04186 amu.
 Principal axes and moments of inertia in atomic units:
                           1         2         3
     EIGENVALUES --   106.76683 305.44474 395.67999
           X            0.95773  -0.05372  -0.28260
           Y            0.22175   0.76362   0.60639
           Z            0.18322  -0.64343   0.74326
 This molecule is an asymmetric top.
 Rotational symmetry number  1.
 Rotational temperatures (Kelvin)      0.81124     0.28357     0.21890
 Rotational constants (GHZ):          16.90358     5.90857     4.56111
 Zero-point vibrational energy     223184.5 (Joules/Mol)
                                   53.34237 (Kcal/Mol)
 Warning -- explicit consideration of   5 degrees of freedom as
           vibrations may cause significant error
 Vibrational temperatures:    281.02   405.67   504.51   834.48   887.54
          (Kelvin)           1275.87  1366.47  1429.27  1459.61  1496.01
                             1625.77  1744.02  1894.13  1983.99  2032.40
                             2074.97  2150.06  2458.71  4258.44  4378.24
                             4497.16  4520.46  4636.78  5490.22
 
 Zero-point correction=                           0.085006 (Hartree/Particle)
 Thermal correction to Energy=                    0.089816
 Thermal correction to Enthalpy=                  0.090760
 Thermal correction to Gibbs Free Energy=         0.058142
 Sum of electronic and zero-point Energies=           -193.090771
 Sum of electronic and thermal Energies=              -193.085962
 Sum of electronic and thermal Enthalpies=            -193.085017
 Sum of electronic and thermal Free Energies=         -193.117636
 
                     E (Thermal)             CV                S
                      KCal/Mol        Cal/Mol-Kelvin    Cal/Mol-Kelvin
 Total                   56.360             16.207             68.651
 Electronic               0.000              0.000              0.000
 Translational            0.889              2.981             38.096
 Rotational               0.889              2.981             24.071
 Vibrational             54.583             10.246              6.483
 Vibration  1             0.636              1.846              2.177
 Vibration  2             0.681              1.707              1.522
 Vibration  3             0.728              1.574              1.163
 Vibration  4             0.937              1.075              0.485
 Vibration  5             0.977              0.996              0.422
                       Q            Log10(Q)             Ln(Q)
 Total Bot       0.180559D-26        -26.743381        -61.578911
 Total V=0       0.227407D+13         12.356804         28.452592
 Vib (Bot)       0.255475D-38        -38.592651        -88.862864
 Vib (Bot)  1    0.102268D+01          0.009738          0.022422
 Vib (Bot)  2    0.681178D+00         -0.166739         -0.383931
 Vib (Bot)  3    0.525943D+00         -0.279061         -0.642562
 Vib (Bot)  4    0.262732D+00         -0.580487         -1.336622
 Vib (Bot)  5    0.237852D+00         -0.623693         -1.436106
 Vib (V=0)       0.321761D+01          0.507533          1.168639
 Vib (V=0)  1    0.163836D+01          0.214409          0.493696
 Vib (V=0)  2    0.134499D+01          0.128718          0.296385
 Vib (V=0)  3    0.122568D+01          0.088378          0.203498
 Vib (V=0)  4    0.106483D+01          0.027278          0.062811
 Vib (V=0)  5    0.105369D+01          0.022713          0.052299
 Electronic      0.100000D+01          0.000000          0.000000
 Translational   0.173807D+08          7.240067         16.670871
 Rotational      0.406633D+05          4.609203         10.613082
 -------------------------------------------------------------------
 Center     Atomic                   Forces (Hartrees/Bohr)
 Number     Number              X              Y              Z
 -------------------------------------------------------------------
    1          8           0.000002871    0.000010654   -0.000005400
    2          6           0.000001990   -0.000026582    0.000006501
    3          6           0.000000601    0.000005381   -0.000001125
    4          6          -0.000010090   -0.000004783    0.000007519
    5          1           0.000002672   -0.000002527   -0.000002521
    6          1          -0.000001419    0.000001385   -0.000000173
    7          1           0.000000174    0.000002115   -0.000000279
    8          1          -0.000001385    0.000001417    0.000000360
    9          1           0.000007954    0.000006506   -0.000005832
   10          1          -0.000003369    0.000006433    0.000000951
 -------------------------------------------------------------------
 Cartesian Forces:  Max     0.000026582 RMS     0.000006686
 ------------------------------------------------------------------------
           Internal Coordinate Forces (Hartree/Bohr or radian)
 Cent Atom N1     Length/X     N2     Alpha/Y      N3      Beta/Z       J
 ------------------------------------------------------------------------
   1  O         0.000003(   1)      0.000011(  11)     -0.000005(  21)
   2  C         0.000002(   2)     -0.000027(  12)      0.000007(  22)
   3  C         0.000001(   3)      0.000005(  13)     -0.000001(  23)
   4  C        -0.000010(   4)     -0.000005(  14)      0.000008(  24)
   5  H         0.000003(   5)     -0.000003(  15)     -0.000003(  25)
   6  H        -0.000001(   6)      0.000001(  16)      0.000000(  26)
   7  H         0.000000(   7)      0.000002(  17)      0.000000(  27)
   8  H        -0.000001(   8)      0.000001(  18)      0.000000(  28)
   9  H         0.000008(   9)      0.000007(  19)     -0.000006(  29)
  10  H        -0.000003(  10)      0.000006(  20)      0.000001(  30)
 ------------------------------------------------------------------------
 Internal  Forces:  Max     0.000026582 RMS     0.000006686
 Force constants in Cartesian coordinates: 
                1             2             3             4             5
      1  0.254485D+00
      2 -0.118548D+00  0.573923D+00
      3 -0.154510D+00  0.297965D-01  0.189780D+00
      4 -0.977274D-01 -0.563673D-01  0.452873D-01  0.480287D+00
      5 -0.168467D-01 -0.172005D+00  0.384106D-01 -0.507149D-01  0.537617D+00
      6  0.368838D-01  0.670163D-01 -0.112316D+00 -0.647102D-02  0.255507D-01
      7 -0.199361D-01 -0.114834D-01  0.276812D-02 -0.191293D+00 -0.192247D-01
      8 -0.372392D-01 -0.149616D-01  0.375667D-02 -0.712793D-02 -0.848341D-01
      9  0.227746D-01  0.108584D-01  0.402873D-02 -0.286414D-01  0.391483D-02
[...]
     26  0.304736D+00
     27 -0.110502D-01  0.778539D-01
     28  0.457682D-03  0.126765D-03  0.130048D+00
     29 -0.994200D-04  0.342107D-03  0.359981D-02  0.140007D+00
     30  0.105320D-03 -0.680032D-03 -0.315177D-02  0.478948D-02  0.457546D-01
 Force constants in internal coordinates: 
                1             2             3             4             5
      1  0.254485D+00
      2 -0.977274D-01  0.480287D+00
      3 -0.199361D-01 -0.191293D+00  0.576999D+00
      4  0.103147D-02 -0.210660D-01 -0.228468D+00  0.674825D+00
      5 -0.140260D+00  0.544356D-02  0.238613D-02 -0.480274D-03  0.133559D+00
      6  0.150820D-02 -0.529769D-01 -0.807653D-02 -0.391652D-02 -0.114696D-03
      7  0.863039D-02 -0.118549D+00 -0.204698D-01 -0.226132D-02 -0.179233D-03
      8 -0.698219D-02 -0.517186D-02 -0.111515D+00  0.106716D-01 -0.964952D-04
      9 -0.846023D-03 -0.111672D-02  0.131813D-01 -0.108854D+00 -0.368458D-03
     10  0.967197D-04  0.217024D-02 -0.128090D-01 -0.321482D+00  0.110824D-03
     11 -0.118548D+00 -0.563673D-01 -0.114834D-01  0.193564D-02  0.208095D+00
     12 -0.168467D-01 -0.507149D-01 -0.192247D-01  0.176790D-01 -0.188902D-01
     13 -0.372392D-01 -0.712793D-02 -0.244805D-02  0.109671D+00 -0.293254D-02
     14  0.454664D-03  0.309336D-02  0.104083D+00  0.266686D-01  0.736375D-03
     15  0.169387D+00  0.177983D-01  0.283277D-03 -0.165936D-03 -0.185027D+00
     16 -0.333108D-02 -0.314366D-02  0.273006D-02 -0.992524D-03 -0.230461D-03
     17  0.966931D-02  0.994547D-01  0.131318D-02 -0.109878D-02 -0.244326D-02
     18 -0.169709D-02  0.222632D-03 -0.864995D-01 -0.935222D-02  0.423143D-03
     19 -0.755031D-03 -0.779390D-03 -0.738754D-02 -0.868963D-01 -0.410628D-03
     20 -0.109465D-02 -0.243595D-02  0.186340D-01 -0.574489D-01  0.679353D-03
     21 -0.154510D+00  0.452873D-01  0.276812D-02 -0.101743D-02  0.931440D-01
     22  0.368838D-01 -0.647102D-02 -0.246739D-01 -0.266848D-01 -0.396746D-02
     23  0.227746D-01 -0.286414D-01  0.147634D+00 -0.168667D+00  0.119774D-02
     24  0.423220D-03 -0.125626D-01 -0.163662D+00  0.161547D+00 -0.213777D-03
     25  0.977664D-01 -0.837836D-02  0.100671D-02  0.127447D-04 -0.897974D-01
     26  0.554899D-02 -0.336517D-01 -0.380989D-02 -0.496057D-03  0.620889D-03
     27 -0.835677D-02  0.461250D-01 -0.690140D-02 -0.631398D-03  0.420559D-03
     28 -0.251613D-02 -0.329785D-02  0.622282D-01  0.105984D-01 -0.166793D-04
     29  0.113230D-02  0.363130D-02  0.954268D-02  0.645056D-01 -0.156290D-02
     30  0.853794D-03 -0.204066D-02 -0.241322D-01 -0.391661D-01  0.175000D-03
                6             7             8             9            10
      6  0.597489D-01
      7  0.368469D-02  0.128971D+00
      8  0.812454D-03  0.216293D-03  0.112294D+00
      9  0.412948D-03 -0.321524D-03 -0.876116D-03  0.106565D+00
     10 -0.108249D-02  0.278616D-03  0.646834D-03 -0.777653D-02  0.339847D+00
     11 -0.499848D-02 -0.166357D-01 -0.248201D-02  0.285278D-03  0.198673D-03
     12 -0.466542D-02  0.112553D+00 -0.209575D-01  0.190534D-02 -0.838399D-03
     13 -0.253992D-02  0.255302D-01 -0.894291D-01  0.112996D-01 -0.478444D-02
     14 -0.189897D-02 -0.225571D-02  0.135765D-01 -0.903178D-01 -0.541396D-01
     15  0.101022D-02 -0.354962D-02  0.643546D-03 -0.605483D-03  0.225003D-03
     16  0.866244D-02 -0.331116D-02  0.479113D-04 -0.410242D-03 -0.212887D-04
     17  0.287772D-02 -0.110923D+00  0.119664D-02 -0.244304D-03  0.197917D-03
     18  0.121702D-04 -0.110829D-02  0.961188D-01  0.154935D-03  0.172541D-02
     19 -0.674293D-03  0.115200D-02 -0.815282D-04  0.960574D-01 -0.224659D-03
     20  0.221454D-02 -0.145192D-02  0.136681D-02 -0.181247D-01  0.576614D-01
     21  0.190073D-01 -0.353015D-02 -0.685766D-03 -0.183475D-03 -0.279672D-03
     22 -0.356220D-01  0.458041D-01  0.172630D-01  0.733201D-03 -0.326499D-02
     23 -0.354023D-01  0.614374D-02  0.643558D-01 -0.907926D-02 -0.315234D-03
     24  0.117344D-02  0.109971D-02 -0.120827D-01  0.670674D-01 -0.427891D-01
     25 -0.121026D-02  0.113112D-02  0.152083D-04 -0.761546D-03  0.215388D-03
     26  0.341476D-01 -0.153604D-02 -0.120195D-02  0.644179D-03 -0.266050D-03
     27  0.167323D-01 -0.476909D-01  0.310010D-03 -0.412955D-04  0.338082D-04
     28  0.108682D-02 -0.800848D-04 -0.653107D-01 -0.393924D-02  0.124729D-02
     29 -0.843311D-03  0.899722D-03 -0.436039D-02 -0.698238D-01 -0.312123D-02
     30  0.930351D-03 -0.224127D-02  0.169750D-02  0.153838D-01  0.485398D-01
               11            12            13            14            15
     11  0.573923D+00
     12 -0.172005D+00  0.537617D+00
     13 -0.149616D-01 -0.848341D-01  0.471195D+00
     14  0.685193D-03  0.806481D-02 -0.199394D+00  0.431477D+00
     15 -0.347173D+00 -0.345201D-01  0.186164D-02 -0.316710D-04  0.380304D+00
     16 -0.765861D-02 -0.542901D-01  0.223653D-02  0.494029D-03  0.211380D-02
     17 -0.351046D-01 -0.197864D+00  0.621310D-02  0.798698D-03 -0.356406D-02
     18  0.624525D-03 -0.103913D-02 -0.180515D+00 -0.733228D-02  0.521803D-03
     19  0.296679D-03 -0.449551D-02 -0.784080D-02 -0.179751D+00  0.395402D-03
     20  0.137242D-02  0.336613D-02  0.603971D-02 -0.550116D-01  0.918932D-04
     21  0.297965D-01  0.384106D-01  0.375667D-02  0.536426D-03 -0.103695D+00
     22  0.670163D-01  0.255507D-01  0.260121D-02 -0.354112D-03 -0.108600D-01
     23  0.108584D-01  0.391483D-02 -0.321852D+00  0.183414D+00 -0.130034D-02
     24  0.148207D-02  0.213341D-02  0.186475D+00 -0.320727D+00 -0.186524D-03
     25 -0.139490D+00  0.242976D-01 -0.658592D-03 -0.981654D-03  0.111975D+00
     26  0.138341D-01 -0.281203D-01 -0.121527D-02 -0.158934D-02 -0.175306D-03
     27  0.195947D-01 -0.697206D-01  0.736250D-02 -0.368582D-03  0.464930D-02
     28 -0.564898D-03 -0.389980D-02  0.110435D+00  0.178224D-01  0.289474D-03
     29 -0.216813D-02 -0.158378D-02  0.168888D-01  0.119219D+00 -0.508992D-03
     30 -0.358730D-03  0.901745D-02 -0.379362D-02  0.302806D-02 -0.187891D-03
               16            17            18            19            20
     16  0.586355D-01
     17 -0.192038D-02  0.232034D+00
     18  0.142010D-03 -0.200845D-03  0.186090D+00
     19  0.396334D-04 -0.912082D-04  0.489140D-02  0.187421D+00
     20  0.207619D-03 -0.300774D-03 -0.318215D-02 -0.865742D-03  0.482825D-01
     21  0.370424D-01 -0.266221D-02  0.296571D-03 -0.207999D-02 -0.140212D-02
     22 -0.313328D-01 -0.611186D-01  0.321591D-02 -0.361738D-02  0.889880D-02
     23 -0.210625D-02  0.158488D-02  0.110363D+00  0.117193D-01  0.340474D-02
     24 -0.246903D-03 -0.785183D-03  0.106835D-01  0.118671D+00  0.249978D-02
     25  0.114750D-02  0.304984D-02  0.196409D-03 -0.617446D-04  0.525836D-03
     26  0.209145D-01 -0.359633D-02 -0.186989D-03 -0.299378D-03  0.434310D-03
     27 -0.252720D-01  0.638541D-01 -0.129426D-03  0.499995D-03 -0.469884D-03
     28 -0.130603D-03  0.203380D-03 -0.126803D+00  0.711134D-02 -0.446378D-02
     29 -0.475347D-04 -0.151005D-03  0.673215D-02 -0.134469D+00 -0.391163D-02
     30  0.316835D-04 -0.378815D-03 -0.436803D-02  0.252595D-02 -0.551606D-02
               21            22            23            24            25
     21  0.189780D+00
     22 -0.112316D+00  0.542828D+00
     23  0.402873D-02 -0.911241D-01  0.517199D+00
     24 -0.193608D-02  0.121395D-02 -0.289799D+00  0.483818D+00
     25 -0.724166D-01  0.332417D-02 -0.290887D-04  0.929779D-03  0.699006D-01
     26 -0.165415D-01 -0.272907D+00 -0.653812D-02  0.122260D-02  0.614365D-03
     27  0.560516D-02 -0.748354D-01  0.350232D-02 -0.275037D-04 -0.837146D-03
     28  0.158484D-02  0.390006D-02 -0.127938D+00 -0.837247D-02 -0.254961D-03
     29  0.123126D-02 -0.405304D-02 -0.808844D-02 -0.136755D+00 -0.974206D-03
     30  0.980413D-03  0.396887D-02 -0.121461D-02 -0.502953D-01 -0.256888D-03
               26            27            28            29            30
     26  0.304736D+00
     27 -0.110502D-01  0.778539D-01
     28  0.457682D-03  0.126765D-03  0.130048D+00
     29 -0.994200D-04  0.342107D-03  0.359981D-02  0.140007D+00
     30  0.105320D-03 -0.680032D-03 -0.315177D-02  0.478948D-02  0.457546D-01
 Final forces over variables, Energy=-1.93175778D+02:
  2.87079576D-06 1.99021410D-06 6.00594070D-07-1.00895713D-05
  2.67235154D-06-1.41866953D-06 1.74456043D-07-1.38519985D-06
  7.95383997D-06-3.36881091D-06 1.06543982D-05-2.65815066D-05
  5.38076176D-06-4.78284065D-06-2.52683258D-06 1.38477808D-06
  2.11529053D-06 1.41746335D-06 6.50597801D-06 6.43250986D-06
 -5.40039466D-06 6.50054060D-06-1.12455814D-06 7.51875209D-06
 -2.52082213D-06-1.73130017D-07-2.79493738D-07 3.60094767D-07
 -5.83188390D-06 9.50895140D-07

 GradGradGradGradGradGradGradGradGradGradGradGradGradGradGradGradGradGrad
 Berny optimization.
 Search for a local minimum.
 Step number   1 out of a maximum of   2
 All quantities printed in internal units (Hartrees-Bohrs-Radians)
 Second derivative matrix not updated -- analytic derivatives used.
     Eigenvalues ---    0.00252   0.00514   0.01431   0.01864   0.03858
     Eigenvalues ---    0.04782   0.05243   0.06702   0.08572   0.09086
     Eigenvalues ---    0.10505   0.13094   0.15882   0.18483   0.21173
     Eigenvalues ---    0.25489   0.42089   0.59044   0.69251   0.75093
     Eigenvalues ---    0.76446   0.92947   0.98198   1.45291
 Angle between quadratic step and forces=  78.00 degrees.
 Linear search not attempted -- first point.
 TrRot= -0.000014 -0.000034 -0.000014 -0.000003  0.000004 -0.000003
 Variable       Old X    -DE/DX   Delta X   Delta X   Delta X     New X
                                 (Linear)    (Quad)   (Total)
    X1       -8.48139   0.00000   0.00000  -0.00006  -0.00006  -8.48146
    Y1        0.96070   0.00001   0.00000   0.00008   0.00009   0.96079
    Z1        1.49451  -0.00001   0.00000   0.00006   0.00008   1.49459
    X2       -7.38724   0.00000   0.00000   0.00004   0.00005  -7.38720
    Y2        3.04928  -0.00003   0.00000  -0.00010  -0.00009   3.04919
    Z2        0.22114   0.00001   0.00000  -0.00002  -0.00001   0.22113
    X3       -4.62374   0.00000   0.00000   0.00001   0.00002  -4.62372
    Y3        3.44966   0.00001   0.00000  -0.00002  -0.00003   3.44963
    Z3        0.76672   0.00000   0.00000   0.00001   0.00002   0.76674
    X4       -3.30266  -0.00001   0.00000   0.00005   0.00006  -3.30260
    Y4        2.17570   0.00000   0.00000  -0.00001  -0.00002   2.17568
    Z4        2.48025   0.00001   0.00000  -0.00001  -0.00001   2.48024
    X5       -7.61146   0.00000   0.00000  -0.00037  -0.00038  -7.61184
    Y5       -0.53630   0.00000   0.00000  -0.00005  -0.00004  -0.53635
    Z5        0.93371   0.00000   0.00000  -0.00009  -0.00007   0.93364
    X6       -7.66069   0.00000   0.00000   0.00002   0.00001  -7.66067
    Y6        2.90734   0.00000   0.00000  -0.00012  -0.00011   2.90723
    Z6       -1.83761   0.00000   0.00000  -0.00002   0.00000  -1.83761
    X7       -8.46106   0.00000   0.00000   0.00015   0.00016  -8.46090
    Y7        4.70927   0.00000   0.00000   0.00003   0.00004   4.70931
    Z7        0.83481   0.00000   0.00000  -0.00012  -0.00010   0.83471
    X8       -3.71123   0.00000   0.00000  -0.00008  -0.00007  -3.71130
    Y8        4.90357   0.00000   0.00000   0.00014   0.00013   4.90370
    Z8       -0.36723   0.00000   0.00000   0.00016   0.00016  -0.36707
    X9       -4.18841   0.00001   0.00000   0.00023   0.00024  -4.18817
    Y9        0.74701   0.00001   0.00000  -0.00019  -0.00021   0.74680
    Z9        3.65241  -0.00001   0.00000  -0.00016  -0.00015   3.65225
   X10       -1.31102   0.00000   0.00000  -0.00002  -0.00001  -1.31103
   Y10        2.53824   0.00001   0.00000   0.00028   0.00025   2.53849
   Z10        2.78668   0.00000   0.00000   0.00010   0.00009   2.78677
         Item               Value     Threshold  Converged?
 Maximum Force            0.000027     0.000450     YES
 RMS     Force            0.000007     0.000300     YES
 Maximum Displacement     0.000384     0.001800     YES
 RMS     Displacement     0.000126     0.001200     YES
 Predicted change in Energy=-2.187987D-09
 Optimization completed.
    -- Stationary point found.
 GradGradGradGradGradGradGradGradGradGradGradGradGradGradGradGradGradGrad


 Test job not archived.
 1\1\GINC-NODE33\Freq\RB3LYP\CBSB7\C3H6O1\GOLDMANM\14-Mar-2019\0\\# fre
 q nosymm b3lyp/cbsb7 iop(7/33=1)\\NBO NRT\\0,1\O,-4.48816,0.50838,0.79
 086\C,-3.90916,1.61361,0.11702\C,-2.44678,1.82548,0.40573\C,-1.74769,1
 .15133,1.31249\H,-4.02781,-0.2838,0.4941\H,-4.05386,1.5385,-0.97242\H,
 -4.4774,2.49204,0.44176\H,-1.9639,2.59486,-0.19433\H,-2.21641,0.3953,1
 .93277\H,-0.69376,1.34318,1.47465\\Version=AM64L-G03RevD.01\HF=-193.17
 57775\RMSD=5.605e-09\RMSF=6.686e-06\ZeroPoint=0.0850065\Thermal=0.0898
 159\Dipole=0.3893593,-0.0120506,-0.4629677\DipoleDeriv=-0.5923416,-0.2
 556917,-0.0521017,-0.3269746,-0.6295529,0.1701605,-0.0126068,0.1570894
 ,-0.4720807,0.3802617,0.1685077,-0.0780513,0.2531364,0.5755594,-0.0657
 255,-0.085207,-0.088985,0.4637647,0.1260028,-0.0244685,0.1090777,0.047
 5127,-0.0548522,-0.1848609,0.0216218,-0.1709724,-0.0707945,-0.055412,0
 .1122277,-0.0401446,0.136277,-0.173609,-0.1104518,-0.0238999,-0.124559
 6,-0.1738876,0.2583813,0.1337595,0.0874712,0.0790506,0.2225082,0.00076
 53,0.0925099,-0.0091534,0.2431111,-0.0180994,-0.0244619,-0.0286525,-0.
 0498538,0.0178028,-0.0128276,-0.0397158,0.0439979,-0.2259599,-0.057028
 ,0.0776663,-0.0109538,0.0351968,-0.0791665,-0.0357692,0.0576562,-0.044
 2445,0.0543381,-0.0022189,-0.0788942,0.018393,-0.0742337,-0.0053736,0.
 1085938,0.0132789,0.1151429,0.0240038,0.0512817,-0.0771884,0.0463998,-
 0.0455263,0.0320705,0.0938109,0.0090962,0.0827892,0.063219,-0.0908275,
 -0.0314564,-0.0514376,-0.054585,0.0946132,0.0363046,-0.0327334,0.03889
 55,0.0942859\Polar=41.780738,-1.6718895,35.3189454,7.5295407,-8.090068
 1,35.8479948\PG=C01 [X(C3H6O1)]\NImag=0\\0.25448497,-0.11854752,0.5739
 2312,-0.15451016,0.02979651,0.18977957,-0.09772736,-0.05636727,0.04528
 727,0.48028698,-0.01684668,-0.17200459,0.03841055,-0.05071487,0.537616
 81,0.03688380,0.06701631,-0.11231578,-0.00647102,0.02555074,0.54282832
 ,-0.01993609,-0.01148339,0.00276812,-0.19129254,-0.01922473,-0.0246738
 8,0.57699916,-0.03723917,-0.01496156,0.00375667,-0.00712793,-0.0848341
 5,0.00260121,-0.00244805,0.47119466,0.02277458,0.01085838,0.00402873,-
 0.02864142,0.00391483,-0.09112413,0.14763374,-0.32185216,0.51719948,0.
 00103147,0.00193564,-0.00101743,-0.02106601,0.01767899,-0.02668482,-0.
 22846792,0.10967136,-0.16866741,0.67482496,0.00045466,0.00068519,0.000
 53643,0.00309336,0.00806481,-0.00035411,0.10408264,-0.19939365,0.18341
 400,0.02666859,0.43147739,0.00042322,0.00148207,-0.00193608,-0.0125626
 3,0.00213341,0.00121395,-0.16366210,0.18647523,-0.28979852,0.16154654,
 -0.32072650,0.48381809,-0.14026009,0.20809484,0.09314401,0.00544356,-0
 .01889024,-0.00396746,0.00238613,-0.00293254,0.00119774,-0.00048027,0.
 00073638,-0.00021378,0.13355874,0.16938726,-0.34717254,-0.10369482,0.0
 1779833,-0.03452014,-0.01086000,0.00028328,0.00186164,-0.00130034,-0.0
 0016594,-0.00003167,-0.00018652,-0.18502658,0.38030388,0.09776637,-0.1
 3949030,-0.07241665,-0.00837836,0.02429758,0.00332417,0.00100671,-0.00
 065859,-0.00002909,0.00001274,-0.00098165,0.00092978,-0.08979738,0.111
 97511,0.06990063,0.00150820,-0.00499848,0.01900727,-0.05297693,-0.0046
 6542,-0.03562195,-0.00807653,-0.00253992,-0.03540227,-0.00391652,-0.00
 189897,0.00117344,-0.00011470,0.00101022,-0.00121026,0.05974888,-0.003
 33108,-0.00765861,0.03704241,-0.00314366,-0.05429009,-0.03133284,0.002
 73006,0.00223653,-0.00210625,-0.00099252,0.00049403,-0.00024690,-0.000
 23046,0.00211380,0.00114750,0.00866244,0.05863545,0.00554899,0.0138341
 0,-0.01654146,-0.03365166,-0.02812033,-0.27290706,-0.00380989,-0.00121
 527,-0.00653812,-0.00049606,-0.00158934,0.00122260,0.00062089,-0.00017
 531,0.00061436,0.03414758,0.02091454,0.30473627,0.00863039,-0.01663575
 ,-0.00353015,-0.11854938,0.11255346,0.04580413,-0.02046980,0.02553018,
 0.00614374,-0.00226132,-0.00225571,0.00109971,-0.00017923,-0.00354962,
 0.00113112,0.00368469,-0.00331116,-0.00153604,0.12897126,0.00966931,-0
 .03510463,-0.00266221,0.09945475,-0.19786414,-0.06111864,0.00131318,0.
 00621310,0.00158488,-0.00109878,0.00079870,-0.00078518,-0.00244326,-0.
 00356406,0.00304984,0.00287772,-0.00192038,-0.00359633,-0.11092318,0.2
 3203423,-0.00835677,0.01959467,0.00560516,0.04612503,-0.06972065,-0.07
 483536,-0.00690140,0.00736250,0.00350232,-0.00063140,-0.00036858,-0.00
 002750,0.00042056,0.00464930,-0.00083715,0.01673234,-0.02527200,-0.011
 05018,-0.04769088,0.06385407,0.07785388,-0.00698219,-0.00248201,-0.000
 68577,-0.00517186,-0.02095745,0.01726299,-0.11151471,-0.08942913,0.064
 35580,0.01067155,0.01357646,-0.01208269,-0.00009650,0.00064355,0.00001
 521,0.00081245,0.00004791,-0.00120195,0.00021629,0.00119664,0.00031001
 ,0.11229423,-0.00169709,0.00062453,0.00029657,0.00022263,-0.00103913,0
 .00321591,-0.08649945,-0.18051547,0.11036264,-0.00935222,-0.00733228,0
 .01068345,0.00042314,0.00052180,0.00019641,0.00001217,0.00014201,-0.00
 018699,-0.00110829,-0.00020085,-0.00012943,0.09611875,0.18609013,-0.00
 251613,-0.00056490,0.00158484,-0.00329785,-0.00389980,0.00390006,0.062
 22822,0.11043522,-0.12793762,0.01059837,0.01782236,-0.00837247,-0.0000
 1668,0.00028947,-0.00025496,0.00108682,-0.00013060,0.00045768,-0.00008
 008,0.00020338,0.00012676,-0.06531071,-0.12680269,0.13004767,-0.000846
 02,0.00028528,-0.00018348,-0.00111672,0.00190534,0.00073320,0.01318129
 ,0.01129964,-0.00907926,-0.10885353,-0.09031780,0.06706741,-0.00036846
 ,-0.00060548,-0.00076155,0.00041295,-0.00041024,0.00064418,-0.00032152
 ,-0.00024430,-0.00004130,-0.00087612,0.00015494,-0.00393924,0.10656467
 ,-0.00075503,0.00029668,-0.00207999,-0.00077939,-0.00449551,-0.0036173
 8,-0.00738754,-0.00784080,0.01171927,-0.08689628,-0.17975087,0.1186711
 6,-0.00041063,0.00039540,-0.00006174,-0.00067429,0.00003963,-0.0002993
 8,0.00115200,-0.00009121,0.00050000,-0.00008153,0.00489140,0.00711134,
 0.09605735,0.18742101,0.00113230,-0.00216813,0.00123126,0.00363130,-0.
 00158378,-0.00405304,0.00954268,0.01688882,-0.00808844,0.06450559,0.11
 921934,-0.13675452,-0.00156290,-0.00050899,-0.00097421,-0.00084331,-0.
 00004753,-0.00009942,0.00089972,-0.00015101,0.00034211,-0.00436039,0.0
 0673215,0.00359981,-0.06982376,-0.13446923,0.14000697,0.00009672,0.000
 19867,-0.00027967,0.00217024,-0.00083840,-0.00326499,-0.01280899,-0.00
 478444,-0.00031523,-0.32148241,-0.05413960,-0.04278913,0.00011082,0.00
 022500,0.00021539,-0.00108249,-0.00002129,-0.00026605,0.00027862,0.000
 19792,0.00003381,0.00064683,0.00172541,0.00124729,-0.00777653,-0.00022
 466,-0.00312123,0.33984719,-0.00109465,0.00137242,-0.00140212,-0.00243
 595,0.00336613,0.00889880,0.01863400,0.00603971,0.00340474,-0.05744886
 ,-0.05501165,0.00249978,0.00067935,0.00009189,0.00052584,0.00221454,0.
 00020762,0.00043431,-0.00145192,-0.00030077,-0.00046988,0.00136681,-0.
 00318215,-0.00446378,-0.01812472,-0.00086574,-0.00391163,0.05766139,0.
 04828254,0.00085379,-0.00035873,0.00098041,-0.00204066,0.00901745,0.00
 396887,-0.02413220,-0.00379362,-0.00121461,-0.03916612,0.00302806,-0.0
 5029533,0.00017500,-0.00018789,-0.00025689,0.00093035,0.00003168,0.000
 10532,-0.00224127,-0.00037882,-0.00068003,0.00169750,-0.00436803,-0.00
 315177,0.01538378,0.00252595,0.00478948,0.04853982,-0.00551606,0.04575
 455\\-0.00000287,-0.00001065,0.00000540,-0.00000199,0.00002658,-0.0000
 0650,-0.00000060,-0.00000538,0.00000112,0.00001009,0.00000478,-0.00000
 752,-0.00000267,0.00000253,0.00000252,0.00000142,-0.00000138,0.0000001
 7,-0.00000017,-0.00000212,0.00000028,0.00000139,-0.00000142,-0.0000003
 6,-0.00000795,-0.00000651,0.00000583,0.00000337,-0.00000643,-0.0000009
 5\\\@


 THE CAUTIOUS SELDOM ERR...CONFUCIUS                   
 Job cpu time:  0 days  0 hours  7 minutes 56.7 seconds.
 File lengths (MBytes):  RWF=     22 Int=      0 D2E=      0 Chk=      6 Scr=      1
 Normal termination of Gaussian 03 at Thu Mar 14 20:35:05 2019.
