 Entering Gaussian System, Link 0=g03
 Input=g-Q1-freq.gjf
 Output=g-Q1-freq.log
 Initial command:
 /opt/g03/l1.exe /scratch/shamel/Gau-16535.inp -scrdir=/scratch/shamel/
 Entering Link 1 = /opt/g03/l1.exe PID=     16537.
  
 Copyright (c) 1988,1990,1992,1993,1995,1998,2003,2004, Gaussian, Inc.
                  All Rights Reserved.
  
 This is the Gaussian(R) 03 program.  It is based on the
 the Gaussian(R) 98 system (copyright 1998, Gaussian, Inc.),
 the Gaussian(R) 94 system (copyright 1995, Gaussian, Inc.),
 the Gaussian 92(TM) system (copyright 1992, Gaussian, Inc.),
 the Gaussian 90(TM) system (copyright 1990, Gaussian, Inc.),
 the Gaussian 88(TM) system (copyright 1988, Gaussian, Inc.),
 the Gaussian 86(TM) system (copyright 1986, Carnegie Mellon
 University), and the Gaussian 82(TM) system (copyright 1983,
 Carnegie Mellon University). Gaussian is a federally registered
 trademark of Gaussian, Inc.
  
 This software contains proprietary and confidential information,
 including trade secrets, belonging to Gaussian, Inc.
  
 This software is provided under written license and may be
 used, copied, transmitted, or stored only in accord with that
 written license.
  
 The following legend is applicable only to US Government
 contracts under FAR:
  
                    RESTRICTED RIGHTS LEGEND
  
 Use, reproduction and disclosure by the US Government is
 subject to restrictions as set forth in subparagraphs (a)
 and (c) of the Commercial Computer Software - Restricted
 Rights clause in FAR 52.227-19.
  
 Gaussian, Inc.
 340 Quinnipiac St., Bldg. 40, Wallingford CT 06492
  
  
 ---------------------------------------------------------------
 Warning -- This program may not be used in any manner that
 competes with the business of Gaussian, Inc. or will provide
 assistance to any competitor of Gaussian, Inc.  The licensee
 of this program is prohibited from giving any competitor of
 Gaussian, Inc. access to this program.  By using this program,
 the user acknowledges that Gaussian, Inc. is engaged in the
 business of creating and licensing software in the field of
 computational chemistry and represents and warrants to the
 licensee that it is not a competitor of Gaussian, Inc. and that
 it will not use this program in any manner prohibited above.
 ---------------------------------------------------------------
  

 Cite this work as:
 Gaussian 03, Revision D.01,
 M. J. Frisch, G. W. Trucks, H. B. Schlegel, G. E. Scuseria, 
 M. A. Robb, J. R. Cheeseman, J. A. Montgomery, Jr., T. Vreven, 
 K. N. Kudin, J. C. Burant, J. M. Millam, S. S. Iyengar, J. Tomasi, 
 V. Barone, B. Mennucci, M. Cossi, G. Scalmani, N. Rega, 
 G. A. Petersson, H. Nakatsuji, M. Hada, M. Ehara, K. Toyota, 
 R. Fukuda, J. Hasegawa, M. Ishida, T. Nakajima, Y. Honda, O. Kitao, 
 H. Nakai, M. Klene, X. Li, J. E. Knox, H. P. Hratchian, J. B. Cross, 
 V. Bakken, C. Adamo, J. Jaramillo, R. Gomperts, R. E. Stratmann, 
 O. Yazyev, A. J. Austin, R. Cammi, C. Pomelli, J. W. Ochterski, 
 P. Y. Ayala, K. Morokuma, G. A. Voth, P. Salvador, J. J. Dannenberg, 
 V. G. Zakrzewski, S. Dapprich, A. D. Daniels, M. C. Strain, 
 O. Farkas, D. K. Malick, A. D. Rabuck, K. Raghavachari, 
 J. B. Foresman, J. V. Ortiz, Q. Cui, A. G. Baboul, S. Clifford, 
 J. Cioslowski, B. B. Stefanov, G. Liu, A. Liashenko, P. Piskorz, 
 I. Komaromi, R. L. Martin, D. J. Fox, T. Keith, M. A. Al-Laham, 
 C. Y. Peng, A. Nanayakkara, M. Challacombe, P. M. W. Gill, 
 B. Johnson, W. Chen, M. W. Wong, C. Gonzalez, and J. A. Pople, 
 Gaussian, Inc., Wallingford CT, 2004.
 
 ******************************************
 Gaussian 03:  AM64L-G03RevD.01 13-Oct-2005
                14-Aug-2013 
 ******************************************
 %chk=g-Q1-freq.chk
 %mem=1000mb
 %nproc=8
 Will use up to    8 processors via shared memory.
 -------------------------------------
 # freq nosymm b3lyp/cbsb7 iop(7/33=1)
 -------------------------------------
 1/10=4,30=1,38=1/1,3;
 2/15=1,17=6,18=5,40=1/2;
 3/5=4,6=6,7=700,11=2,16=1,25=1,30=1,74=-5/1,2,3;
 4//1;
 5/5=2,38=5/2;
 8/6=4,10=90,11=11/1;
 11/6=1,8=1,9=11,15=111,16=1,31=1/1,2,10;
 10/6=1,31=1/2;
 6/7=2,8=2,9=2,10=2,18=1,28=1/1;
 7/8=1,10=1,25=1,30=1,33=1/1,2,3,16;
 1/10=4,30=1/3;
 99//99;
 -------------------
 Title Card Required
 -------------------
 Symbolic Z-matrix:
 Charge =  0 Multiplicity = 2
 C                    -0.82934   0.34273   0.02547 
 H                    -1.75137  -0.21372  -0.17383 
 H                     0.01204  -0.35543   0.08609 
 C                    -0.9649    1.17533   1.30849 
 H                    -0.0321    1.75837   1.39578 
 C                    -1.06596   0.24236   2.52274 
 H                    -0.19555  -0.41537   2.59173 
 H                    -1.12027   0.82059   3.44805 
 H                    -1.96446  -0.37937   2.46572 
 C                    -2.14318   2.10414   1.24989 
 H                    -2.59673   2.4624    2.16774 
 O                    -2.25739   3.00535   0.22977 
 H                    -1.76968   2.65784  -0.53272 
 O                    -0.6822    1.143    -1.15956 
 O                     0.64549   1.74318  -1.12584 
 H                     1.03354   1.32663  -1.90793 
 

 GradGradGradGradGradGradGradGradGradGradGradGradGradGradGradGradGradGrad
 Berny optimization.
 Initialization pass.
 Trust Radius=3.00D-01 FncErr=1.00D-07 GrdErr=1.00D-07
 Number of steps in this run=   2 maximum allowed number of steps=   2.
 GradGradGradGradGradGradGradGradGradGradGradGradGradGradGradGradGradGrad

                          Input orientation:                          
 ---------------------------------------------------------------------
 Center     Atomic     Atomic              Coordinates (Angstroms)
 Number     Number      Type              X           Y           Z
 ---------------------------------------------------------------------
    1          6             0       -0.829337    0.342726    0.025471
    2          1             0       -1.751372   -0.213717   -0.173825
    3          1             0        0.012041   -0.355430    0.086090
    4          6             0       -0.964898    1.175334    1.308488
    5          1             0       -0.032098    1.758373    1.395780
    6          6             0       -1.065959    0.242359    2.522744
    7          1             0       -0.195554   -0.415368    2.591731
    8          1             0       -1.120272    0.820591    3.448047
    9          1             0       -1.964456   -0.379368    2.465715
   10          6             0       -2.143181    2.104141    1.249893
   11          1             0       -2.596725    2.462399    2.167736
   12          8             0       -2.257387    3.005346    0.229767
   13          1             0       -1.769676    2.657844   -0.532721
   14          8             0       -0.682203    1.143001   -1.159560
   15          8             0        0.645485    1.743175   -1.125845
   16          1             0        1.033538    1.326627   -1.907927
 ---------------------------------------------------------------------
                    Distance matrix (angstroms):
                    1          2          3          4          5
     1  C    0.000000
     2  H    1.095215   0.000000
     3  H    1.094995   1.788089   0.000000
     4  C    1.535495   2.178361   2.189042   0.000000
     5  H    2.125416   3.051017   2.487046   1.103481   0.000000
     6  C    2.510465   2.819447   2.730699   1.534625   2.153419
     7  H    2.749923   3.179549   2.514940   2.183789   2.486396
     8  H    3.468000   3.819167   3.737367   2.174327   2.505066
     9  H    2.786522   2.653303   3.093498   2.180685   3.073875
    10  C    2.515547   2.748264   3.471154   1.501488   2.144180
    11  H    3.493705   3.655014   4.367960   2.248934   2.769274
    12  O    3.028301   3.283490   4.057803   2.486586   2.804717
    13  H    2.560388   2.893960   3.554893   2.497109   2.747243
    14  O    1.437493   1.988839   2.068554   2.484396   2.707597
    15  O    2.337068   3.237390   2.504831   2.973509   2.611119
    16  H    2.859439   3.624292   2.801584   3.789718   3.498066
                    6          7          8          9         10
     6  C    0.000000
     7  H    1.093146   0.000000
     8  H    1.092469   1.765212   0.000000
     9  H    1.094118   1.773750   1.765651   0.000000
    10  C    2.499358   3.455677   2.743305   2.770917   0.000000
    11  H    2.719899   3.771861   2.552380   2.926465   1.084660
    12  O    3.783033   4.640185   4.052593   4.067132   1.365969
    13  H    3.957986   4.656683   4.432126   4.272378   1.903630
    14  O    3.810221   4.091152   4.639601   4.135746   2.977198
    15  O    4.300429   4.380300   4.988942   4.921004   3.681180
    16  H    5.021391   4.979170   5.794948   5.570200   4.546196
                   11         12         13         14         15
    11  H    0.000000
    12  O    2.040996   0.000000
    13  H    2.831020   0.969540   0.000000
    14  O    4.059200   2.807092   1.967301   0.000000
    15  O    4.677273   3.443461   2.649796   1.457430   0.000000
    16  H    5.574927   4.268257   3.394310   1.880835   0.967342
                   16
    16  H    0.000000
 Symmetry turned off by external request.
 Stoichiometry    C4H9O3(2)
 Framework group  C1[X(C4H9O3)]
 Deg. of freedom    42
 Full point group                 C1
 Rotational constants (GHZ):      3.2228341      2.0776044      1.4562647
 Standard basis: CBSB7 (5D, 7F)
 Integral buffers will be    131072 words long.
 Raffenetti 2 integral format.
 Two-electron integral symmetry is turned off.
   180 basis functions,   296 primitive gaussians,   187 cartesian basis functions
    29 alpha electrons       28 beta electrons
       nuclear repulsion energy       328.1212405317 Hartrees.
 NAtoms=   16 NActive=   16 NUniq=   16 SFac= 7.50D-01 NAtFMM=   80 NAOKFM=F Big=F
 One-electron integrals computed using PRISM.
 NBasis=   180 RedAO= T  NBF=   180
 NBsUse=   180 1.00D-06 NBFU=   180
 Harris functional with IExCor=  402 diagonalized for initial guess.
 ExpMin= 1.03D-01 ExpMax= 8.59D+03 ExpMxC= 1.30D+03 IAcc=1 IRadAn=         1 AccDes= 1.00D-06
 HarFok:  IExCor= 402 AccDes= 1.00D-06 IRadAn=         1 IDoV=1
 ScaDFX=  1.000000  1.000000  1.000000  1.000000
 <S**2> of initial guess= 0.7500
 Requested convergence on RMS density matrix=1.00D-08 within 128 cycles.
 Requested convergence on MAX density matrix=1.00D-06.
 Requested convergence on             energy=1.00D-06.
 No special actions if energy rises.
 Integral accuracy reduced to 1.0D-05 until final iterations.
 Initial convergence to 1.0D-05 achieved.  Increase integral accuracy.
 SCF Done:  E(UB+HF-LYP) =  -383.468626445     A.U. after   16 cycles
             Convg  =    0.5604D-08             -V/T =  2.0033
             S**2   =   0.7534
 Annihilation of the first spin contaminant:
 S**2 before annihilation     0.7534,   after     0.7500
 Range of M.O.s used for correlation:     1   180
 NBasis=   180 NAE=    29 NBE=    28 NFC=     0 NFV=     0
 NROrb=    180 NOA=    29 NOB=    28 NVA=   151 NVB=   152
 Symmetrizing basis deriv contribution to polar:
 IMax=3 JMax=2 DiffMx= 0.00D+00
 G2DrvN: will do   17 centers at a time, making    1 passes doing MaxLOS=2.
 FoFDir/FoFCou used for L=0 through L=2.
 DoAtom=TTTTTTTTTTTTTTTT
          Differentiating once with respect to electric field.
                with respect to dipole field.
          Differentiating once with respect to nuclear coordinates.
 Symmetry not used in FoFDir.
 MinBra= 0 MaxBra= 2 Meth= 1.
 IRaf=       0 NMat=  51 IRICut=      51 DoRegI=T DoRafI=T ISym2E= 0 JSym2E=0.
          There are  51 degrees of freedom in the 1st order CPHF.
    48 vectors were produced by pass  0.
 AX will form  48 AO Fock derivatives at one time.
    48 vectors were produced by pass  1.
    48 vectors were produced by pass  2.
    48 vectors were produced by pass  3.
    48 vectors were produced by pass  4.
    48 vectors were produced by pass  5.
    28 vectors were produced by pass  6.
     4 vectors were produced by pass  7.
     2 vectors were produced by pass  8.
 Inv2:  IOpt= 1 Iter= 1 AM= 3.27D-15 Conv= 1.00D-12.
 Inverted reduced A of dimension  322 with in-core refinement.
 Isotropic polarizability for W=    0.000000       59.23 Bohr**3.
 End of Minotr Frequency-dependent properties file   721 does not exist.

 **********************************************************************

            Population analysis using the SCF density.

 **********************************************************************

 Alpha  occ. eigenvalues --  -19.19829 -19.18683 -19.12749 -10.23305 -10.20209
 Alpha  occ. eigenvalues --  -10.18456 -10.16968  -1.13766  -1.04110  -0.93441
 Alpha  occ. eigenvalues --   -0.80368  -0.68384  -0.66444  -0.59934  -0.54620
 Alpha  occ. eigenvalues --   -0.50398  -0.49717  -0.47570  -0.44477  -0.42723
 Alpha  occ. eigenvalues --   -0.41084  -0.39068  -0.38728  -0.38415  -0.34873
 Alpha  occ. eigenvalues --   -0.33057  -0.32050  -0.28435  -0.15760
 Alpha virt. eigenvalues --   -0.00658   0.03368   0.04637   0.07475   0.08823
 Alpha virt. eigenvalues --    0.09732   0.10537   0.12414   0.13053   0.13580
 Alpha virt. eigenvalues --    0.16337   0.20595   0.21440   0.23445   0.24855
 Alpha virt. eigenvalues --    0.31577   0.35307   0.36150   0.36695   0.38464
 Alpha virt. eigenvalues --    0.38656   0.41879   0.44173   0.48308   0.48941
 Alpha virt. eigenvalues --    0.51669   0.52908   0.54757   0.55726   0.56763
 Alpha virt. eigenvalues --    0.58208   0.58681   0.61055   0.61541   0.64126
 Alpha virt. eigenvalues --    0.67023   0.67673   0.73042   0.78627   0.80105
 Alpha virt. eigenvalues --    0.82454   0.86432   0.87127   0.90508   0.91235
 Alpha virt. eigenvalues --    0.96347   0.98229   1.00720   1.03139   1.07476
 Alpha virt. eigenvalues --    1.12511   1.20466   1.21496   1.22175   1.31815
 Alpha virt. eigenvalues --    1.32282   1.33885   1.38092   1.41052   1.42658
 Alpha virt. eigenvalues --    1.44808   1.45181   1.48183   1.49830   1.50707
 Alpha virt. eigenvalues --    1.51522   1.54176   1.55173   1.56827   1.59137
 Alpha virt. eigenvalues --    1.62584   1.65981   1.67916   1.71795   1.72462
 Alpha virt. eigenvalues --    1.74753   1.78631   1.80841   1.85467   1.88999
 Alpha virt. eigenvalues --    1.92018   1.92649   1.94692   2.01034   2.06986
 Alpha virt. eigenvalues --    2.08641   2.11424   2.14975   2.19618   2.24712
 Alpha virt. eigenvalues --    2.27933   2.35853   2.38802   2.40798   2.41544
 Alpha virt. eigenvalues --    2.44772   2.46709   2.49228   2.50538   2.51249
 Alpha virt. eigenvalues --    2.52406   2.58017   2.58712   2.59348   2.61177
 Alpha virt. eigenvalues --    2.70624   2.71044   2.73361   2.76562   2.77620
 Alpha virt. eigenvalues --    2.83273   2.85900   2.88558   2.94490   3.06261
 Alpha virt. eigenvalues --    3.08938   3.11671   3.12103   3.16344   3.18812
 Alpha virt. eigenvalues --    3.22730   3.30236   3.35324   3.50674   3.60179
 Alpha virt. eigenvalues --    3.72544   3.76298   3.78603   3.79959   3.83520
 Alpha virt. eigenvalues --    3.88949   3.91124   3.97944   4.23030   4.26924
 Alpha virt. eigenvalues --    4.65914   4.78942   4.83911   4.94737   5.22737
 Alpha virt. eigenvalues --    5.27633   5.40124   5.60509   5.70119  23.72437
 Alpha virt. eigenvalues --   23.79762  23.82836  23.92280  49.75474  49.80946
 Alpha virt. eigenvalues --   49.89442
  Beta  occ. eigenvalues --  -19.19831 -19.18680 -19.12188 -10.23250 -10.18927
  Beta  occ. eigenvalues --  -10.18508 -10.16959  -1.13762  -1.02872  -0.93420
  Beta  occ. eigenvalues --   -0.79961  -0.68326  -0.64830  -0.59370  -0.54470
  Beta  occ. eigenvalues --   -0.49929  -0.49629  -0.47022  -0.44063  -0.42322
  Beta  occ. eigenvalues --   -0.40646  -0.38711  -0.38452  -0.36714  -0.33162
  Beta  occ. eigenvalues --   -0.32475  -0.31608  -0.28283
  Beta virt. eigenvalues --   -0.02226  -0.00648   0.03554   0.04876   0.07684
  Beta virt. eigenvalues --    0.08981   0.09901   0.10879   0.12576   0.13365
  Beta virt. eigenvalues --    0.13652   0.16413   0.20798   0.21630   0.24438
  Beta virt. eigenvalues --    0.25675   0.31848   0.35901   0.36645   0.37039
  Beta virt. eigenvalues --    0.38660   0.39030   0.42596   0.46960   0.49319
  Beta virt. eigenvalues --    0.49334   0.52096   0.53800   0.55299   0.55883
  Beta virt. eigenvalues --    0.56913   0.58347   0.58975   0.61201   0.61675
  Beta virt. eigenvalues --    0.64547   0.67748   0.68101   0.73422   0.79300
  Beta virt. eigenvalues --    0.80281   0.83092   0.87121   0.87393   0.90756
  Beta virt. eigenvalues --    0.91810   0.96605   0.98438   1.01088   1.03326
  Beta virt. eigenvalues --    1.07717   1.12917   1.21102   1.22041   1.23159
  Beta virt. eigenvalues --    1.32360   1.32495   1.34193   1.38196   1.41382
  Beta virt. eigenvalues --    1.43417   1.45013   1.45702   1.48519   1.50078
  Beta virt. eigenvalues --    1.51122   1.51716   1.54638   1.55439   1.57381
  Beta virt. eigenvalues --    1.59871   1.62896   1.66699   1.68727   1.72404
  Beta virt. eigenvalues --    1.73459   1.75366   1.79123   1.81334   1.85653
  Beta virt. eigenvalues --    1.89635   1.92185   1.93928   1.95378   2.01216
  Beta virt. eigenvalues --    2.07715   2.08918   2.11736   2.15142   2.20098
  Beta virt. eigenvalues --    2.25064   2.28269   2.36003   2.38977   2.41222
  Beta virt. eigenvalues --    2.41661   2.45102   2.46955   2.49739   2.50611
  Beta virt. eigenvalues --    2.51648   2.52695   2.58344   2.59127   2.59548
  Beta virt. eigenvalues --    2.61350   2.71168   2.71538   2.73575   2.77247
  Beta virt. eigenvalues --    2.80002   2.83464   2.86272   2.88787   2.95259
  Beta virt. eigenvalues --    3.06594   3.09467   3.12049   3.12955   3.16797
  Beta virt. eigenvalues --    3.20503   3.23411   3.30332   3.35898   3.51104
  Beta virt. eigenvalues --    3.60230   3.72622   3.77025   3.78622   3.80212
  Beta virt. eigenvalues --    3.83663   3.89439   3.91389   3.98401   4.23597
  Beta virt. eigenvalues --    4.27156   4.65945   4.78949   4.86214   4.94752
  Beta virt. eigenvalues --    5.22768   5.28279   5.40135   5.60515   5.70730
  Beta virt. eigenvalues --   23.73367  23.80156  23.82949  23.92310  49.75479
  Beta virt. eigenvalues --   49.80970  49.89969
          Condensed to atoms (all electrons):
              1          2          3          4          5          6
     1  C    4.945111   0.367966   0.386087   0.315479  -0.074855  -0.044229
     2  H    0.367966   0.561878  -0.020367  -0.038707   0.011049  -0.004666
     3  H    0.386087  -0.020367   0.589062  -0.053040  -0.003131  -0.003463
     4  C    0.315479  -0.038707  -0.053040   5.242048   0.390831   0.319413
     5  H   -0.074855   0.011049  -0.003131   0.390831   0.616625  -0.031338
     6  C   -0.044229  -0.004666  -0.003463   0.319413  -0.031338   4.912461
     7  H   -0.006716  -0.000520   0.005346  -0.029937  -0.005084   0.397636
     8  H    0.008795  -0.000651  -0.000417  -0.027715  -0.009574   0.401149
     9  H   -0.012899   0.006869  -0.000237  -0.041814   0.011309   0.399599
    10  C   -0.086075   0.005805   0.008677   0.333415  -0.051550  -0.056292
    11  H    0.006696  -0.000058  -0.000417  -0.054826  -0.002133  -0.003661
    12  O    0.004766  -0.000757  -0.000414  -0.041626   0.004747   0.003455
    13  H   -0.002682  -0.000229   0.001481  -0.012684   0.001097  -0.000108
    14  O    0.207772  -0.019431  -0.027804  -0.045976  -0.005554   0.003408
    15  O   -0.058978   0.005795   0.006141  -0.008330   0.013167  -0.000276
    16  H   -0.000099  -0.000809   0.003521   0.000395  -0.000522  -0.000010
              7          8          9         10         11         12
     1  C   -0.006716   0.008795  -0.012899  -0.086075   0.006696   0.004766
     2  H   -0.000520  -0.000651   0.006869   0.005805  -0.000058  -0.000757
     3  H    0.005346  -0.000417  -0.000237   0.008677  -0.000417  -0.000414
     4  C   -0.029937  -0.027715  -0.041814   0.333415  -0.054826  -0.041626
     5  H   -0.005084  -0.009574   0.011309  -0.051550  -0.002133   0.004747
     6  C    0.397636   0.401149   0.399599  -0.056292  -0.003661   0.003455
     7  H    0.583323  -0.027778  -0.029439   0.006843  -0.000287  -0.000206
     8  H   -0.027778   0.570815  -0.031896  -0.004972   0.004686   0.000048
     9  H   -0.029439  -0.031896   0.587270   0.004569  -0.001048  -0.000237
    10  C    0.006843  -0.004972   0.004569   5.161547   0.406427   0.282530
    11  H   -0.000287   0.004686  -0.001048   0.406427   0.568574  -0.030153
    12  O   -0.000206   0.000048  -0.000237   0.282530  -0.030153   7.790766
    13  H    0.000076  -0.000015   0.000038  -0.043152   0.006279   0.329008
    14  O    0.000082  -0.000227   0.000024   0.004347  -0.000224  -0.013066
    15  O   -0.000139   0.000001  -0.000006  -0.001127  -0.000021   0.000747
    16  H    0.000000   0.000001   0.000009   0.000077   0.000001   0.000000
             13         14         15         16
     1  C   -0.002682   0.207772  -0.058978  -0.000099
     2  H   -0.000229  -0.019431   0.005795  -0.000809
     3  H    0.001481  -0.027804   0.006141   0.003521
     4  C   -0.012684  -0.045976  -0.008330   0.000395
     5  H    0.001097  -0.005554   0.013167  -0.000522
     6  C   -0.000108   0.003408  -0.000276  -0.000010
     7  H    0.000076   0.000082  -0.000139   0.000000
     8  H   -0.000015  -0.000227   0.000001   0.000001
     9  H    0.000038   0.000024  -0.000006   0.000009
    10  C   -0.043152   0.004347  -0.001127   0.000077
    11  H    0.006279  -0.000224  -0.000021   0.000001
    12  O    0.329008  -0.013066   0.000747   0.000000
    13  H    0.436396   0.030560  -0.000359   0.000227
    14  O    0.030560   8.106178   0.065580  -0.025764
    15  O   -0.000359   0.065580   7.946962   0.286152
    16  H    0.000227  -0.025764   0.286152   0.462184
 Mulliken atomic charges:
              1
     1  C    0.043859
     2  H    0.126833
     3  H    0.108973
     4  C   -0.246927
     5  H    0.134917
     6  C   -0.293078
     7  H    0.106798
     8  H    0.117750
     9  H    0.107889
    10  C    0.028931
    11  H    0.100166
    12  O   -0.329607
    13  H    0.254066
    14  O   -0.279905
    15  O   -0.255306
    16  H    0.274639
 Sum of Mulliken charges=   0.00000
 Atomic charges with hydrogens summed into heavy atoms:
              1
     1  C    0.279665
     2  H    0.000000
     3  H    0.000000
     4  C   -0.112010
     5  H    0.000000
     6  C    0.039359
     7  H    0.000000
     8  H    0.000000
     9  H    0.000000
    10  C    0.129097
    11  H    0.000000
    12  O   -0.075540
    13  H    0.000000
    14  O   -0.279905
    15  O    0.019333
    16  H    0.000000
 Sum of Mulliken charges=   0.00000
          Atomic-Atomic Spin Densities.
              1          2          3          4          5          6
     1  C    0.130214  -0.022309  -0.012369  -0.010052  -0.040017   0.009347
     2  H   -0.022309   0.007865   0.002917   0.002908   0.003312  -0.001882
     3  H   -0.012369   0.002917   0.003676   0.003651   0.003899  -0.000830
     4  C   -0.010052   0.002908   0.003651  -0.024220  -0.012133  -0.000912
     5  H   -0.040017   0.003312   0.003899  -0.012133   0.114998   0.003729
     6  C    0.009347  -0.001882  -0.000830  -0.000912   0.003729   0.014944
     7  H   -0.001152   0.000240  -0.000048   0.000281   0.001510  -0.000482
     8  H    0.002003  -0.000288  -0.000148   0.004338  -0.004595  -0.001407
     9  H   -0.008189   0.002110   0.000778  -0.003230   0.004010  -0.006511
    10  C   -0.046189   0.012826   0.000989   0.001203  -0.023684  -0.014465
    11  H    0.001821  -0.000380  -0.000034   0.008360  -0.004030  -0.000771
    12  O    0.002742  -0.001300  -0.000028  -0.001355   0.005455   0.000291
    13  H   -0.000859   0.000128   0.000064  -0.000044   0.000718   0.000011
    14  O   -0.002359   0.000406   0.000260   0.000707   0.000910  -0.000072
    15  O    0.000831  -0.000090  -0.000269  -0.000418  -0.001391  -0.000002
    16  H   -0.000522   0.000144   0.000267   0.000176   0.000472  -0.000004
              7          8          9         10         11         12
     1  C   -0.001152   0.002003  -0.008189  -0.046189   0.001821   0.002742
     2  H    0.000240  -0.000288   0.002110   0.012826  -0.000380  -0.001300
     3  H   -0.000048  -0.000148   0.000778   0.000989  -0.000034  -0.000028
     4  C    0.000281   0.004338  -0.003230   0.001203   0.008360  -0.001355
     5  H    0.001510  -0.004595   0.004010  -0.023684  -0.004030   0.005455
     6  C   -0.000482  -0.001407  -0.006511  -0.014465  -0.000771   0.000291
     7  H   -0.002529  -0.000198   0.001183   0.000254  -0.000118   0.000006
     8  H   -0.000198   0.002561  -0.003122  -0.001077   0.001348  -0.000048
     9  H    0.001183  -0.003122   0.008487   0.012516  -0.001287  -0.000246
    10  C    0.000254  -0.001077   0.012516   1.069944  -0.010246  -0.153455
    11  H   -0.000118   0.001348  -0.001287  -0.010246  -0.030516   0.001289
    12  O    0.000006  -0.000048  -0.000246  -0.153455   0.001289   0.292782
    13  H   -0.000002  -0.000022   0.000055  -0.000207  -0.000629   0.001593
    14  O    0.000012  -0.000010   0.000043   0.000835  -0.000016  -0.000109
    15  O   -0.000004   0.000003  -0.000005   0.000146   0.000002  -0.000025
    16  H    0.000004  -0.000002   0.000006  -0.000007  -0.000003   0.000018
             13         14         15         16
     1  C   -0.000859  -0.002359   0.000831  -0.000522
     2  H    0.000128   0.000406  -0.000090   0.000144
     3  H    0.000064   0.000260  -0.000269   0.000267
     4  C   -0.000044   0.000707  -0.000418   0.000176
     5  H    0.000718   0.000910  -0.001391   0.000472
     6  C    0.000011  -0.000072  -0.000002  -0.000004
     7  H   -0.000002   0.000012  -0.000004   0.000004
     8  H   -0.000022  -0.000010   0.000003  -0.000002
     9  H    0.000055   0.000043  -0.000005   0.000006
    10  C   -0.000207   0.000835   0.000146  -0.000007
    11  H   -0.000629  -0.000016   0.000002  -0.000003
    12  O    0.001593  -0.000109  -0.000025   0.000018
    13  H   -0.004483   0.000375  -0.000076   0.000042
    14  O    0.000375  -0.000959   0.000091  -0.000228
    15  O   -0.000076   0.000091   0.002027  -0.000559
    16  H    0.000042  -0.000228  -0.000559   0.000980
 Mulliken atomic spin densities:
              1
     1  C    0.002940
     2  H    0.006610
     3  H    0.002775
     4  C   -0.030740
     5  H    0.053162
     6  C    0.000982
     7  H   -0.001044
     8  H   -0.000664
     9  H    0.006597
    10  C    0.849381
    11  H   -0.035209
    12  O    0.147611
    13  H   -0.003333
    14  O   -0.000113
    15  O    0.000260
    16  H    0.000784
 Sum of Mulliken spin densities=   1.00000
 APT atomic charges:
              1
     1  C    0.431400
     2  H   -0.008206
     3  H   -0.049381
     4  C    0.051980
     5  H   -0.064476
     6  C    0.088580
     7  H   -0.020129
     8  H   -0.014603
     9  H   -0.011961
    10  C    0.282335
    11  H   -0.001683
    12  O   -0.642341
    13  H    0.347396
    14  O   -0.364015
    15  O   -0.289274
    16  H    0.264377
 Sum of APT charges=   0.00000
 APT Atomic charges with hydrogens summed into heavy atoms:
              1
     1  C    0.373813
     2  H    0.000000
     3  H    0.000000
     4  C   -0.012496
     5  H    0.000000
     6  C    0.041887
     7  H    0.000000
     8  H    0.000000
     9  H    0.000000
    10  C    0.280652
    11  H    0.000000
    12  O   -0.294945
    13  H    0.000000
    14  O   -0.364015
    15  O   -0.024897
    16  H    0.000000
 Sum of APT charges=   0.00000
 Electronic spatial extent (au):  <R**2>=  1486.7415
 Charge=     0.0000 electrons
 Dipole moment (field-independent basis, Debye):
    X=     1.9809    Y=    -2.5468    Z=    -0.4626  Tot=     3.2595
 Quadrupole moment (field-independent basis, Debye-Ang):
   XX=   -47.3000   YY=   -52.5305   ZZ=   -38.1899
   XY=     5.9773   XZ=    -2.7432   YZ=    -0.4858
 Traceless Quadrupole moment (field-independent basis, Debye-Ang):
   XX=    -1.2932   YY=    -6.5237   ZZ=     7.8169
   XY=     5.9773   XZ=    -2.7432   YZ=    -0.4858
 Octapole moment (field-independent basis, Debye-Ang**2):
  XXX=   153.6908  YYY=  -203.3795  ZZZ=   -73.5123  XYY=    63.9553
  XXY=   -73.3689  XXZ=   -27.4078  XZZ=    47.2743  YZZ=   -47.1493
  YYZ=   -25.0864  XYZ=    -2.7763
 Hexadecapole moment (field-independent basis, Debye-Ang**3):
 XXXX=  -604.0649 YYYY=  -858.3779 ZZZZ=  -552.4271 XXXY=   276.4286
 XXXZ=   145.8089 YYYX=   290.7328 YYYZ=   -53.0669 ZZZX=   120.8374
 ZZZY=   -40.9421 XXYY=  -268.4834 XXZZ=  -172.6628 YYZZ=  -203.1864
 XXYZ=   -18.4076 YYXZ=    49.3832 ZZXY=    66.8911
 N-N= 3.281212405317D+02 E-N=-1.555982996907D+03  KE= 3.822249101453D+02
  Exact polarizability:  58.136  -2.282  56.703  -7.038  -4.465  62.857
 Approx polarizability:  84.247   1.052  78.126  -5.245  -4.348  80.298
                          Isotropic Fermi Contact Couplings
        Atom                 a.u.       MegaHertz       Gauss      10(-4) cm-1
     1  C(13)              0.03001      33.74059      12.03948      11.25465
     2  H(1)              -0.00041      -1.83811      -0.65588      -0.61313
     3  H(1)               0.00021       0.94850       0.33845       0.31639
     4  C(13)             -0.01131     -12.71977      -4.53873      -4.24286
     5  H(1)               0.01882      84.12238      30.01695      28.06020
     6  C(13)              0.00369       4.15339       1.48203       1.38542
     7  H(1)              -0.00058      -2.58352      -0.92186      -0.86177
     8  H(1)              -0.00024      -1.08430      -0.38690      -0.36168
     9  H(1)              -0.00034      -1.50348      -0.53648      -0.50151
    10  C(13)              0.12067     135.65411      48.40476      45.24934
    11  H(1)              -0.00799     -35.73558     -12.75134     -11.92011
    12  O(17)              0.02628     -15.93012      -5.68426      -5.31372
    13  H(1)              -0.00236     -10.53617      -3.75957      -3.51449
    14  O(17)             -0.00065       0.39623       0.14138       0.13217
    15  O(17)              0.00357      -2.16379      -0.77209      -0.72176
    16  H(1)               0.00017       0.76152       0.27173       0.25401
 --------------------------------------------------------
       Center         ----  Spin Dipole Couplings  ----
                      3XX-RR        3YY-RR        3ZZ-RR
 --------------------------------------------------------
     1   Atom       -0.005437     -0.006541      0.011978
     2   Atom       -0.004087      0.006197     -0.002110
     3   Atom        0.001261      0.001449     -0.002710
     4   Atom        0.017627     -0.002818     -0.014809
     5   Atom        0.012729     -0.003590     -0.009139
     6   Atom       -0.002081      0.002061      0.000021
     7   Atom        0.000125      0.001624     -0.001749
     8   Atom       -0.002831     -0.002136      0.004967
     9   Atom       -0.004421      0.006599     -0.002178
    10   Atom        0.251703      0.116654     -0.368358
    11   Atom       -0.004388     -0.027140      0.031528
    12   Atom        0.275999      0.082473     -0.358473
    13   Atom       -0.002711     -0.020795      0.023506
    14   Atom       -0.000152     -0.003262      0.003415
    15   Atom        0.001984     -0.004026      0.002042
    16   Atom        0.000636     -0.001391      0.000755
 --------------------------------------------------------
                        XY            XZ            YZ
 --------------------------------------------------------
     1   Atom       -0.011635     -0.016768      0.015185
     2   Atom       -0.002952     -0.001218      0.009587
     3   Atom       -0.004890     -0.002076      0.002601
     4   Atom       -0.025369      0.001234      0.000243
     5   Atom       -0.005979      0.001165     -0.000553
     6   Atom       -0.004973      0.007201     -0.005395
     7   Atom       -0.003205      0.002338     -0.002985
     8   Atom       -0.002328      0.004689     -0.005680
     9   Atom       -0.002321      0.001571     -0.008115
    10   Atom        0.694619      0.331051      0.306225
    11   Atom        0.007902     -0.036234      0.044960
    12   Atom        0.650000      0.270173      0.250082
    13   Atom       -0.001104     -0.031073      0.008399
    14   Atom       -0.002848     -0.007319      0.006562
    15   Atom       -0.000120     -0.000526      0.000182
    16   Atom       -0.000579     -0.002155      0.000525
 --------------------------------------------------------


 ---------------------------------------------------------------------------------
              Anisotropic Spin Dipole Couplings in Principal Axis System
 ---------------------------------------------------------------------------------

       Atom             a.u.   MegaHertz   Gauss  10(-4) cm-1        Axes

              Baa    -0.0177    -2.373    -0.847    -0.791  0.7389  0.6697  0.0748
     1 C(13)  Bbb    -0.0140    -1.875    -0.669    -0.626  0.4718 -0.5935  0.6521
              Bcc     0.0317     4.248     1.516     1.417 -0.4811  0.4465  0.7545
 
              Baa    -0.0085    -4.533    -1.618    -1.512 -0.1509 -0.5613  0.8137
     2 H(1)   Bbb    -0.0046    -2.438    -0.870    -0.813  0.9720  0.0657  0.2256
              Bcc     0.0131     6.971     2.488     2.325 -0.1800  0.8250  0.5357
 
              Baa    -0.0040    -2.143    -0.765    -0.715 -0.2195 -0.5723  0.7901
     3 H(1)   Bbb    -0.0033    -1.772    -0.632    -0.591  0.7203  0.4512  0.5269
              Bcc     0.0073     3.915     1.397     1.306 -0.6580  0.6848  0.3132
 
              Baa    -0.0201    -2.697    -0.962    -0.900  0.5540  0.8157 -0.1668
     4 C(13)  Bbb    -0.0147    -1.969    -0.703    -0.657  0.0787  0.1481  0.9858
              Bcc     0.0348     4.666     1.665     1.556  0.8288 -0.5592  0.0179
 
              Baa    -0.0092    -4.917    -1.754    -1.640 -0.0370  0.0588  0.9976
     5 H(1)   Bbb    -0.0055    -2.955    -1.054    -0.986  0.3133  0.9486 -0.0443
              Bcc     0.0148     7.872     2.809     2.626  0.9489 -0.3109  0.0535
 
              Baa    -0.0083    -1.116    -0.398    -0.372  0.7673  0.0348 -0.6403
     6 C(13)  Bbb    -0.0035    -0.465    -0.166    -0.155  0.3648  0.7975  0.4806
              Bcc     0.0118     1.581     0.564     0.527 -0.5274  0.6023 -0.5992
 
              Baa    -0.0036    -1.921    -0.686    -0.641 -0.2591  0.3543  0.8985
     7 H(1)   Bbb    -0.0024    -1.289    -0.460    -0.430  0.7887  0.6146 -0.0149
              Bcc     0.0060     3.210     1.146     1.071 -0.5575  0.7048 -0.4387
 
              Baa    -0.0054    -2.875    -1.026    -0.959 -0.4012  0.7143  0.5734
     8 H(1)   Bbb    -0.0048    -2.574    -0.918    -0.858  0.8369  0.5403 -0.0874
              Bcc     0.0102     5.449     1.944     1.817  0.3722 -0.4449  0.8146
 
              Baa    -0.0070    -3.749    -1.338    -1.251 -0.0735  0.5010  0.8623
     9 H(1)   Bbb    -0.0049    -2.608    -0.931    -0.870  0.9829  0.1828 -0.0224
              Bcc     0.0119     6.358     2.269     2.121 -0.1688  0.8459 -0.5059
 
              Baa    -0.5180   -69.504   -24.801   -23.184  0.3029 -0.6623  0.6853
    10 C(13)  Bbb    -0.5098   -68.407   -24.409   -22.818 -0.6422  0.3894  0.6602
              Bcc     1.0277   137.912    49.210    46.002  0.7041  0.6401  0.3074
 
              Baa    -0.0628   -33.510   -11.957   -11.178 -0.4214  0.7451 -0.5170
    11 H(1)   Bbb    -0.0048    -2.580    -0.921    -0.861  0.8211  0.5555  0.1313
              Bcc     0.0676    36.090    12.878    12.038 -0.3850  0.3691  0.8459
 
              Baa    -0.4849    35.091    12.521    11.705 -0.4700  0.7462 -0.4714
    12 O(17)  Bbb    -0.4557    32.971    11.765    10.998 -0.5004  0.2147  0.8388
              Bcc     0.9406   -68.062   -24.286   -22.703  0.7271  0.6301  0.2725
 
              Baa    -0.0263   -14.029    -5.006    -4.679 -0.6132  0.6215 -0.4875
    13 H(1)   Bbb    -0.0187    -9.984    -3.563    -3.330  0.5728  0.7749  0.2674
              Bcc     0.0450    24.013     8.568     8.010 -0.5439  0.1152  0.8312
 
              Baa    -0.0078     0.565     0.202     0.188 -0.3448  0.6949 -0.6311
    14 O(17)  Bbb    -0.0045     0.324     0.115     0.108  0.7743  0.5906  0.2272
              Bcc     0.0123    -0.889    -0.317    -0.296 -0.5306  0.4103  0.7417
 
              Baa    -0.0040     0.292     0.104     0.097  0.0174  0.9994 -0.0285
    15 O(17)  Bbb     0.0015    -0.108    -0.038    -0.036  0.7270  0.0069  0.6866
              Bcc     0.0025    -0.184    -0.066    -0.061 -0.6864  0.0326  0.7265
 
              Baa    -0.0016    -0.829    -0.296    -0.277  0.4316  0.8790  0.2027
    16 H(1)   Bbb    -0.0014    -0.766    -0.273    -0.256  0.5836 -0.4434  0.6803
              Bcc     0.0030     1.595     0.569     0.532 -0.6879  0.1753  0.7043
 

 ---------------------------------------------------------------------------------

 Use density number 0.
 Entering OneElI...
 Calculate overlap and kinetic energy integrals
    NBasis = 187  MinDer = 2  MaxDer = 2
 Requested accuracy = 0.1000D-12
 PrsmSu:  NPrtUS=   1 ThrOK=F
 PRISM was handed   130760381 working-precision words and  2548 shell-pairs
 Entering OneElI...
 Calculate potential energy integrals
    NBasis = 187  MinDer = 2  MaxDer = 2
 Requested accuracy = 0.1000D-12
 PrsmSu:  NPrtUS=   8 ThrOK=T
 PRISM was handed    16301864 working-precision words and  2346 shell-pairs
 PRISM was handed    16301864 working-precision words and  2346 shell-pairs
 PRISM was handed    16301864 working-precision words and  2346 shell-pairs
 PRISM was handed    16301864 working-precision words and  2346 shell-pairs
 PRISM was handed    16301864 working-precision words and  2346 shell-pairs
 PRISM was handed    16301864 working-precision words and  2346 shell-pairs
 PRISM was handed    16301864 working-precision words and  2346 shell-pairs
 PRISM was handed    16301864 working-precision words and  2346 shell-pairs
 Polarizability after L701:
                1             2             3
      1  0.581359D+02
      2 -0.228167D+01  0.567032D+02
      3 -0.703823D+01 -0.446533D+01  0.628571D+02
 Dipole Derivatives after L701:
               1            2            3            4            5
      1 0.278696D+00-0.224332D-01-0.140718D+00-0.394286D-01-0.582096D-01
      2-0.100607D-01 0.364077D+00-0.130689D+00-0.107576D+00 0.259493D-01
      3-0.259218D-01-0.458128D-01 0.651428D+00-0.470943D-01 0.568763D-02
               6            7            8            9           10
      1 0.199330D-01-0.736823D-01 0.800314D-01 0.424389D-01 0.168435D+00
      2 0.241970D-01 0.165614D+00-0.581348D-01 0.164438D-01 0.913648D-01
      3-0.111379D-01 0.717686D-03-0.329564D-02-0.163273D-01-0.155523D-01
              11           12           13           14           15
      1-0.101321D-01 0.593876D-01-0.161964D+00-0.685040D-01-0.327786D-03
      2 0.409593D-01 0.325617D-01-0.358612D-01-0.471301D-01 0.111960D-01
      3-0.324527D-01-0.534559D-01-0.289733D-01 0.111552D-01 0.156669D-01
              16           17           18           19           20
      1 0.130181D+00 0.246101D-01 0.199010D-01-0.792683D-01 0.929570D-01
      2 0.364442D-01 0.854422D-01 0.189250D-01 0.122368D+00-0.318099D-01
      3-0.103082D-01-0.573635D-02 0.501171D-01-0.240488D-01 0.449722D-01
              21           22           23           24           25
      1 0.183855D-01 0.707587D-01-0.395982D-04 0.209640D-01-0.780143D-01
      2 0.735583D-02-0.242862D-03-0.266356D-02-0.544940D-01-0.127133D+00
      3 0.506915D-01 0.256657D-01-0.106156D+00-0.111903D+00 0.159169D-01
              26           27           28           29           30
      1-0.780898D-01-0.442788D-01-0.746869D-02-0.283564D+00-0.379217D-01
      2-0.364946D-02-0.225075D-01-0.237889D+00 0.355971D+00-0.395581D+00
      3 0.195305D-01 0.457803D-01-0.231059D-01-0.322272D+00 0.498504D+00
              31           32           33           34           35
      1 0.789709D-01 0.112181D+00 0.880302D-01-0.410397D+00 0.210951D+00
      2 0.722996D-01 0.871604D-02-0.321722D-01 0.621357D-01-0.722133D+00
      3 0.307921D-01-0.643796D-01-0.927358D-01 0.195631D-01 0.368772D+00
              36           37           38           39           40
      1-0.993777D-01 0.339063D+00-0.952487D-01-0.332421D-01-0.140397D+00
      2 0.424654D+00-0.421473D-01 0.330274D+00-0.303780D-02 0.141280D+00
      3-0.794494D+00-0.383466D-01 0.248429D-01 0.372852D+00 0.307287D-01
              41           42           43           44           45
      1 0.109533D+00 0.512900D-01-0.358645D+00-0.636259D-03 0.387437D-01
      2-0.337893D+00 0.227866D-01-0.105376D+00-0.253469D+00 0.175394D+00
      3 0.111504D-01-0.613754D+00 0.104233D+00 0.183936D+00-0.255708D+00
              46           47           48
      1 0.283161D+00-0.134055D-01-0.320786D-02
      2-0.252205D-01 0.245493D+00-0.950318D-01
      3-0.142665D-01-0.899424D-01 0.264476D+00
 Hessian after L701:
                1             2             3             4             5
      1  0.189977D+02
      2  0.237779D+00  0.164262D+02
      3  0.147448D+01  0.141062D+01  0.120987D+02
      4 -0.252520D+01  0.133741D+01  0.309687D+00  0.237422D+01
      5  0.151862D+01 -0.377835D+01  0.194135D+00 -0.168852D+01  0.344521D+01
      6  0.348606D+00  0.203133D+00 -0.466833D+01 -0.325856D+00 -0.249439D+00
      7 -0.301845D+01 -0.150708D+01  0.202999D+00 -0.109668D+00  0.261356D-01
      8 -0.164260D+01 -0.327635D+01 -0.209703D+00  0.705348D-02  0.872826D-01
      9  0.194920D+00 -0.181928D+00 -0.473067D+01 -0.280862D-01  0.505964D-02
     10 -0.610713D+01 -0.367991D+00 -0.634544D+00  0.131441D+00 -0.449615D-01
     11 -0.341910D+00 -0.495302D+01  0.250168D+01 -0.129516D-01  0.357052D-01
     12 -0.643908D+00  0.263899D+01 -0.171522D+01 -0.263729D-01 -0.111777D+00
     13  0.206555D+00 -0.165552D+00 -0.105804D+00  0.413621D-01  0.956525D-01
     14 -0.137285D+00 -0.246126D-01 -0.186762D+00  0.884718D-01  0.545992D-01
     15 -0.136783D+00 -0.260427D+00  0.122465D+00  0.709069D-01  0.778053D-01
     16 -0.946617D-01 -0.641323D-02 -0.688862D-01 -0.484911D-02  0.780616D-02
     17 -0.185861D-01 -0.107132D+00  0.115338D+00  0.175090D-01 -0.744666D-02
     18 -0.484649D-01  0.214385D-02  0.251636D+00  0.371956D-01  0.161315D-01
     19 -0.122755D-02 -0.196125D-01  0.327475D-01  0.940303D-02  0.452687D-02
     20 -0.331000D-02 -0.698500D-03 -0.662736D-02 -0.638222D-02 -0.482875D-02
     21  0.343497D-02  0.177747D-03 -0.103065D-01  0.622521D-02  0.196086D-02
     22 -0.505632D-01 -0.118733D-02 -0.195994D-01 -0.105748D-03  0.235789D-04
     23 -0.249472D-02 -0.553682D-01  0.382058D-01  0.442446D-02  0.268617D-02
     24 -0.257185D-01  0.290597D-01  0.218381D+00  0.760935D-02  0.423651D-02
     25  0.156520D-01  0.997852D-02 -0.667271D-02 -0.336014D-01 -0.466386D-02
     26 -0.606116D-02  0.111018D-01  0.212907D-01 -0.500543D-02 -0.296959D-01
     27  0.200701D-01  0.205755D-01 -0.348828D-01  0.360805D-02  0.439151D-02
     28 -0.117961D+00  0.218585D+00  0.743493D-01 -0.304428D-01 -0.680533D-01
     29  0.767628D-01  0.309839D+00  0.125108D+00 -0.227314D-01  0.117616D-01
     30  0.353381D-01  0.720173D-01  0.206547D+00 -0.158077D-01  0.402989D-01
     31  0.177246D-01 -0.726836D-01 -0.826209D-01 -0.606291D-02 -0.546395D-02
     32 -0.683868D-01  0.305009D-01  0.855795D-01  0.337593D-02  0.578261D-02
     33 -0.884905D-01  0.920605D-01  0.532672D-01  0.704975D-02  0.125229D-01
     34  0.263164D-01 -0.426587D+00  0.245843D-02 -0.403493D-01 -0.190270D-01
     35 -0.430819D+00  0.236514D+00 -0.363827D-02  0.395261D-01  0.794195D-01
     36 -0.192198D-01  0.316068D-01 -0.313606D+00  0.117603D-01  0.209225D-01
     37 -0.282613D-01 -0.213969D-02  0.377697D-02  0.247730D-02  0.719421D-02
     38 -0.275763D-01  0.321274D-01 -0.285636D-01  0.653728D-03 -0.355361D-02
     39  0.360499D-01 -0.710171D-01 -0.882905D-03 -0.827129D-02 -0.118867D-01
     40 -0.721140D+01  0.801703D+00 -0.110809D+01  0.529130D-01  0.240215D-01
     41  0.717161D+00 -0.495837D+01 -0.393799D+01  0.945260D-01  0.601612D-01
     42 -0.103902D+01 -0.395438D+01 -0.145140D+01  0.119455D-01  0.400867D-01
     43 -0.131499D+00 -0.390635D-01 -0.169839D-01  0.139042D+00  0.148029D+00
     44  0.134376D+00  0.135722D+00 -0.123902D+00  0.150657D+00  0.464684D-01
     45 -0.423090D-01 -0.328828D-01 -0.699039D-01 -0.559088D-01 -0.414136D-01
     46  0.223825D-01  0.285147D-02 -0.572919D-01 -0.585292D-03 -0.132257D-02
     47 -0.567179D-02 -0.280772D-01  0.522408D-02 -0.802208D-02 -0.520124D-02
     48 -0.689825D-01  0.249362D-03  0.442494D-01 -0.568510D-02 -0.303451D-02
                6             7             8             9            10
      6  0.473257D+01
      7 -0.320344D-01  0.284530D+01
      8  0.306943D-02  0.175764D+01  0.283237D+01
      9  0.727375D-01 -0.142226D+00  0.325016D+00  0.474962D+01
     10 -0.685080D-01  0.117100D+00  0.116073D+00  0.111094D+00  0.172854D+02
     11 -0.117320D+00  0.104775D+00 -0.841735D-02 -0.149776D+00  0.192250D+01
     12 -0.110511D-01  0.911149D-01 -0.147281D+00  0.797955D-01  0.536788D+00
     13  0.702749D-01  0.238246D-02  0.843667D-02  0.298893D-03 -0.257311D+01
     14  0.695026D-01 -0.521028D-02 -0.179120D-01 -0.199366D-01  0.145426D+01
     15  0.818073D-02 -0.100136D-02 -0.188865D-01 -0.497196D-02  0.349155D+00
     16  0.140042D-01 -0.194694D-02 -0.167726D-01 -0.193268D-01 -0.574648D+01
     17  0.158801D-01 -0.229847D-01 -0.997169D-02  0.152481D-01  0.206671D+00
     18  0.748080D-02 -0.435547D-01  0.262271D-01  0.776499D-02 -0.206141D+00
     19  0.630780D-02 -0.301490D-01  0.511435D-02  0.338545D-02  0.957948D-01
     20 -0.300093D-02  0.660533D-02 -0.279010D-01 -0.997760D-02 -0.116403D-01
     21  0.100980D-02 -0.175128D-01  0.918734D-02  0.530166D-01 -0.289517D-01
     22 -0.512026D-03  0.217380D-03 -0.140818D-02 -0.427831D-03  0.352853D-01
     23  0.131064D-02 -0.476560D-02  0.299315D-02  0.163811D-02 -0.597941D-02
     24 -0.197981D-02 -0.795447D-02  0.731357D-02  0.635185D-03  0.266978D-01
     25 -0.184585D-01  0.110573D-01 -0.664339D-02 -0.573087D-02  0.118953D+00
     26 -0.158974D-01  0.561784D-02 -0.622569D-02 -0.129556D-02 -0.277606D-01
     27  0.654310D-01 -0.626569D-02  0.218657D-02 -0.747123D-05  0.578008D-01
     28 -0.380403D-01  0.728740D-01 -0.133294D+00 -0.518307D-01 -0.331659D+01
     29  0.285331D-01 -0.126450D+00  0.774475D-01  0.511017D-01 -0.321116D+01
     30 -0.327372D-01 -0.577659D-01  0.601480D-01 -0.387219D-01  0.174359D+00
     31 -0.268500D-02  0.239868D-02 -0.945748D-03  0.297692D-02 -0.711649D-02
     32  0.484920D-02 -0.359547D-03 -0.869292D-03 -0.355749D-02  0.187641D+00
     33  0.443300D-02 -0.513313D-02  0.447892D-02 -0.106504D-02  0.154285D+00
     34 -0.518983D-03  0.169780D-01 -0.366413D-01  0.212078D-02  0.618156D-01
     35  0.146884D-01 -0.418718D-01  0.322791D-01 -0.257431D-02 -0.305324D+00
     36 -0.246664D-01 -0.758452D-02  0.976585D-02 -0.143008D-01  0.111018D+00
     37  0.851969D-03 -0.753502D-03 -0.130502D-01  0.363170D-02  0.463258D-01
     38 -0.451948D-03 -0.160312D-01  0.198338D-01 -0.609766D-02  0.159307D-01
     39 -0.324514D-02  0.120129D-01 -0.147917D-01 -0.608744D-02 -0.389719D-02
     40  0.878163D-01  0.153196D+00 -0.132239D+00 -0.151740D-01 -0.779117D-01
     41  0.712530D-01 -0.189490D+00  0.319707D+00  0.179817D-01 -0.619311D-01
     42 -0.980660D-01  0.350790D-01  0.234564D-01 -0.130532D+00 -0.223820D+00
     43 -0.463359D-01 -0.506624D-01  0.626566D-01 -0.319666D-01 -0.640754D-01
     44 -0.302278D-01  0.899932D-04 -0.286420D-01 -0.175032D-01  0.143513D+00
     45 -0.507614D-01 -0.105763D-01 -0.321144D-01 -0.634415D-01 -0.321540D+00
     46  0.508737D-02 -0.987683D-02  0.266129D-01 -0.236594D-01  0.305450D-03
     47  0.411884D-02  0.133731D-01  0.437160D-02 -0.233995D-01 -0.985002D-02
     48 -0.100552D-02 -0.959646D-02 -0.480734D-01  0.262332D-01 -0.337967D-01
               11            12            13            14            15
     11  0.163972D+02
     12  0.173664D+00  0.148735D+02
     13  0.149641D+01  0.169147D+00  0.205281D+01
     14 -0.392705D+01  0.100966D+00 -0.166142D+01  0.391283D+01
     15  0.229554D+00 -0.487033D+01 -0.313829D+00 -0.121822D+00  0.440887D+01
     16  0.222541D+00 -0.212794D+00  0.102584D+00 -0.264041D-01  0.377026D-01
     17 -0.383174D+01 -0.245762D+01 -0.236343D-01 -0.272225D-01  0.762840D-01
     18 -0.246095D+01 -0.247033D+01  0.253026D-01  0.736364D-01  0.363367D-01
     19 -0.298318D-01  0.190338D-01  0.625274D-02 -0.947150D-02  0.109311D-02
     20  0.268182D-01  0.925104D-03  0.330888D-02 -0.236964D-01  0.221634D-01
     21  0.528216D-01  0.281605D-01  0.114039D-02  0.251239D-01 -0.943864D-03
     22 -0.332355D-02  0.514024D-02  0.812996D-02 -0.135525D-01  0.299825D-01
     23  0.503274D-01  0.960697D-01 -0.218806D-01  0.873811D-02  0.284612D-01
     24  0.345048D-01  0.522546D-01  0.295429D-01  0.254437D-01 -0.367380D-01
     25  0.412324D-02  0.487621D-02  0.549508D-01  0.960923D-01 -0.375635D-01
     26  0.563991D-01  0.298578D-01  0.104602D+00  0.637677D-01 -0.389923D-01
     27  0.760753D-01  0.628569D-01 -0.515799D-01 -0.494374D-01 -0.229123D-01
     28 -0.330446D+01  0.241455D+00  0.183713D+00  0.253933D+00  0.466529D-01
     29 -0.388110D+01 -0.467544D+00  0.265118D+00  0.118877D+00  0.259531D-01
     30 -0.304844D+00 -0.658114D+01  0.967948D-01  0.579890D-02  0.184695D+00
     31  0.178198D+00  0.163359D+00  0.607454D-05  0.867481D-02  0.370803D-02
     32  0.122478D-01 -0.151694D+00  0.552323D-03 -0.199637D-02 -0.185271D-02
     33 -0.134283D+00  0.104615D+00 -0.773274D-02 -0.712986D-02  0.365760D-03
     34 -0.366822D+00  0.136033D+00  0.356142D-01 -0.413469D-01  0.434256D-01
     35  0.481117D+00 -0.113867D-01 -0.114306D+00 -0.901222D-02 -0.549753D-01
     36 -0.719280D-01 -0.236443D+00  0.371207D-01 -0.214912D-01 -0.438007D-01
     37  0.354930D-01 -0.475969D-01 -0.751912D-02 -0.188804D-02  0.241445D-02
     38 -0.891665D-01  0.160207D+00  0.179353D-03 -0.512631D-02 -0.143202D-02
     39  0.884841D-01 -0.978028D-01  0.219727D-01  0.178557D-02  0.718149D-02
     40 -0.549609D-01 -0.197412D+00 -0.113395D-01  0.931119D-02  0.131728D-01
     41 -0.186855D+00  0.334596D+00  0.137254D-01 -0.699117D-02  0.226335D-01
     42  0.327069D+00  0.559090D+00  0.585056D-01  0.473830D-01  0.143752D-01
     43  0.146853D+00 -0.214550D+00 -0.986751D-01 -0.121985D-01 -0.110677D+00
     44 -0.165226D+00 -0.198851D+00 -0.427871D-02 -0.117474D+00  0.140705D-01
     45 -0.237631D+00  0.185724D+00 -0.400688D-01  0.514005D-01  0.199713D+00
     46  0.336745D-02 -0.243131D-01 -0.372023D-02 -0.196899D-02  0.163952D-02
     47 -0.172904D-01  0.108771D-01  0.308519D-02  0.228215D-02  0.146369D-02
     48 -0.712311D-02  0.363011D-01  0.891360D-02  0.553930D-02 -0.248607D-02
               16            17            18            19            20
     16  0.148915D+02
     17  0.314622D-01  0.136831D+02
     18  0.774781D-01  0.162695D+01  0.121663D+02
     19 -0.244757D+01 -0.127763D+01  0.109197D+00  0.242063D+01
     20 -0.134921D+01 -0.306753D+01 -0.745469D-01  0.142923D+01  0.289846D+01
     21  0.266839D+00 -0.193139D+00 -0.411390D+01 -0.320007D+00  0.266933D+00
     22 -0.407923D+01 -0.636074D-01 -0.111831D+00  0.364315D-01  0.614681D-01
     23 -0.708977D-01 -0.340280D+01  0.110140D+01  0.349519D-01  0.215701D-02
     24 -0.142337D+00  0.129230D+01 -0.209254D+01  0.323567D-01 -0.456321D-01
     25 -0.229741D+01  0.127811D+01  0.146647D+00 -0.111314D+00 -0.816782D-02
     26  0.138853D+01 -0.323605D+01  0.123372D+00  0.145958D-01  0.101153D+00
     27 -0.265437D-01 -0.434156D-02 -0.419520D+01  0.141832D-02 -0.333939D-02
     28  0.435135D-01 -0.162903D-01  0.571185D-01  0.383515D-01 -0.100247D+00
     29 -0.815621D-01  0.481760D-01  0.266452D-01 -0.999673D-01  0.734478D-01
     30  0.140127D+00 -0.667007D-01 -0.278101D-02  0.606218D-01 -0.669523D-01
     31 -0.116208D-01 -0.363173D-01 -0.794304D-02  0.531585D-02 -0.663486D-02
     32 -0.277370D-01  0.306238D-01  0.201521D-02 -0.583095D-02  0.346737D-02
     33 -0.236803D-01  0.235184D-01 -0.220468D-01 -0.739079D-02  0.656674D-02
     34 -0.119704D+00 -0.116230D+00  0.917547D-01  0.884972D-02 -0.174634D-01
     35 -0.123958D+00  0.133396D+00 -0.240419D+00 -0.258542D-01  0.168547D-01
     36  0.915730D-01 -0.231055D+00  0.121056D-01  0.109310D-01 -0.122048D-01
     37 -0.151040D-01  0.372542D-02 -0.385640D-02 -0.356726D-02  0.197123D-02
     38 -0.223338D-02 -0.246062D-02 -0.118826D-01  0.168938D-03 -0.570632D-03
     39  0.119878D-01 -0.297821D-01  0.197894D-01  0.772500D-02 -0.850701D-02
     40 -0.156442D+00  0.971936D-02 -0.508235D-01 -0.137576D-01 -0.304779D-02
     41  0.138386D-01 -0.128122D+00 -0.137237D+00 -0.137543D-01  0.377948D-03
     42 -0.463899D-01 -0.117493D+00  0.316782D+00  0.290959D-01 -0.358482D-01
     43 -0.629722D-01  0.279279D-01 -0.634713D-01 -0.107740D-01  0.122623D-02
     44  0.424857D-01 -0.706692D-01 -0.752600D-01 -0.825723D-02  0.463569D-02
     45 -0.873683D-01 -0.653979D-01  0.648563D-01  0.917124D-02 -0.244629D-01
     46  0.402926D-03  0.157997D-03 -0.860773D-02 -0.267699D-02  0.230210D-02
     47 -0.146997D-02 -0.415158D-02  0.177006D-02  0.162405D-02 -0.214745D-02
     48 -0.123849D-01  0.172832D-05  0.137403D-01  0.431301D-02 -0.548888D-02
               21            22            23            24            25
     21  0.388709D+01
     22  0.531133D-01  0.405435D+01
     23 -0.490988D-01  0.125556D+00  0.341481D+01
     24  0.484984D-01  0.103866D+00 -0.115744D+01  0.166277D+01
     25 -0.288618D-01  0.504676D-01 -0.389572D-01 -0.444337D-01  0.224423D+01
     26 -0.117100D-02 -0.703953D-01  0.437330D-02 -0.703472D-01 -0.136618D+01
     27  0.836056D-01 -0.635471D-01 -0.612510D-01  0.404338D-01  0.543929D-01
     28  0.580845D-01 -0.321163D-01  0.896793D-02 -0.184413D-01 -0.322592D-01
     29 -0.654485D-01 -0.188807D-02  0.274633D-03 -0.332140D-01 -0.217997D-01
     30 -0.141145D-01 -0.808343D-02  0.385579D-02  0.134523D-01  0.408884D-02
     31  0.379403D-03  0.480459D-02 -0.233905D-01  0.353201D-01 -0.591603D-02
     32 -0.158015D-03 -0.269785D-01  0.524232D-02 -0.353343D-01  0.616360D-02
     33 -0.221775D-02  0.121439D-01 -0.167311D-01 -0.139092D-01  0.541283D-02
     34  0.569987D-02 -0.122634D-01 -0.100970D-02  0.262257D-01 -0.213647D-01
     35 -0.946794D-02 -0.698170D-02 -0.140459D-01 -0.416947D-01  0.235469D-01
     36 -0.517519D-02  0.118676D-01 -0.946573D-02  0.358545D-01 -0.907915D-02
     37 -0.383476D-03 -0.120086D-02 -0.145165D-02 -0.381584D-02  0.195032D-02
     38 -0.116858D-02 -0.157611D-03 -0.947182D-05  0.527452D-03 -0.546189D-03
     39  0.345209D-02  0.696115D-03  0.199543D-02  0.115411D-01 -0.674134D-02
     40  0.502987D-02 -0.851200D-02 -0.244171D-02 -0.705800D-02 -0.496379D-03
     41 -0.211233D-01  0.464638D-03 -0.101550D-01 -0.393736D-02  0.160461D-01
     42  0.279104D-01 -0.261133D-02  0.144857D-01  0.300903D-01 -0.337815D-01
     43 -0.262464D-02 -0.582699D-02  0.619970D-03 -0.843919D-02  0.229797D-02
     44 -0.158544D-01  0.227443D-02 -0.989507D-02 -0.840674D-02  0.145898D-01
     45  0.104604D-01 -0.881925D-02  0.375000D-02  0.241803D-01 -0.178195D-01
     46 -0.160513D-02  0.140188D-03 -0.125179D-02 -0.342029D-02  0.279840D-02
     47  0.425032D-03 -0.306872D-03  0.669813D-03  0.261726D-02 -0.168414D-02
     48  0.346153D-02 -0.137846D-02  0.281612D-02  0.707355D-02 -0.627517D-02
               26            27            28            29            30
     26  0.298998D+01
     27  0.883810D-01  0.399870D+01
     28 -0.568191D-01  0.358629D-01  0.154656D+02
     29  0.467728D-02 -0.292060D-01  0.420720D+01  0.123055D+02
     30 -0.618565D-01 -0.155364D-01  0.545118D+00  0.433416D+01  0.112543D+02
     31 -0.580529D-02 -0.637750D-03 -0.382303D+01 -0.401654D+00 -0.130659D+01
     32  0.533180D-02  0.770044D-03 -0.414519D+00 -0.433493D+01  0.762624D+00
     33  0.990097D-02 -0.202458D-02 -0.128836D+01  0.733497D+00 -0.226295D+01
     34 -0.375819D-02  0.682175D-04 -0.856607D+01 -0.474737D+00  0.881301D+00
     35  0.380711D-01 -0.202658D-01 -0.398794D+00 -0.452040D+01 -0.508394D+01
     36 -0.260259D-01 -0.608703D-02  0.746494D+00 -0.483710D+01 -0.309813D+01
     37  0.374244D-02 -0.121978D-02  0.125703D+00  0.184983D-01 -0.907885D-02
     38 -0.446154D-03 -0.106903D-02 -0.484887D-01  0.168592D+00  0.603967D-01
     39 -0.912628D-02  0.248908D-02  0.100732D+00 -0.100047D+00  0.110301D+00
     40  0.134977D-01 -0.136567D-01 -0.782112D-01 -0.104052D+00 -0.359722D+00
     41 -0.195389D-02 -0.154705D-01 -0.105416D+00 -0.244460D+00  0.199959D+00
     42 -0.300512D-01  0.182391D-01 -0.330829D+00  0.184467D+00  0.264635D+00
     43  0.885979D-02 -0.837710D-02  0.589783D-01 -0.205116D-01 -0.164533D+00
     44  0.125672D-02 -0.815002D-02 -0.367553D-01 -0.130737D+00  0.377242D-01
     45 -0.139288D-01  0.324419D-02 -0.160707D+00  0.215317D-01 -0.655040D-03
     46  0.234306D-02 -0.139350D-02  0.794902D-02 -0.106665D-02 -0.161662D-01
     47 -0.173718D-02  0.150853D-03 -0.554297D-02 -0.694753D-02  0.730933D-02
     48 -0.411079D-02  0.165598D-02 -0.176554D-01  0.156729D-02  0.128007D-01
               31            32            33            34            35
     31  0.375669D+01
     32  0.414421D+00  0.433811D+01
     33  0.137028D+01 -0.938537D+00  0.192919D+01
     34  0.604521D-01 -0.478290D-01 -0.509627D-02  0.140972D+02
     35 -0.314479D-01 -0.465917D-01  0.189182D+00  0.292583D+01  0.103626D+02
     36 -0.567703D-01  0.244034D+00  0.523760D-02  0.192981D+01  0.321017D+01
     37 -0.881101D-02  0.166561D-02 -0.583225D-01 -0.584173D+01 -0.892885D+00
     38  0.420325D-02 -0.315395D-01 -0.455140D-02 -0.753269D+00 -0.669783D+01
     39 -0.612882D-01  0.256828D-02  0.145564D+00 -0.257472D+01  0.162443D+01
     40  0.366125D-02 -0.142672D-01 -0.355032D-01 -0.468405D-01 -0.352637D+00
     41 -0.129632D-01 -0.727132D-02  0.194145D-01 -0.343240D+00  0.370776D-01
     42 -0.306652D-01  0.196878D-01  0.387200D-01 -0.249486D+00  0.298035D+00
     43  0.906511D-02 -0.640058D-02 -0.248403D-01  0.318814D+00 -0.244520D+00
     44 -0.579346D-02 -0.869229D-02  0.634705D-02 -0.253082D+00 -0.133253D+00
     45 -0.217297D-01  0.637733D-02  0.156315D-01 -0.250761D+00  0.107651D+00
     46  0.243963D-02 -0.151124D-02 -0.462207D-02  0.222917D-01 -0.195016D-01
     47 -0.239712D-02  0.586897D-03  0.374311D-02 -0.247832D-01  0.380552D-02
     48 -0.509442D-02  0.262818D-02  0.718591D-02 -0.383238D-01  0.241997D-01
               36            37            38            39            40
     36  0.695630D+01
     37 -0.224318D+01  0.588997D+01
     38  0.119308D+01  0.103349D+01  0.664194D+01
     39 -0.304238D+01  0.248048D+01 -0.154237D+01  0.314067D+01
     40 -0.309421D+00 -0.168172D+00 -0.206174D+00 -0.519520D-01  0.630093D+01
     41  0.355518D+00 -0.186357D+00  0.116488D-01  0.914199D-01 -0.270535D+01
     42 -0.102844D+00 -0.121551D+00  0.192614D+00 -0.233335D+00  0.228046D+01
     43 -0.280122D+00  0.821677D-02  0.171003D-02  0.326193D-01  0.140220D+01
     44  0.124492D+00 -0.651299D-02 -0.410197D-01 -0.197133D-01  0.297409D+01
     45 -0.139047D+00 -0.209661D-02 -0.801230D-02 -0.491979D-01 -0.136393D+00
     46 -0.251964D-01  0.472770D-03 -0.185914D-02  0.259112D-02 -0.139812D+00
     47  0.196790D-01 -0.149617D-02 -0.241772D-02 -0.344601D-02 -0.257173D+00
     48  0.169844D-01 -0.474010D-04 -0.123227D-02 -0.805731D-02 -0.101268D+00
               41            42            43            44            45
     41  0.825094D+01
     42  0.303894D+01  0.562952D+01
     43  0.297173D+01 -0.311870D+00  0.355456D+01
     44 -0.319247D+01 -0.168519D+00 -0.235689D+01  0.930937D+01
     45 -0.130713D+00 -0.510495D+01  0.298581D+01 -0.107073D+01  0.829171D+01
     46 -0.208984D+00 -0.250595D-01 -0.506869D+01 -0.790506D+00 -0.183888D+01
     47  0.567338D-01  0.120075D+00 -0.690023D+00 -0.559937D+01  0.146657D+01
     48  0.947609D-01  0.221764D+00 -0.173364D+01  0.155448D+01 -0.331756D+01
               46            47            48
     46  0.516618D+01
     47  0.990337D+00  0.559889D+01
     48  0.202090D+01 -0.161718D+01  0.293766D+01
 ReadGW:  IGet=0 IStart=         114 Next=        7255 LGW=        7141.
 ICntrl=12127.
 Symmetry not used in FoFDir.
 MinBra= 0 MaxBra= 2 Meth= 1.
 IRaf=       0 NMat=   1 IRICut=       1 DoRegI=T DoRafI=F ISym2E= 0 JSym2E=0.
 PrsmSu:  NPrtUS=   8 ThrOK=T
 PRISM was handed    16288024 working-precision words and  2442 shell-pairs
 PRISM was handed    16288024 working-precision words and  2442 shell-pairs
 PRISM was handed    16288024 working-precision words and  2442 shell-pairs
 PRISM was handed    16288024 working-precision words and  2442 shell-pairs
 PRISM was handed    16288024 working-precision words and  2442 shell-pairs
 PRISM was handed    16288024 working-precision words and  2442 shell-pairs
 PRISM was handed    16288024 working-precision words and  2442 shell-pairs
 PRISM was handed    16288024 working-precision words and  2442 shell-pairs
 Pruned (  75, 302) grid will be used in CalDFT.
 CkSvGd:  ISavGI=        -1 IRadAn=       4 IRASav=       4 ISavGd=        -1.
 CalDSu:  NPrtUS=   8 ThrOK=T
 IPart= 0 IRanGd=          0 ScrnBf=T ScrnGd=T RCrit=4.00D+00 DoMicB=T.
 IPart= 5 IRanGd=          0 ScrnBf=T ScrnGd=T RCrit=4.00D+00 DoMicB=T.
 IPart= 1 IRanGd=          0 ScrnBf=T ScrnGd=T RCrit=4.00D+00 DoMicB=T.
 CutRad = 1000.00    CtRdIn =    0.00    XCrit =  15.00   ICut = 0
 CutRad = 1000.00    CtRdIn =    0.00    XCrit =  15.00   ICut = 0
 IPart= 4 IRanGd=          0 ScrnBf=T ScrnGd=T RCrit=4.00D+00 DoMicB=T.
 CutRad = 1000.00    CtRdIn =    0.00    XCrit =  15.00   ICut = 0
 CutRad = 1000.00    CtRdIn =    0.00    XCrit =  15.00   ICut = 0
 IPart= 3 IRanGd=          0 ScrnBf=T ScrnGd=T RCrit=4.00D+00 DoMicB=T.
 CutRad = 1000.00    CtRdIn =    0.00    XCrit =  15.00   ICut = 0
 IPart= 2 IRanGd=          0 ScrnBf=T ScrnGd=T RCrit=4.00D+00 DoMicB=T.
 CutRad = 1000.00    CtRdIn =    0.00    XCrit =  15.00   ICut = 0
 IPart= 7 IRanGd=          0 ScrnBf=T ScrnGd=T RCrit=4.00D+00 DoMicB=T.
 IPart= 6 IRanGd=          0 ScrnBf=T ScrnGd=T RCrit=4.00D+00 DoMicB=T.
 CutRad = 1000.00    CtRdIn =    0.00    XCrit =  15.00   ICut = 0
 CutRad = 1000.00    CtRdIn =    0.00    XCrit =  15.00   ICut = 0
 IPart= 3        15297 of        18100 points in      39 batches and      118 microbatches, Max-NSigAt=      16 Max-NSgAt2=      16
 IPart= 5        15627 of        18140 points in      40 batches and      113 microbatches, Max-NSigAt=      16 Max-NSgAt2=      16
 IPart= 1        12889 of        14780 points in      31 batches and       88 microbatches, Max-NSigAt=      16 Max-NSgAt2=      16
 IPart= 2        13721 of        15498 points in      32 batches and      110 microbatches, Max-NSigAt=      16 Max-NSgAt2=      16
 IPart= 6        13668 of        15774 points in      32 batches and       89 microbatches, Max-NSigAt=      16 Max-NSgAt2=      16
 IPart= 7        13676 of        15340 points in      30 batches and       85 microbatches, Max-NSigAt=      16 Max-NSgAt2=      16
 IPart= 4        13499 of        14886 points in      30 batches and       97 microbatches, Max-NSigAt=      16 Max-NSgAt2=      16
 IPart= 0        14085 of        15564 points in      30 batches and       87 microbatches, Max-NSigAt=      16 Max-NSgAt2=      16
 Polarizability after L703:
                1             2             3
      1  0.581359D+02
      2 -0.228167D+01  0.567032D+02
      3 -0.703823D+01 -0.446533D+01  0.628571D+02
 Dipole Derivatives after L703:
               1            2            3            4            5
      1 0.278696D+00-0.224332D-01-0.140718D+00-0.394286D-01-0.582096D-01
      2-0.100607D-01 0.364077D+00-0.130689D+00-0.107576D+00 0.259493D-01
      3-0.259218D-01-0.458128D-01 0.651428D+00-0.470943D-01 0.568763D-02
               6            7            8            9           10
      1 0.199330D-01-0.736823D-01 0.800314D-01 0.424389D-01 0.168435D+00
      2 0.241970D-01 0.165614D+00-0.581348D-01 0.164438D-01 0.913648D-01
      3-0.111379D-01 0.717686D-03-0.329564D-02-0.163273D-01-0.155523D-01
              11           12           13           14           15
      1-0.101321D-01 0.593876D-01-0.161964D+00-0.685040D-01-0.327786D-03
      2 0.409593D-01 0.325617D-01-0.358612D-01-0.471301D-01 0.111960D-01
      3-0.324527D-01-0.534559D-01-0.289733D-01 0.111552D-01 0.156669D-01
              16           17           18           19           20
      1 0.130181D+00 0.246101D-01 0.199010D-01-0.792683D-01 0.929570D-01
      2 0.364442D-01 0.854422D-01 0.189250D-01 0.122368D+00-0.318099D-01
      3-0.103082D-01-0.573635D-02 0.501171D-01-0.240488D-01 0.449722D-01
              21           22           23           24           25
      1 0.183855D-01 0.707587D-01-0.395982D-04 0.209640D-01-0.780143D-01
      2 0.735583D-02-0.242862D-03-0.266356D-02-0.544940D-01-0.127133D+00
      3 0.506915D-01 0.256657D-01-0.106156D+00-0.111903D+00 0.159169D-01
              26           27           28           29           30
      1-0.780898D-01-0.442788D-01-0.746869D-02-0.283564D+00-0.379217D-01
      2-0.364946D-02-0.225075D-01-0.237889D+00 0.355971D+00-0.395581D+00
      3 0.195305D-01 0.457803D-01-0.231059D-01-0.322272D+00 0.498504D+00
              31           32           33           34           35
      1 0.789709D-01 0.112181D+00 0.880302D-01-0.410397D+00 0.210951D+00
      2 0.722996D-01 0.871604D-02-0.321722D-01 0.621357D-01-0.722133D+00
      3 0.307921D-01-0.643796D-01-0.927358D-01 0.195631D-01 0.368772D+00
              36           37           38           39           40
      1-0.993777D-01 0.339063D+00-0.952487D-01-0.332421D-01-0.140397D+00
      2 0.424654D+00-0.421473D-01 0.330274D+00-0.303780D-02 0.141280D+00
      3-0.794494D+00-0.383466D-01 0.248429D-01 0.372852D+00 0.307287D-01
              41           42           43           44           45
      1 0.109533D+00 0.512900D-01-0.358645D+00-0.636259D-03 0.387437D-01
      2-0.337893D+00 0.227866D-01-0.105376D+00-0.253469D+00 0.175394D+00
      3 0.111504D-01-0.613754D+00 0.104233D+00 0.183936D+00-0.255708D+00
              46           47           48
      1 0.283161D+00-0.134055D-01-0.320786D-02
      2-0.252205D-01 0.245493D+00-0.950318D-01
      3-0.142665D-01-0.899424D-01 0.264476D+00
 Hessian after L703:
                1             2             3             4             5
      1  0.632541D+00
      2 -0.113224D-01  0.502639D+00
      3  0.439462D-01  0.260371D-01  0.411079D+00
      4 -0.233150D+00 -0.107001D+00 -0.414083D-01  0.249795D+00
      5 -0.101574D+00 -0.110601D+00 -0.228991D-01  0.121534D+00  0.122462D+00
      6 -0.495211D-01 -0.252198D-01 -0.572628D-01  0.410451D-01  0.219836D-01
      7 -0.208294D+00  0.125174D+00 -0.912242D-02 -0.169514D-01  0.161265D-01
      8  0.118893D+00 -0.144826D+00 -0.115383D-02 -0.115213D-01  0.122981D-01
      9 -0.219173D-02  0.677217D-03 -0.474363D-01 -0.423426D-02  0.279979D-02
     10 -0.781417D-01  0.267166D-02 -0.351666D-02  0.237017D-02 -0.151684D-01
     11  0.471539D-02 -0.117775D+00 -0.494605D-01  0.164644D-02 -0.930461D-02
     12  0.377647D-02 -0.461066D-01 -0.119723D+00  0.565614D-03 -0.524372D-02
     13  0.100206D-02 -0.811266D-03 -0.788160D-03  0.765717D-03  0.314863D-03
     14 -0.178438D-01 -0.128287D-01 -0.355682D-02  0.482872D-03 -0.119280D-02
     15 -0.247247D-01 -0.198790D-01 -0.708897D-02  0.404161D-03 -0.295070D-02
     16 -0.104508D-02 -0.186127D-02  0.149417D-02  0.187441D-03  0.245389D-03
     17  0.437712D-03  0.123400D-01 -0.478169D-02  0.123085D-03  0.308481D-03
     18  0.274326D-02  0.172663D-01 -0.292662D-01 -0.274481D-03  0.530508D-03
     19 -0.242419D-03  0.282448D-03  0.529299D-03 -0.764187D-04  0.902825D-04
     20  0.294397D-03  0.114319D-03 -0.137392D-02 -0.781714D-04  0.384994D-04
     21 -0.186061D-02  0.139085D-02  0.617206D-03  0.247206D-04 -0.593467D-04
     22 -0.320588D-03 -0.390449D-03  0.405577D-03  0.150117D-03  0.204439D-03
     23  0.394689D-03 -0.310476D-02  0.126837D-02  0.174813D-03  0.708183D-04
     24  0.177012D-03  0.520027D-02 -0.562012D-03 -0.160523D-03  0.130513D-04
     25 -0.228839D-03 -0.215970D-03 -0.585784D-03  0.170490D-03  0.100621D-03
     26  0.197742D-03  0.265782D-03 -0.142919D-02  0.818972D-04  0.502764D-03
     27  0.167311D-02  0.108198D-02  0.158060D-02 -0.443804D-03 -0.284381D-03
     28 -0.804212D-02  0.993815D-02  0.104657D-01  0.111478D-02 -0.883009D-03
     29  0.171202D-01 -0.134923D-01 -0.117725D-01  0.111401D-02  0.954598D-03
     30  0.280435D-01 -0.245991D-01  0.588505D-02 -0.240579D-03  0.999017D-03
     31 -0.320452D-02  0.130936D-02 -0.291384D-02  0.102545D-03  0.763244D-04
     32  0.375388D-02 -0.253608D-02  0.104052D-02 -0.605533D-04  0.993557D-04
     33 -0.125544D-03  0.631973D-03  0.244927D-03  0.566905D-05  0.735218D-04
     34  0.776271D-04 -0.298566D-02  0.153451D-02  0.303784D-04  0.456734D-03
     35 -0.132386D-02  0.175147D-02  0.291798D-02 -0.547098D-03 -0.216612D-03
     36 -0.513253D-03  0.358426D-02 -0.861209D-02  0.693165D-03 -0.158770D-03
     37  0.214574D-02  0.418257D-02 -0.413058D-02 -0.135032D-03 -0.678814D-03
     38  0.979857D-03 -0.622220D-02  0.565639D-02 -0.123303D-03 -0.286879D-03
     39 -0.282300D-02  0.103540D-02  0.505311D-02 -0.834335D-04  0.369366D-04
     40 -0.771358D-01 -0.125481D-02  0.256086D-02 -0.784240D-02 -0.206140D-01
     41  0.204339D-01 -0.871712D-01  0.607427D-01 -0.538409D-02 -0.128059D-01
     42 -0.359375D-01  0.456488D-01 -0.159914D+00  0.270288D-02  0.216712D-02
     43 -0.215856D-01 -0.174240D-01  0.216236D-02  0.327574D-02 -0.349530D-04
     44 -0.298489D-01 -0.195414D-01 -0.723826D-03 -0.386184D-03 -0.149062D-02
     45  0.366366D-01  0.127816D-01  0.848869D-02  0.154331D-02  0.303297D-02
     46 -0.437499D-02 -0.290558D-03 -0.633004D-03  0.192843D-03 -0.195862D-03
     47 -0.530783D-02  0.987990D-03 -0.511687D-03 -0.545294D-04 -0.835753D-03
     48  0.701142D-03  0.468832D-03 -0.308286D-02 -0.139238D-03 -0.404437D-04
                6             7             8             9            10
      6  0.670839D-01
      7 -0.104375D-02  0.216777D+00
      8 -0.186572D-02 -0.136113D+00  0.159410D+00
      9  0.554999D-03  0.911541D-02 -0.111580D-01  0.614183D-01
     10 -0.225392D-01 -0.117883D-02  0.160658D-01  0.210736D-01  0.505134D+00
     11 -0.149872D-01 -0.352191D-04 -0.104966D-01 -0.163755D-01  0.242548D-01
     12 -0.552146D-02 -0.159381D-02 -0.663106D-04  0.162040D-02 -0.172212D-02
     13  0.102718D-02  0.607957D-03 -0.280981D-03 -0.723353D-03 -0.205825D+00
     14 -0.324137D-02  0.200181D-04  0.231699D-03  0.422428D-03 -0.969956D-01
     15 -0.475741D-02  0.390624D-03  0.733341D-03  0.826697D-03 -0.165909D-01
     16 -0.844465D-03  0.489726D-04 -0.122687D-03  0.731106D-03 -0.779481D-01
     17 -0.722773D-03  0.992604D-04  0.492356D-03 -0.960201D-03 -0.547922D-02
     18  0.174197D-02 -0.178906D-03  0.115565D-02  0.167855D-02  0.915176D-02
     19  0.648941D-04  0.374240D-03 -0.261275D-03 -0.442681D-03  0.292055D-02
     20 -0.301221D-05 -0.268138D-03  0.668113D-03  0.450255D-03  0.164375D-01
     21 -0.568950D-05  0.581879D-03 -0.450448D-03 -0.421650D-03 -0.226140D-01
     22  0.310020D-03  0.136251D-03 -0.326340D-03 -0.257113D-03 -0.130117D-02
     23  0.159373D-03 -0.305777D-03  0.276500D-04  0.142491D-03 -0.881365D-03
     24  0.167671D-03  0.133372D-03 -0.134574D-05  0.233475D-03  0.782022D-03
     25  0.637956D-03 -0.118765D-03 -0.372626D-04 -0.479615D-05 -0.127053D-02
     26  0.610212D-03  0.770484D-04  0.511921D-04  0.113425D-03 -0.169040D-01
     27 -0.422545D-03 -0.202201D-04 -0.910037D-04 -0.262602D-04  0.229221D-01
     28 -0.713326D-03  0.236407D-03 -0.279823D-03 -0.276664D-03 -0.146472D+00
     29  0.185708D-02  0.350609D-03  0.132483D-03 -0.950170D-03  0.799061D-01
     30  0.140747D-02  0.127213D-02 -0.389327D-02 -0.617544D-02  0.145921D-01
     31  0.697912D-04  0.395838D-03  0.661511D-03  0.101977D-02 -0.521639D-02
     32  0.906901D-04  0.531272D-03 -0.776944D-03 -0.132116D-02  0.955784D-03
     33  0.265734D-04  0.225799D-03 -0.807717D-04  0.220278D-03 -0.535309D-02
     34  0.475030D-04 -0.875961D-04 -0.375682D-04 -0.426149D-03  0.296060D-02
     35 -0.280179D-03  0.149005D-03 -0.120398D-03 -0.129397D-03 -0.479826D-02
     36  0.216175D-03 -0.480998D-03  0.421151D-03  0.165697D-02 -0.162164D-02
     37  0.185171D-03 -0.391948D-04 -0.369858D-03  0.816211D-03  0.154587D-02
     38 -0.171942D-03 -0.349453D-03  0.365407D-03 -0.839409D-03  0.672044D-03
     39 -0.252584D-03  0.140926D-03  0.213170D-03 -0.121868D-02 -0.128252D-02
     40  0.258526D-01  0.352017D-02  0.123596D-01 -0.237462D-01  0.152417D-02
     41  0.147420D-01 -0.486343D-02 -0.200672D-01  0.302254D-01 -0.293029D-02
     42  0.177612D-02  0.622729D-03  0.179939D-01 -0.145049D-01  0.641861D-02
     43  0.488540D-02  0.402651D-02  0.111663D-02 -0.389426D-03  0.139706D-02
     44  0.610835D-02 -0.125744D-02  0.330723D-02 -0.347737D-02  0.249943D-02
     45 -0.513658D-02 -0.648687D-03 -0.220814D-02  0.192224D-02  0.918375D-03
     46  0.536251D-03  0.547010D-03  0.254396D-03 -0.637364D-04 -0.499256D-03
     47  0.940756D-03  0.665591D-03 -0.697755D-03  0.380204D-03 -0.306120D-03
     48  0.384152D-03  0.605919D-03  0.451612D-03 -0.348773D-03 -0.618470D-03
               11            12            13            14            15
     11  0.489492D+00
     12 -0.159234D-01  0.458601D+00
     13 -0.110071D+00 -0.185311D-01  0.232251D+00
     14 -0.111769D+00 -0.111664D-01  0.113364D+00  0.126220D+00
     15 -0.100068D-01 -0.470825D-01  0.177315D-01  0.125773D-01  0.560785D-01
     16 -0.431340D-02  0.798840D-02 -0.471559D-03 -0.165553D-01  0.227367D-01
     17 -0.116042D+00  0.470294D-01 -0.873602D-03 -0.122222D-01  0.164196D-01
     18  0.486256D-01 -0.138647D+00  0.217717D-03 -0.158153D-03  0.305435D-03
     19 -0.303043D-02  0.359454D-04  0.628389D-03  0.844829D-04 -0.430990D-03
     20 -0.124740D-01  0.427732D-03 -0.280948D-03  0.967922D-04 -0.597563D-03
     21  0.153179D-01 -0.191064D-02  0.262345D-03 -0.684759D-03  0.108055D-02
     22  0.146698D-02  0.247370D-02 -0.103707D-03  0.405534D-03  0.215998D-03
     23  0.116743D-01  0.195220D-01  0.178870D-03  0.110701D-02 -0.877358D-03
     24 -0.138277D-01 -0.230521D-01  0.310732D-03 -0.156397D-03  0.103445D-02
     25 -0.112770D-02  0.110610D-02  0.976120D-03 -0.790945D-04  0.636392D-03
     26 -0.122607D-01 -0.675960D-03  0.611835D-03 -0.170244D-02  0.354468D-02
     27  0.152026D-01  0.107311D-02 -0.139239D-04  0.342741D-02 -0.407036D-02
     28  0.581465D-01  0.991975D-02 -0.327740D-01  0.193512D-01 -0.678872D-03
     29 -0.110257D+00  0.289302D-02 -0.662274D-02  0.118797D-01  0.454833D-03
     30  0.400441D-02 -0.834483D-01  0.226989D-02  0.111262D-02  0.160783D-02
     31  0.998563D-02  0.195405D-01  0.248657D-03 -0.711884D-03 -0.303379D-03
     32 -0.151989D-02 -0.124709D-01  0.727958D-03 -0.495133D-03 -0.278275D-03
     33  0.255433D-02  0.310897D-02  0.975022D-04 -0.226987D-03 -0.125637D-03
     34  0.216236D-01 -0.244861D-01  0.459679D-02 -0.269368D-02  0.459230D-03
     35 -0.123885D-01  0.235463D-01  0.375695D-02 -0.577050D-03 -0.294556D-03
     36  0.705686D-02 -0.734458D-02 -0.285235D-02 -0.311305D-03  0.108886D-03
     37 -0.213045D-02 -0.203611D-02 -0.146734D-02  0.533781D-03 -0.489766D-03
     38  0.477271D-03  0.107626D-02  0.114730D-03 -0.893018D-05 -0.187100D-05
     39 -0.794555D-03  0.231172D-02 -0.213938D-03  0.139164D-03 -0.736224D-04
     40 -0.241620D-02  0.365517D-02 -0.417415D-03 -0.152818D-03 -0.769296D-03
     41  0.112221D-01 -0.143233D-02 -0.398657D-03  0.622017D-03  0.471447D-03
     42  0.298392D-01 -0.397700D-01 -0.551885D-03  0.827070D-03  0.274987D-02
     43  0.134737D-02  0.695431D-04 -0.275690D-03  0.650966D-03  0.113464D-02
     44  0.217877D-02 -0.136016D-02 -0.740641D-05  0.547753D-03  0.782415D-03
     45 -0.896616D-03 -0.199590D-03  0.139831D-02  0.691143D-03 -0.810895D-03
     46 -0.619360D-04 -0.762034D-03  0.257295D-03  0.139039D-03  0.278595D-03
     47 -0.758395D-03 -0.487759D-04  0.277639D-03  0.908547D-04 -0.973579D-04
     48 -0.328564D-03 -0.157925D-04  0.359526D-03  0.305115D-03  0.217185D-03
               16            17            18            19            20
     16  0.565007D+00
     17 -0.104221D-01  0.524612D+00
     18  0.605328D-02  0.537028D-01  0.499774D+00
     19 -0.214979D+00  0.124610D+00 -0.110812D-01  0.231146D+00
     20  0.123572D+00 -0.139040D+00  0.837378D-02 -0.137335D+00  0.150199D+00
     21 -0.992723D-02  0.769301D-02 -0.472386D-01  0.113405D-01 -0.116065D-01
     22 -0.471427D-01  0.661093D-02  0.100328D-01 -0.933365D-03  0.139710D-01
     23  0.667402D-02 -0.123260D+00 -0.121378D+00 -0.137410D-03 -0.106921D-01
     24  0.102545D-01 -0.119816D+00 -0.231256D+00  0.436921D-03  0.136152D-02
     25 -0.222501D+00 -0.119348D+00 -0.138388D-01 -0.200275D-01 -0.147754D-01
     26 -0.118310D+00 -0.128579D+00 -0.101529D-01  0.162710D-01  0.126045D-01
     27 -0.143442D-01 -0.103747D-01 -0.486988D-01 -0.609025D-03 -0.818486D-03
     28  0.263396D-02  0.976201D-03 -0.534742D-02  0.392451D-03 -0.228185D-02
     29  0.146511D-01 -0.164154D-01  0.844445D-02 -0.333389D-03 -0.699886D-03
     30 -0.231131D-01  0.205889D-01 -0.523843D-02  0.309096D-03  0.349321D-02
     31  0.891225D-03 -0.817099D-03  0.100724D-02 -0.752674D-04 -0.244436D-03
     32  0.667629D-04  0.706708D-03 -0.157849D-02 -0.371025D-03  0.621531D-04
     33 -0.220619D-03  0.224618D-03  0.910934D-03  0.216285D-04 -0.123466D-03
     34 -0.423719D-02  0.324604D-02  0.176996D-02  0.659027D-03  0.129877D-02
     35  0.595348D-02 -0.235324D-02 -0.245823D-02  0.349004D-03 -0.100122D-02
     36 -0.288816D-02  0.126690D-02  0.245483D-02 -0.676857D-04  0.804157D-03
     37 -0.767674D-03  0.539087D-03  0.194657D-03 -0.128925D-03  0.165143D-03
     38  0.143518D-03 -0.689546D-03 -0.530518D-03  0.112449D-03 -0.875244D-04
     39  0.113275D-02 -0.958820D-03 -0.925411D-03  0.146520D-03 -0.419933D-03
     40 -0.379367D-04  0.371005D-03 -0.674872D-04  0.369473D-03 -0.447492D-03
     41  0.241221D-03  0.128422D-03 -0.146791D-02 -0.353349D-03  0.228227D-03
     42  0.640696D-03 -0.983967D-02 -0.619423D-02 -0.221290D-03  0.205338D-04
     43  0.166445D-03  0.967795D-04 -0.486187D-03  0.512168D-05 -0.703179D-04
     44 -0.280095D-04 -0.162960D-03 -0.600688D-03  0.000000D+00  0.111279D-04
     45  0.714863D-04  0.253831D-03  0.427749D-03 -0.861654D-05 -0.133733D-04
[...]
    Z8        6.51586   0.00000   0.00000   0.00000   0.00001   6.51587
    X9       -3.71228   0.00000   0.00000   0.00013   0.00010  -3.71218
    Y9       -0.71690   0.00000   0.00000  -0.00025  -0.00019  -0.71709
    Z9        4.65953   0.00000   0.00000  -0.00013  -0.00010   4.65942
   X10       -4.05003   0.00000   0.00000   0.00001   0.00010  -4.04993
   Y10        3.97625   0.00000   0.00000   0.00000   0.00008   3.97633
   Z10        2.36196   0.00000   0.00000  -0.00006  -0.00004   2.36192
   X11       -4.90710  -0.00001   0.00000  -0.00063  -0.00050  -4.90760
   Y11        4.65326   0.00000   0.00000  -0.00051  -0.00041   4.65284
   Z11        4.09643   0.00000   0.00000  -0.00018  -0.00014   4.09628
   X12       -4.26584  -0.00001   0.00000   0.00027   0.00039  -4.26545
   Y12        5.67928   0.00000   0.00000   0.00030   0.00038   5.67966
   Z12        0.43420  -0.00001   0.00000   0.00016   0.00019   0.43439
   X13       -3.34420   0.00000   0.00000   0.00022   0.00030  -3.34390
   Y13        5.02260   0.00000   0.00000   0.00035   0.00040   5.02299
   Z13       -1.00670   0.00000   0.00000   0.00011   0.00013  -1.00656
   X14       -1.28918   0.00000   0.00000  -0.00009  -0.00011  -1.28928
   Y14        2.15996   0.00000   0.00000  -0.00009  -0.00010   2.15985
   Z14       -2.19125   0.00000   0.00000   0.00001   0.00000  -2.19125
   X15        1.21979   0.00000   0.00000  -0.00006  -0.00004   1.21975
   Y15        3.29412   0.00000   0.00000  -0.00012  -0.00021   3.29391
   Z15       -2.12754   0.00000   0.00000  -0.00017  -0.00020  -2.12774
   X16        1.95310   0.00000   0.00000  -0.00030  -0.00032   1.95278
   Y16        2.50696   0.00000   0.00000   0.00011   0.00000   2.50696
   Z16       -3.60546   0.00000   0.00000  -0.00040  -0.00044  -3.60590
         Item               Value     Threshold  Converged?
 Maximum Force            0.000007     0.000450     YES
 RMS     Force            0.000002     0.000300     YES
 Maximum Displacement     0.000502     0.001800     YES
 RMS     Displacement     0.000198     0.001200     YES
 Predicted change in Energy=-6.525393D-10
 Optimization completed.
    -- Stationary point found.
 GradGradGradGradGradGradGradGradGradGradGradGradGradGradGradGradGradGrad


 Test job not archived.
 1\1\GINC-NODE49\Freq\UB3LYP\CBSB7\C4H9O3(2)\SHAMEL\14-Aug-2013\0\\# fr
 eq nosymm b3lyp/cbsb7 iop(7/33=1)\\Title Card Required\\0,2\C,-0.82933
 7,0.342726,0.025471\H,-1.751372,-0.213717,-0.173825\H,0.012041,-0.3554
 3,0.08609\C,-0.964898,1.175334,1.308488\H,-0.032098,1.758373,1.39578\C
 ,-1.065959,0.242359,2.522744\H,-0.195554,-0.415368,2.591731\H,-1.12027
 2,0.820591,3.448047\H,-1.964456,-0.379368,2.465715\C,-2.143181,2.10414
 1,1.249893\H,-2.596725,2.462399,2.167736\O,-2.257387,3.005346,0.229767
 \H,-1.769676,2.657844,-0.532721\O,-0.682203,1.143001,-1.15956\O,0.6454
 85,1.743175,-1.125845\H,1.033538,1.326627,-1.907927\\Version=AM64L-G03
 RevD.01\HF=-383.4686264\S2=0.753352\S2-1=0.\S2A=0.750008\RMSD=5.604e-0
 9\RMSF=2.469e-06\ZeroPoint=0.1316599\Thermal=0.1403929\Dipole=0.779342
 3,-1.0019945,-0.1819985\DipoleDeriv=0.2786959,-0.0100607,-0.0259218,-0
 .0224332,0.3640768,-0.0458128,-0.1407179,-0.1306888,0.6514285,-0.03942
 86,-0.1075756,-0.0470943,-0.0582096,0.0259493,0.0056876,0.019933,0.024
 197,-0.0111379,-0.0736823,0.1656137,0.0007177,0.0800314,-0.0581348,-0.
 0032956,0.0424389,0.0164438,-0.0163273,0.1684355,0.0913648,-0.0155523,
 -0.0101321,0.0409593,-0.0324527,0.0593876,0.0325617,-0.0534559,-0.1619
 642,-0.0358612,-0.0289733,-0.068504,-0.0471301,0.0111552,-0.0003278,0.
 011196,0.0156669,0.1301809,0.0364442,-0.0103082,0.0246101,0.0854422,-0
 .0057363,0.019901,0.018925,0.0501171,-0.0792683,0.1223683,-0.0240488,0
 .092957,-0.0318099,0.0449722,0.0183855,0.0073558,0.0506915,0.0707587,-
 0.0002429,0.0256657,-0.0000396,-0.0026636,-0.1061563,0.020964,-0.05449
 4,-0.1119027,-0.0780143,-0.1271333,0.0159169,-0.0780898,-0.0036495,0.0
 195305,-0.0442788,-0.0225075,0.0457803,-0.0074687,-0.2378893,-0.023105
 9,-0.2835643,0.3559712,-0.3222716,-0.0379217,-0.3955814,0.4985036,0.07
 89709,0.0722996,0.0307921,0.1121806,0.008716,-0.0643796,0.0880302,-0.0
 321722,-0.0927358,-0.4103968,0.0621357,0.0195631,0.2109511,-0.7221327,
 0.3687723,-0.0993777,0.424654,-0.7944941,0.3390627,-0.0421473,-0.03834
 66,-0.0952487,0.3302743,0.0248429,-0.0332421,-0.0030378,0.3728518,-0.1
 403973,0.1412804,0.0307287,0.1095327,-0.3378933,0.0111504,0.05129,0.02
 27866,-0.6137544,-0.3586453,-0.1053758,0.1042334,-0.0006363,-0.2534685
 ,0.1839364,0.0387437,0.1753936,-0.2557076,0.2831612,-0.0252205,-0.0142
 665,-0.0134055,0.2454933,-0.0899424,-0.0032079,-0.0950318,0.264476\Pol
 ar=58.1359295,-2.2816663,56.7031742,-7.0382315,-4.4653315,62.8571256\P
 G=C01 [X(C4H9O3)]\NImag=0\\0.63254089,-0.01132239,0.50263937,0.0439462
 3,0.02603712,0.41107937,-0.23315011,-0.10700137,-0.04140825,0.24979510
 ,-0.10157358,-0.11060144,-0.02289912,0.12153352,0.12246196,-0.04952106
 ,-0.02521981,-0.05726279,0.04104505,0.02198356,0.06708393,-0.20829450,
 0.12517359,-0.00912242,-0.01695135,0.01612646,-0.00104375,0.21677688,0
 .11889259,-0.14482560,-0.00115383,-0.01152134,0.01229813,-0.00186572,-
 0.13611340,0.15941023,-0.00219173,0.00067722,-0.04743628,-0.00423426,0
 .00279979,0.00055500,0.00911541,-0.01115795,0.06141834,-0.07814169,0.0
 0267166,-0.00351666,0.00237017,-0.01516836,-0.02253917,-0.00117883,0.0
 1606580,0.02107362,0.50513395,0.00471539,-0.11777521,-0.04946045,0.001
 64644,-0.00930461,-0.01498720,-0.00003522,-0.01049657,-0.01637553,0.02
 425483,0.48949216,0.00377647,-0.04610663,-0.11972343,0.00056561,-0.005
 24372,-0.00552146,-0.00159381,-0.00006631,0.00162040,-0.00172212,-0.01
 592344,0.45860142,0.00100206,-0.00081127,-0.00078816,0.00076572,0.0003
 1486,0.00102718,0.00060796,-0.00028098,-0.00072335,-0.20582465,-0.1100
 7138,-0.01853108,0.23225141,-0.01784379,-0.01282873,-0.00355682,0.0004
 8287,-0.00119280,-0.00324137,0.00002002,0.00023170,0.00042243,-0.09699
 555,-0.11176852,-0.01116643,0.11336413,0.12622000,-0.02472467,-0.01987
 904,-0.00708897,0.00040416,-0.00295070,-0.00475741,0.00039062,0.000733
 34,0.00082670,-0.01659088,-0.01000683,-0.04708253,0.01773148,0.0125772
 7,0.05607851,-0.00104508,-0.00186127,0.00149417,0.00018744,0.00024539,
 -0.00084446,0.00004897,-0.00012269,0.00073111,-0.07794805,-0.00431340,
 0.00798840,-0.00047156,-0.01655526,0.02273673,0.56500729,0.00043771,0.
 01234002,-0.00478169,0.00012309,0.00030848,-0.00072277,0.00009926,0.00
 049236,-0.00096020,-0.00547922,-0.11604152,0.04702941,-0.00087360,-0.0
 1222224,0.01641956,-0.01042208,0.52461236,0.00274326,0.01726634,-0.029
 26618,-0.00027448,0.00053051,0.00174197,-0.00017891,0.00115565,0.00167
 855,0.00915176,0.04862560,-0.13864719,0.00021772,-0.00015815,0.0003054
 3,0.00605328,0.05370281,0.49977372,-0.00024242,0.00028245,0.00052930,-
 0.00007642,0.00009028,0.00006489,0.00037424,-0.00026128,-0.00044268,0.
 00292055,-0.00303043,0.00003595,0.00062839,0.00008448,-0.00043099,-0.2
 1497905,0.12461008,-0.01108116,0.23114606,0.00029440,0.00011432,-0.001
 37392,-0.00007817,0.00003850,-0.00000301,-0.00026814,0.00066811,0.0004
 5025,0.01643748,-0.01247399,0.00042773,-0.00028095,0.00009679,-0.00059
 756,0.12357191,-0.13903977,0.00837378,-0.13733500,0.15019869,-0.001860
 61,0.00139085,0.00061721,0.00002472,-0.00005935,-0.00000569,0.00058188
 ,-0.00045045,-0.00042165,-0.02261405,0.01531789,-0.00191064,0.00026234
 ,-0.00068476,0.00108055,-0.00992723,0.00769301,-0.04723864,0.01134054,
 -0.01160652,0.05074338,-0.00032059,-0.00039045,0.00040558,0.00015012,0
 .00020444,0.00031002,0.00013625,-0.00032634,-0.00025711,-0.00130117,0.
 00146698,0.00247370,-0.00010371,0.00040553,0.00021600,-0.04714266,0.00
 661093,0.01003284,-0.00093336,0.01397104,0.02292314,0.04678903,0.00039
 469,-0.00310476,0.00126837,0.00017481,0.00007082,0.00015937,-0.0003057
 8,0.00002765,0.00014249,-0.00088136,0.01167433,0.01952197,0.00017887,0
 .00110701,-0.00087736,0.00667402,-0.12325954,-0.12137795,-0.00013741,-
 0.01069209,-0.01556940,-0.00731000,0.13302211,0.00017701,0.00520027,-0
 .00056201,-0.00016052,0.00001305,0.00016767,0.00013337,-0.00000135,0.0
 0023348,0.00078202,-0.01382770,-0.02305213,0.00031073,-0.00015640,0.00
 103445,0.01025452,-0.11981575,-0.23125562,0.00043692,0.00136152,0.0023
 4598,-0.01210765,0.12898803,0.25351685,-0.00022884,-0.00021597,-0.0005
 8578,0.00017049,0.00010062,0.00063796,-0.00011877,-0.00003726,-0.00000
 480,-0.00127053,-0.00112770,0.00110610,0.00097612,-0.00007909,0.000636
 39,-0.22250097,-0.11934845,-0.01383878,-0.02002747,-0.01477543,-0.0020
 4112,0.00195037,0.00180511,-0.00039074,0.24011889,0.00019774,0.0002657
 8,-0.00142919,0.00008190,0.00050276,0.00061021,0.00007705,0.00005119,0
 .00011342,-0.01690400,-0.01226068,-0.00067596,0.00061184,-0.00170244,0
 .00354468,-0.11830998,-0.12857948,-0.01015291,0.01627102,0.01260450,0.
 00133125,-0.01466400,-0.01013390,-0.00070717,0.13296698,0.13855898,0.0
 0167311,0.00108198,0.00158060,-0.00044380,-0.00028438,-0.00042254,-0.0
 0002022,-0.00009100,-0.00002626,0.02292206,0.01520256,0.00107311,-0.00
 001392,0.00342741,-0.00407036,-0.01434417,-0.01037470,-0.04869885,-0.0
 0060902,-0.00081849,-0.00129949,-0.02352836,-0.01453273,-0.00112693,0.
 01445243,0.00786592,0.05200478,-0.00804212,0.00993815,0.01046571,0.001
 11478,-0.00088301,-0.00071333,0.00023641,-0.00027982,-0.00027666,-0.14
 647180,0.05814646,0.00991975,-0.03277404,0.01935124,-0.00067887,0.0026
 3396,0.00097620,-0.00534742,0.00039245,-0.00228185,0.00258712,0.000396
 98,-0.00041819,0.00136967,0.00060467,-0.00105618,0.00068728,0.31361068
 ,0.01712020,-0.01349233,-0.01177252,0.00111401,0.00095460,0.00185708,0
 .00035061,0.00013248,-0.00095017,0.07990613,-0.11025678,0.00289302,-0.
 00662274,0.01187970,0.00045483,0.01465108,-0.01641539,0.00844445,-0.00
 033339,-0.00069989,0.00097597,-0.00011250,0.00037067,-0.00118347,0.001
 05622,0.00065818,-0.00073449,-0.19023690,0.38312764,0.02804354,-0.0245
 9910,0.00588505,-0.00024058,0.00099902,0.00140747,0.00127213,-0.003893
 27,-0.00617544,0.01459214,0.00400441,-0.08344827,0.00226989,0.00111262
 ,0.00160783,-0.02311310,0.02058889,-0.00523843,0.00030910,0.00349321,-
 0.00464697,-0.00117236,0.00067381,0.00002235,-0.00073952,0.00000605,0.
 00061871,-0.14801964,-0.07143435,0.58862067,-0.00320452,0.00130936,-0.
 00291384,0.00010254,0.00007632,0.00006979,0.00039584,0.00066151,0.0010
 1977,-0.00521639,0.00998563,0.01954053,0.00024866,-0.00071188,-0.00030
 338,0.00089123,-0.00081710,0.00100724,-0.00007527,-0.00024444,-0.00021
 117,-0.00005618,0.00015628,-0.00080365,-0.00000202,0.,-0.00017246,-0.0
 8056698,0.05278995,0.10215812,0.08293952,0.00375388,-0.00253608,0.0010
 4052,-0.00006055,0.00009936,0.00009069,0.00053127,-0.00077694,-0.00132
 116,0.00095578,-0.00151989,-0.01247090,0.00072796,-0.00049513,-0.00027
 828,0.00006676,0.00070671,-0.00157849,-0.00037102,0.00006215,0.0002931
 3,0.00024655,0.00011458,0.00064033,-0.00017258,-0.00049456,0.00003219,
 0.06964480,-0.07655248,-0.08950469,-0.06326055,0.07467058,-0.00012554,
 0.00063197,0.00024493,0.00000567,0.00007352,0.00002657,0.00022580,-0.0
 0008077,0.00022028,-0.00535309,0.00255433,0.00310897,0.00009750,-0.000
 22699,-0.00012564,-0.00022062,0.00022462,0.00091093,0.00002163,-0.0001
 2347,0.00019089,0.00002202,-0.00022248,0.00040654,0.00007386,-0.000196
 01,0.00005745,0.11171854,-0.07488556,-0.24262285,-0.11436355,0.0721465
 6,0.26758564,0.00007763,-0.00298566,0.00153451,0.00003038,0.00045673,0
 .00004750,-0.00008760,-0.00003757,-0.00042615,0.00296060,0.02162362,-0
 .02448606,0.00459679,-0.00269368,0.00045923,-0.00423719,0.00324604,0.0
 0176996,0.00065903,0.00129877,-0.00146288,-0.00021250,-0.00013275,-0.0
 0035450,0.00007387,0.00074203,-0.00032767,-0.05299859,0.03096481,0.029
 41860,0.00205501,-0.01326297,0.00942975,0.18565756,-0.00132386,0.00175
 147,0.00291798,-0.00054710,-0.00021661,-0.00028018,0.00014901,-0.00012
 040,-0.00012940,-0.00479826,-0.01238847,0.02354627,0.00375695,-0.00057
 705,-0.00029456,0.00595348,-0.00235324,-0.00245823,0.00034900,-0.00100
 122,0.00188667,-0.00011675,0.00042710,0.00020242,-0.00028729,0.0004895
 9,-0.00045017,0.05373799,-0.18379709,0.12404217,-0.00094789,0.00774495
 ,-0.00342964,-0.15281426,0.29434482,-0.00051325,0.00358426,-0.00861209
 ,0.00069316,-0.00015877,0.00021617,-0.00048100,0.00042115,0.00165697,-
 0.00162164,0.00705686,-0.00734458,-0.00285235,-0.00031130,0.00010889,-
 0.00288816,0.00126690,0.00245483,-0.00006769,0.00080416,-0.00047649,0.
 00032018,-0.00049319,0.00091729,0.00048565,-0.00055240,0.00014973,0.00
 262470,0.15029248,-0.22044113,-0.00521561,0.02632759,-0.02878906,-0.18
 716402,-0.03547722,0.55715021,0.00214574,0.00418257,-0.00413058,-0.000
 13503,-0.00067881,0.00018517,-0.00003919,-0.00036986,0.00081621,0.0015
 4587,-0.00213045,-0.00203611,-0.00146734,0.00053378,-0.00048977,-0.000
 76767,0.00053909,0.00019466,-0.00012893,0.00016514,-0.00013413,0.00001
 786,-0.00011545,0.00033346,0.00001720,-0.00030273,0.00015901,0.0021197
 5,-0.00171435,-0.00189918,0.00239101,0.00185219,-0.00175966,-0.1368615
 5,0.09166614,0.19134910,0.13585750,0.00097986,-0.00622220,0.00565639,-
 0.00012330,-0.00028688,-0.00017194,-0.00034945,0.00036541,-0.00083941,
 0.00067204,0.00047727,0.00107626,0.00011473,-0.00000893,-0.00000187,0.
 00014352,-0.00068955,-0.00053052,0.00011245,-0.00008752,0.00005807,-0.
 00003336,0.00015127,-0.00047924,-0.00006925,0.00012083,0.00005818,-0.0
 1829267,0.00894471,0.02753576,0.00181007,-0.00205185,0.00428099,0.1056
 3254,-0.10140379,-0.14113834,-0.08898714,0.09748539,-0.00282300,0.0010
 3540,0.00505311,-0.00008343,0.00003694,-0.00025258,0.00014093,0.000213
 17,-0.00121868,-0.00128252,-0.00079455,0.00231172,-0.00021394,0.000139
 16,-0.00007362,0.00113275,-0.00095882,-0.00092541,0.00014652,-0.000419
 93,0.00053164,-0.00001389,0.00013043,-0.00005585,-0.00014673,-0.000046
 36,0.00009898,0.01779209,-0.00737371,-0.03663178,-0.00009331,0.0045699
 5,-0.00122109,0.16795843,-0.10404556,-0.29959429,-0.18421496,0.1057380
 7,0.33809099,-0.07713584,-0.00125481,0.00256086,-0.00784240,-0.0206140
 5,0.02585255,0.00352017,0.01235960,-0.02374621,0.00152417,-0.00241620,
 0.00365517,-0.00041742,-0.00015282,-0.00076930,-0.00003794,0.00037100,
 -0.00006749,0.00036947,-0.00044749,0.00051114,0.00053969,-0.00020411,0
 .00000313,0.00009505,0.00016162,-0.00018203,-0.00040205,0.00170280,-0.
 00323058,0.00017146,-0.00070492,0.00029832,-0.00298280,0.00404557,0.00
 546711,-0.00094657,0.00022822,0.00193524,0.30430420,0.02043393,-0.0871
 7122,0.06074267,-0.00538409,-0.01280589,0.01474198,-0.00486343,-0.0200
 6723,0.03022538,-0.00293029,0.01122209,-0.00143233,-0.00039866,0.00062
 202,0.00047145,0.00024122,0.00012842,-0.00146791,-0.00035335,0.0002282
 3,-0.00057733,0.00000462,0.00016168,-0.00024116,0.00009905,-0.00010733
 ,-0.00019988,0.00165567,-0.00418980,0.00597724,-0.00077401,0.00094889,
 -0.00069274,0.00796227,-0.00334404,-0.01088996,-0.00490873,0.00326993,
 0.00155422,0.06483082,0.15557580,-0.03593754,0.04564879,-0.15991434,0.
 00270288,0.00216712,0.00177612,0.00062273,0.01799385,-0.01450487,0.006
 41861,0.02983925,-0.03977000,-0.00055188,0.00082707,0.00274987,0.00064
 070,-0.00983967,-0.00619423,-0.00022129,0.00002053,0.00053166,0.000556
 41,0.00234086,-0.00271487,0.00040045,0.00027507,0.00016849,-0.00241983
 ,0.00254797,0.00176810,0.00025006,0.00007098,-0.00007102,0.00402485,-0
 .00528831,0.00155164,0.00023400,-0.00074718,-0.00532881,0.00153754,-0.
 09912823,0.27578336,-0.02158562,-0.01742404,0.00216236,0.00327574,-0.0
 0003495,0.00488540,0.00402651,0.00111663,-0.00038943,0.00139706,0.0013
 4737,0.00006954,-0.00027569,0.00065097,0.00113464,0.00016645,0.0000967
 8,-0.00048619,0.00000512,-0.00007032,0.00001829,0.00004889,0.00010119,
 0.00007727,0.00010750,0.00002900,-0.00021135,0.00016880,-0.00065565,0.
 00031699,-0.00007992,0.00008717,-0.00002803,0.00108680,0.00086548,-0.0
 0013778,-0.00320893,-0.00145786,-0.00035175,-0.18893163,-0.08061412,-0
 .00945062,0.29341415,-0.02984894,-0.01954139,-0.00072383,-0.00038618,-
 0.00149062,0.00610835,-0.00125744,0.00330723,-0.00347737,0.00249943,0.
 00217877,-0.00136016,-0.00000741,0.00054775,0.00078241,-0.00002801,-0.
 00016296,-0.00060069,-0.00000010,0.00001113,-0.00003279,0.00001751,0.0
 0009878,-0.00004345,0.00004088,-0.00003440,-0.00014282,-0.00007346,-0.
 00076522,0.00131847,-0.00002960,0.00016907,-0.00006238,-0.00011199,0.0
 0052739,-0.00119032,0.00058355,0.00015711,0.00068260,-0.04085186,-0.04
 877699,-0.00731302,0.01493919,0.18024692,0.03663664,0.01278157,0.00848
 869,0.00154331,0.00303297,-0.00513658,-0.00064869,-0.00220814,0.001922
 24,0.00091837,-0.00089662,-0.00019959,0.00139831,0.00069114,-0.0008109
 0,0.00007149,0.00025383,0.00042775,-0.00000862,-0.00001337,0.00002138,
 -0.00014662,-0.00012396,0.00000823,-0.00004523,-0.00001595,0.00000556,
 0.00014690,0.00086680,-0.00084079,0.00008061,-0.00013789,0.00003856,-0
 .00024729,-0.00105363,0.00081733,0.00108637,0.00032486,-0.00060479,-0.
 00104363,0.00073180,-0.06374158,-0.16390913,0.18966266,0.40198788,-0.0
 0437499,-0.00029056,-0.00063300,0.00019284,-0.00019586,0.00053625,0.00
 054701,0.00025440,-0.00006374,-0.00049926,-0.00006194,-0.00076203,0.00
 025730,0.00013904,0.00027859,0.00019485,-0.00016973,0.00010371,-0.0000
 3239,0.00004303,0.00000202,0.00004099,0.00002008,-0.00006105,0.0000344
 4,0.00009773,-0.00004087,-0.00002288,0.00001972,0.00003445,0.00000599,
 -0.00003376,-0.00004259,0.00018257,0.00031178,0.00000159,-0.00053971,-
 0.00038039,0.00011756,-0.03182756,0.00499910,0.03119294,-0.08961521,0.
 05451443,0.12416719,0.12545601,-0.00530783,0.00098799,-0.00051169,-0.0
 0005453,-0.00083575,0.00094076,0.00066559,-0.00069776,0.00038020,-0.00
 030612,-0.00075840,-0.00004878,0.00027764,0.00009085,-0.00009736,0.000
 06530,0.00017532,0.00022570,0.00002222,-0.00002793,0.00003378,0.000025
 78,-0.00003571,0.00005007,0.00004418,0.00006098,-0.00003959,0.00007157
 ,0.00010100,-0.00032024,-0.00000366,-0.00008935,0.00000804,0.00011205,
 -0.00008339,0.00045811,-0.00031495,-0.00022120,-0.00046099,-0.01705337
 ,0.00430545,0.02058492,0.08102318,-0.11647256,-0.20389609,-0.05926705,
 0.11350045,0.00070114,0.00046883,-0.00308286,-0.00013924,-0.00004044,0
 .00038415,0.00060592,0.00045161,-0.00034877,-0.00061847,-0.00032856,-0
 .00001579,0.00035953,0.00030512,0.00021718,0.00023459,0.00027458,0.000
 17136,-0.00002339,0.00002510,-0.00006311,-0.00003390,-0.00002827,0.000
 11457,-0.00000014,0.00002934,-0.00011298,0.00014400,0.00000167,0.00011
 546,-0.00004915,0.00007946,0.00003891,-0.00017427,0.00031139,0.0002345
 8,0.00030642,-0.00082007,-0.00017953,-0.01278182,0.00018478,0.00791046
 ,0.16629978,-0.18360767,-0.34238339,-0.15483100,0.18269314,0.33699976\
 \-0.00000267,0.00000045,-0.00000037,-0.00000288,0.00000231,-0.00000011
 ,-0.00000365,-0.00000087,-0.00000095,0.00000137,0.00000214,0.00000043,
 0.00000131,-0.00000235,-0.00000035,-0.00000127,-0.00000107,0.00000039,
 -0.00000321,-0.00000168,-0.00000127,0.00000053,-0.00000200,-0.00000118
 ,-0.00000177,0.00000162,-0.00000063,-0.00000406,-0.00000317,-0.0000018
 7,0.00000705,0.00000405,0.00000013,0.00000516,0.00000244,0.00000563,0.
 00000419,0.00000136,-0.00000026,0.00000013,0.00000129,0.00000161,-0.00
 000149,-0.00000105,0.00000179,0.00000126,-0.00000346,-0.00000298\\\@


 Human beings, who are almost unique in having the
 ability to learn from the experience of others, are
 also remarkable for their apparent disinclination to do so.
                               -- Douglas Adams,
                                Last Chance to See
 Job cpu time:  0 days  1 hours 33 minutes  0.2 seconds.
 File lengths (MBytes):  RWF=    125 Int=      0 D2E=      0 Chk=      8 Scr=      1
 Normal termination of Gaussian 03 at Wed Aug 14 07:48:49 2013.
