 Entering Gaussian System, Link 0=g03
 Input=p7freq.gjf
 Output=p7freq.log
 Initial command:
 /opt/g03/l1.exe /scratch/nyee/Gau-22056.inp -scrdir=/scratch/nyee/
 Entering Link 1 = /opt/g03/l1.exe PID=     22058.
  
 Copyright (c) 1988,1990,1992,1993,1995,1998,2003,2004, Gaussian, Inc.
                  All Rights Reserved.
  
 This is the Gaussian(R) 03 program.  It is based on the
 the Gaussian(R) 98 system (copyright 1998, Gaussian, Inc.),
 the Gaussian(R) 94 system (copyright 1995, Gaussian, Inc.),
 the Gaussian 92(TM) system (copyright 1992, Gaussian, Inc.),
 the Gaussian 90(TM) system (copyright 1990, Gaussian, Inc.),
 the Gaussian 88(TM) system (copyright 1988, Gaussian, Inc.),
 the Gaussian 86(TM) system (copyright 1986, Carnegie Mellon
 University), and the Gaussian 82(TM) system (copyright 1983,
 Carnegie Mellon University). Gaussian is a federally registered
 trademark of Gaussian, Inc.
  
 This software contains proprietary and confidential information,
 including trade secrets, belonging to Gaussian, Inc.
  
 This software is provided under written license and may be
 used, copied, transmitted, or stored only in accord with that
 written license.
  
 The following legend is applicable only to US Government
 contracts under FAR:
  
                    RESTRICTED RIGHTS LEGEND
  
 Use, reproduction and disclosure by the US Government is
 subject to restrictions as set forth in subparagraphs (a)
 and (c) of the Commercial Computer Software - Restricted
 Rights clause in FAR 52.227-19.
  
 Gaussian, Inc.
 340 Quinnipiac St., Bldg. 40, Wallingford CT 06492
  
  
 ---------------------------------------------------------------
 Warning -- This program may not be used in any manner that
 competes with the business of Gaussian, Inc. or will provide
 assistance to any competitor of Gaussian, Inc.  The licensee
 of this program is prohibited from giving any competitor of
 Gaussian, Inc. access to this program.  By using this program,
 the user acknowledges that Gaussian, Inc. is engaged in the
 business of creating and licensing software in the field of
 computational chemistry and represents and warrants to the
 licensee that it is not a competitor of Gaussian, Inc. and that
 it will not use this program in any manner prohibited above.
 ---------------------------------------------------------------
  

 Cite this work as:
 Gaussian 03, Revision D.01,
 M. J. Frisch, G. W. Trucks, H. B. Schlegel, G. E. Scuseria, 
 M. A. Robb, J. R. Cheeseman, J. A. Montgomery, Jr., T. Vreven, 
 K. N. Kudin, J. C. Burant, J. M. Millam, S. S. Iyengar, J. Tomasi, 
 V. Barone, B. Mennucci, M. Cossi, G. Scalmani, N. Rega, 
 G. A. Petersson, H. Nakatsuji, M. Hada, M. Ehara, K. Toyota, 
 R. Fukuda, J. Hasegawa, M. Ishida, T. Nakajima, Y. Honda, O. Kitao, 
 H. Nakai, M. Klene, X. Li, J. E. Knox, H. P. Hratchian, J. B. Cross, 
 V. Bakken, C. Adamo, J. Jaramillo, R. Gomperts, R. E. Stratmann, 
 O. Yazyev, A. J. Austin, R. Cammi, C. Pomelli, J. W. Ochterski, 
 P. Y. Ayala, K. Morokuma, G. A. Voth, P. Salvador, J. J. Dannenberg, 
 V. G. Zakrzewski, S. Dapprich, A. D. Daniels, M. C. Strain, 
 O. Farkas, D. K. Malick, A. D. Rabuck, K. Raghavachari, 
 J. B. Foresman, J. V. Ortiz, Q. Cui, A. G. Baboul, S. Clifford, 
 J. Cioslowski, B. B. Stefanov, G. Liu, A. Liashenko, P. Piskorz, 
 I. Komaromi, R. L. Martin, D. J. Fox, T. Keith, M. A. Al-Laham, 
 C. Y. Peng, A. Nanayakkara, M. Challacombe, P. M. W. Gill, 
 B. Johnson, W. Chen, M. W. Wong, C. Gonzalez, and J. A. Pople, 
 Gaussian, Inc., Wallingford CT, 2004.
 
 ******************************************
 Gaussian 03:  AM64L-G03RevD.01 13-Oct-2005
                10-Jun-2013 
 ******************************************
 %chk=p7freq.chk
 %mem=1000mb
 %nproc=8
 Will use up to    8 processors via shared memory.
 -------------------------------------
 # freq nosymm b3lyp/cbsb7 iop(7/33=1)
 -------------------------------------
 1/10=4,30=1,38=1/1,3;
 2/15=1,17=6,18=5,40=1/2;
 3/5=4,6=6,7=700,11=2,16=1,25=1,30=1,74=-5/1,2,3;
 4//1;
 5/5=2,38=5/2;
 8/6=4,10=90,11=11/1;
 11/6=1,8=1,9=11,15=111,16=1,31=1/1,2,10;
 10/6=1,31=1/2;
 6/7=2,8=2,9=2,10=2,18=1,28=1/1;
 7/8=1,10=1,25=1,30=1,33=1/1,2,3,16;
 1/10=4,30=1/3;
 99//99;
 -------------------
 Title Card Required
 -------------------
 Symbolic Z-matrix:
 Charge =  0 Multiplicity = 2
 C                    -3.48587   1.2839    0.12649 
 H                    -3.03137   1.56709   1.08683 
 H                    -3.00923   1.88271  -0.65461 
 O                    -4.86217   1.59201   0.08618 
 H                    -5.28724   1.00969   0.72961 
 C                    -3.15113  -0.19359  -0.1392 
 C                    -1.65014  -0.39978  -0.29515 
 H                    -1.41076  -1.46489  -0.30181 
 H                    -1.31116   0.03496  -1.23769 
 H                    -1.10056   0.07078   0.52354 
 C                    -3.96397  -0.8021   -1.27326 
 H                    -3.74671  -0.27599  -2.20597 
 H                    -3.71346  -1.85763  -1.3989 
 H                    -5.02985  -0.70517  -1.07317 
 O                    -3.45576  -0.97378   1.10814 
 O                    -4.68079  -0.80199   1.55642 
 

 GradGradGradGradGradGradGradGradGradGradGradGradGradGradGradGradGradGrad
 Berny optimization.
 Initialization pass.
 Trust Radius=3.00D-01 FncErr=1.00D-07 GrdErr=1.00D-07
 Number of steps in this run=   2 maximum allowed number of steps=   2.
 GradGradGradGradGradGradGradGradGradGradGradGradGradGradGradGradGradGrad

                          Input orientation:                          
 ---------------------------------------------------------------------
 Center     Atomic     Atomic              Coordinates (Angstroms)
 Number     Number      Type              X           Y           Z
 ---------------------------------------------------------------------
    1          6             0       -3.485869    1.283902    0.126489
    2          1             0       -3.031372    1.567088    1.086831
    3          1             0       -3.009232    1.882712   -0.654606
    4          8             0       -4.862169    1.592012    0.086178
    5          1             0       -5.287237    1.009694    0.729613
    6          6             0       -3.151130   -0.193593   -0.139196
    7          6             0       -1.650142   -0.399779   -0.295145
    8          1             0       -1.410761   -1.464888   -0.301808
    9          1             0       -1.311158    0.034960   -1.237688
   10          1             0       -1.100556    0.070777    0.523539
   11          6             0       -3.963972   -0.802101   -1.273263
   12          1             0       -3.746706   -0.275989   -2.205966
   13          1             0       -3.713457   -1.857628   -1.398898
   14          1             0       -5.029847   -0.705166   -1.073174
   15          8             0       -3.455760   -0.973781    1.108141
   16          8             0       -4.680787   -0.801992    1.556416
 ---------------------------------------------------------------------
                    Distance matrix (angstroms):
                    1          2          3          4          5
     1  C    0.000000
     2  H    1.099554   0.000000
     3  H    1.093556   1.769947   0.000000
     4  O    1.410942   2.086563   2.016592   0.000000
     5  H    1.919342   2.351004   2.804912   0.966326   0.000000
     6  C    1.538061   2.148833   2.144021   2.483311   2.601092
     7  C    2.526351   2.772403   2.680691   3.798652   4.033014
     8  H    3.470642   3.707772   3.726393   4.626812   4.713221
     9  H    2.854856   3.272605   2.576359   4.097159   4.541980
    10  H    2.705372   2.506850   2.883432   4.081075   4.295617
    11  C    2.557205   3.471720   2.915902   2.895965   3.007515
    12  H    2.818092   3.840722   2.758727   3.160318   3.555818
    13  H    3.499687   4.286347   3.878150   3.927468   3.902420
    14  H    2.789167   3.717884   3.309864   2.578612   2.501407
    15  O    2.462048   2.576155   3.386180   3.099304   2.726126
    16  O    2.797047   2.924657   3.858802   2.815272   2.081728
                    6          7          8          9         10
     6  C    0.000000
     7  C    1.523088   0.000000
     8  H    2.161369   1.091698   0.000000
     9  H    2.155091   1.091923   1.770688   0.000000
    10  H    2.171166   1.092571   1.770788   1.774135   0.000000
    11  C    1.522203   2.544089   2.811031   2.781970   3.491356
    12  H    2.152449   2.839391   3.239743   2.639346   3.817401
    13  H    2.161498   2.756966   2.580748   3.062502   3.773826
    14  H    2.159537   3.481522   3.777561   3.795194   4.311717
    15  O    1.502445   2.357742   2.532027   3.334635   2.641940
    16  O    2.363282   3.574194   3.819096   4.456670   3.827090
                   11         12         13         14         15
    11  C    0.000000
    12  H    1.092673   0.000000
    13  H    1.092099   1.775963   0.000000
    14  H    1.088817   1.764614   1.779648   0.000000
    15  O    2.441073   3.399245   2.670737   2.703338   0.000000
    16  O    2.919059   3.912123   3.283896   2.654423   1.315733
                   16
    16  O    0.000000
 Symmetry turned off by external request.
 Stoichiometry    C4H9O3(2)
 Framework group  C1[X(C4H9O3)]
 Deg. of freedom    42
 Full point group                 C1
 Rotational constants (GHZ):      2.9945149      2.5133745      1.9776129
 Standard basis: CBSB7 (5D, 7F)
 Integral buffers will be    131072 words long.
 Raffenetti 2 integral format.
 Two-electron integral symmetry is turned off.
   180 basis functions,   296 primitive gaussians,   187 cartesian basis functions
    29 alpha electrons       28 beta electrons
       nuclear repulsion energy       340.4804617036 Hartrees.
 NAtoms=   16 NActive=   16 NUniq=   16 SFac= 7.50D-01 NAtFMM=   80 NAOKFM=F Big=F
 One-electron integrals computed using PRISM.
 NBasis=   180 RedAO= T  NBF=   180
 NBsUse=   180 1.00D-06 NBFU=   180
 Harris functional with IExCor=  402 diagonalized for initial guess.
 ExpMin= 1.03D-01 ExpMax= 8.59D+03 ExpMxC= 1.30D+03 IAcc=1 IRadAn=         1 AccDes= 1.00D-06
 HarFok:  IExCor= 402 AccDes= 1.00D-06 IRadAn=         1 IDoV=1
 ScaDFX=  1.000000  1.000000  1.000000  1.000000
 <S**2> of initial guess= 0.7500
 Requested convergence on RMS density matrix=1.00D-08 within 128 cycles.
 Requested convergence on MAX density matrix=1.00D-06.
 Requested convergence on             energy=1.00D-06.
 No special actions if energy rises.
 Integral accuracy reduced to 1.0D-05 until final iterations.
 Initial convergence to 1.0D-05 achieved.  Increase integral accuracy.
 SCF Done:  E(UB+HF-LYP) =  -383.496029805     A.U. after   19 cycles
             Convg  =    0.4530D-08             -V/T =  2.0033
             S**2   =   0.7536
 Annihilation of the first spin contaminant:
 S**2 before annihilation     0.7536,   after     0.7500
 Range of M.O.s used for correlation:     1   180
 NBasis=   180 NAE=    29 NBE=    28 NFC=     0 NFV=     0
 NROrb=    180 NOA=    29 NOB=    28 NVA=   151 NVB=   152
 Symmetrizing basis deriv contribution to polar:
 IMax=3 JMax=2 DiffMx= 0.00D+00
 G2DrvN: will do   17 centers at a time, making    1 passes doing MaxLOS=2.
 FoFDir/FoFCou used for L=0 through L=2.
 DoAtom=TTTTTTTTTTTTTTTT
          Differentiating once with respect to electric field.
                with respect to dipole field.
          Differentiating once with respect to nuclear coordinates.
 Symmetry not used in FoFDir.
 MinBra= 0 MaxBra= 2 Meth= 1.
 IRaf=       0 NMat=  51 IRICut=      51 DoRegI=T DoRafI=T ISym2E= 0 JSym2E=0.
          There are  51 degrees of freedom in the 1st order CPHF.
    48 vectors were produced by pass  0.
 AX will form  48 AO Fock derivatives at one time.
    48 vectors were produced by pass  1.
    48 vectors were produced by pass  2.
    48 vectors were produced by pass  3.
    48 vectors were produced by pass  4.
    48 vectors were produced by pass  5.
    24 vectors were produced by pass  6.
     3 vectors were produced by pass  7.
     2 vectors were produced by pass  8.
 Inv2:  IOpt= 1 Iter= 1 AM= 2.57D-15 Conv= 1.00D-12.
 Inverted reduced A of dimension  317 with in-core refinement.
 Isotropic polarizability for W=    0.000000       57.72 Bohr**3.
 End of Minotr Frequency-dependent properties file   721 does not exist.

 **********************************************************************

            Population analysis using the SCF density.

 **********************************************************************

 Alpha  occ. eigenvalues --  -19.24291 -19.19593 -19.11479 -10.25522 -10.23021
 Alpha  occ. eigenvalues --  -10.18542 -10.17717  -1.20091  -1.02745  -0.89912
 Alpha  occ. eigenvalues --   -0.78652  -0.71808  -0.69790  -0.60043  -0.53194
 Alpha  occ. eigenvalues --   -0.52021  -0.49799  -0.48702  -0.46022  -0.43504
 Alpha  occ. eigenvalues --   -0.42312  -0.41592  -0.40578  -0.38640  -0.37575
 Alpha  occ. eigenvalues --   -0.34795  -0.29175  -0.28767  -0.27533
 Alpha virt. eigenvalues --    0.03130   0.05218   0.06047   0.07633   0.09497
 Alpha virt. eigenvalues --    0.10310   0.10565   0.12397   0.12972   0.14134
 Alpha virt. eigenvalues --    0.16440   0.17206   0.19777   0.21822   0.22490
 Alpha virt. eigenvalues --    0.26700   0.30978   0.32829   0.36678   0.37649
 Alpha virt. eigenvalues --    0.40318   0.41036   0.42265   0.43704   0.50215
 Alpha virt. eigenvalues --    0.51580   0.54320   0.54958   0.56673   0.57050
 Alpha virt. eigenvalues --    0.58283   0.58619   0.59592   0.61299   0.62405
 Alpha virt. eigenvalues --    0.63301   0.66324   0.73467   0.75387   0.79736
 Alpha virt. eigenvalues --    0.81886   0.86528   0.87246   0.89015   0.92195
 Alpha virt. eigenvalues --    0.94556   0.97412   1.00750   1.01623   1.11838
 Alpha virt. eigenvalues --    1.14113   1.18059   1.23766   1.28451   1.32333
 Alpha virt. eigenvalues --    1.33665   1.36526   1.38549   1.39380   1.43238
 Alpha virt. eigenvalues --    1.43972   1.45880   1.46979   1.48986   1.51018
 Alpha virt. eigenvalues --    1.52827   1.54611   1.57021   1.57621   1.61987
 Alpha virt. eigenvalues --    1.62898   1.66622   1.69043   1.70914   1.73757
 Alpha virt. eigenvalues --    1.74080   1.80366   1.84605   1.88058   1.90036
 Alpha virt. eigenvalues --    1.93402   1.99835   2.03030   2.05759   2.07776
 Alpha virt. eigenvalues --    2.12811   2.15565   2.22906   2.25212   2.30336
 Alpha virt. eigenvalues --    2.32960   2.33463   2.37127   2.39609   2.42877
 Alpha virt. eigenvalues --    2.45351   2.45728   2.47798   2.49520   2.51163
 Alpha virt. eigenvalues --    2.52670   2.53903   2.57196   2.59696   2.62549
 Alpha virt. eigenvalues --    2.63180   2.66220   2.72274   2.77343   2.80257
 Alpha virt. eigenvalues --    2.81328   2.84346   2.86565   2.91252   2.93239
 Alpha virt. eigenvalues --    3.02341   3.07825   3.10809   3.16040   3.22379
 Alpha virt. eigenvalues --    3.28159   3.34263   3.37559   3.50651   3.67172
 Alpha virt. eigenvalues --    3.74179   3.77108   3.78514   3.80434   3.82733
 Alpha virt. eigenvalues --    3.87692   3.90688   3.93681   4.21591   4.26102
 Alpha virt. eigenvalues --    4.68613   4.76529   4.82831   4.89092   4.91367
 Alpha virt. eigenvalues --    5.14732   5.27938   5.63768   5.94295  23.67488
 Alpha virt. eigenvalues --   23.77389  23.89551  23.92905  49.68564  49.75951
 Alpha virt. eigenvalues --   49.91017
  Beta  occ. eigenvalues --  -19.23215 -19.17721 -19.11468 -10.25557 -10.23003
  Beta  occ. eigenvalues --  -10.18542 -10.17689  -1.17333  -1.02705  -0.87712
  Beta  occ. eigenvalues --   -0.76850  -0.71712  -0.69728  -0.59296  -0.51797
  Beta  occ. eigenvalues --   -0.51348  -0.49116  -0.46224  -0.44227  -0.42805
  Beta  occ. eigenvalues --   -0.41918  -0.41038  -0.39536  -0.38315  -0.36414
  Beta  occ. eigenvalues --   -0.34294  -0.28316  -0.26695
  Beta virt. eigenvalues --   -0.12160   0.03208   0.05535   0.06284   0.07710
  Beta virt. eigenvalues --    0.09528   0.10567   0.11148   0.12465   0.13126
  Beta virt. eigenvalues --    0.14585   0.16681   0.17429   0.19819   0.22038
  Beta virt. eigenvalues --    0.22753   0.26808   0.31073   0.32900   0.36842
  Beta virt. eigenvalues --    0.37819   0.40419   0.41095   0.42422   0.43840
  Beta virt. eigenvalues --    0.50255   0.51658   0.54388   0.54986   0.56695
  Beta virt. eigenvalues --    0.57233   0.58535   0.58675   0.59634   0.61441
  Beta virt. eigenvalues --    0.62419   0.63383   0.66429   0.73953   0.76333
  Beta virt. eigenvalues --    0.81229   0.83502   0.87193   0.88510   0.89600
  Beta virt. eigenvalues --    0.93094   0.94971   0.97680   1.01206   1.02289
  Beta virt. eigenvalues --    1.11948   1.14521   1.18259   1.24320   1.28782
  Beta virt. eigenvalues --    1.32413   1.34000   1.36609   1.38646   1.39564
  Beta virt. eigenvalues --    1.43271   1.43997   1.45968   1.47020   1.49034
  Beta virt. eigenvalues --    1.51074   1.52953   1.54647   1.57078   1.57685
  Beta virt. eigenvalues --    1.62159   1.62989   1.66659   1.69170   1.71072
  Beta virt. eigenvalues --    1.73865   1.74200   1.80441   1.84702   1.88086
  Beta virt. eigenvalues --    1.90082   1.93436   1.99931   2.03111   2.05821
  Beta virt. eigenvalues --    2.07821   2.12904   2.15657   2.23031   2.25294
  Beta virt. eigenvalues --    2.30462   2.33128   2.33521   2.39551   2.40207
  Beta virt. eigenvalues --    2.42973   2.45694   2.45808   2.47892   2.49636
  Beta virt. eigenvalues --    2.51292   2.52960   2.54215   2.57413   2.60577
  Beta virt. eigenvalues --    2.63395   2.63962   2.66333   2.73669   2.80272
  Beta virt. eigenvalues --    2.80667   2.84477   2.84888   2.88454   2.92561
  Beta virt. eigenvalues --    2.93778   3.04592   3.08290   3.10860   3.16248
  Beta virt. eigenvalues --    3.22626   3.32364   3.35051   3.38024   3.51031
  Beta virt. eigenvalues --    3.67240   3.74632   3.77153   3.79331   3.80626
  Beta virt. eigenvalues --    3.83265   3.87779   3.91153   3.93754   4.21723
  Beta virt. eigenvalues --    4.26253   4.74941   4.77736   4.84480   4.91417
  Beta virt. eigenvalues --    4.94685   5.15739   5.27992   5.63807   5.95692
  Beta virt. eigenvalues --   23.67450  23.77407  23.89564  23.92925  49.70398
  Beta virt. eigenvalues --   49.76982  49.91109
          Condensed to atoms (all electrons):
              1          2          3          4          5          6
     1  C    4.763869   0.395506   0.392088   0.305504  -0.045185   0.304471
     2  H    0.395506   0.610193  -0.037334  -0.031547  -0.006504  -0.053798
     3  H    0.392088  -0.037334   0.594855  -0.030923   0.008652  -0.034793
     4  O    0.305504  -0.031547  -0.030923   7.866766   0.317085  -0.056256
     5  H   -0.045185  -0.006504   0.008652   0.317085   0.462272  -0.002350
     6  C    0.304471  -0.053798  -0.034793  -0.056256  -0.002350   5.488869
     7  C   -0.053886  -0.004790  -0.000102   0.004167  -0.000127   0.289254
     8  H    0.006474  -0.000623  -0.000262  -0.000244   0.000123  -0.025774
     9  H   -0.003690  -0.000526   0.003168  -0.000107   0.000030  -0.031790
    10  H   -0.005307   0.007220  -0.001042   0.000013  -0.000034  -0.036405
    11  C   -0.073350   0.012020  -0.009647   0.004120  -0.002659   0.288092
    12  H   -0.002692  -0.000314   0.001185  -0.000634  -0.000101  -0.026531
    13  H    0.008127  -0.000368  -0.000352   0.000112  -0.000032  -0.034474
    14  H   -0.011050   0.001482  -0.000964   0.018977  -0.000606  -0.034520
    15  O   -0.041775  -0.002564   0.003921   0.000935  -0.003468   0.129957
    16  O    0.004366   0.001377   0.000082  -0.012831   0.031241  -0.069325
              7          8          9         10         11         12
     1  C   -0.053886   0.006474  -0.003690  -0.005307  -0.073350  -0.002692
     2  H   -0.004790  -0.000623  -0.000526   0.007220   0.012020  -0.000314
     3  H   -0.000102  -0.000262   0.003168  -0.001042  -0.009647   0.001185
     4  O    0.004167  -0.000244  -0.000107   0.000013   0.004120  -0.000634
     5  H   -0.000127   0.000123   0.000030  -0.000034  -0.002659  -0.000101
     6  C    0.289254  -0.025774  -0.031790  -0.036405   0.288092  -0.026531
     7  C    4.906827   0.394521   0.399582   0.402104  -0.060633  -0.004330
     8  H    0.394521   0.547663  -0.022770  -0.026054  -0.006569  -0.000063
     9  H    0.399582  -0.022770   0.560646  -0.025019  -0.004148   0.001771
    10  H    0.402104  -0.026054  -0.025019   0.555142   0.009137  -0.000238
    11  C   -0.060633  -0.006569  -0.004148   0.009137   4.913857   0.392572
    12  H   -0.004330  -0.000063   0.001771  -0.000238   0.392572   0.570706
    13  H   -0.006634   0.004039  -0.000292  -0.000048   0.399738  -0.025911
    14  H    0.009326  -0.000386  -0.000031  -0.000245   0.398917  -0.023467
    15  O   -0.031319   0.002643   0.003684   0.000796  -0.050156   0.004055
    16  O    0.006824  -0.000116  -0.000241  -0.000141  -0.001958  -0.000017
             13         14         15         16
     1  C    0.008127  -0.011050  -0.041775   0.004366
     2  H   -0.000368   0.001482  -0.002564   0.001377
     3  H   -0.000352  -0.000964   0.003921   0.000082
     4  O    0.000112   0.018977   0.000935  -0.012831
     5  H   -0.000032  -0.000606  -0.003468   0.031241
     6  C   -0.034474  -0.034520   0.129957  -0.069325
     7  C   -0.006634   0.009326  -0.031319   0.006824
     8  H    0.004039  -0.000386   0.002643  -0.000116
     9  H   -0.000292  -0.000031   0.003684  -0.000241
    10  H   -0.000048  -0.000245   0.000796  -0.000141
    11  C    0.399738   0.398917  -0.050156  -0.001958
    12  H   -0.025911  -0.023467   0.004055  -0.000017
    13  H    0.563678  -0.024350   0.000969  -0.000089
    14  H   -0.024350   0.536414  -0.006202   0.010060
    15  O    0.000969  -0.006202   8.070649   0.048177
    16  O   -0.000089   0.010060   0.048177   8.156438
 Mulliken atomic charges:
              1
     1  C    0.056532
     2  H    0.110571
     3  H    0.111468
     4  O   -0.385136
     5  H    0.241663
     6  C   -0.094627
     7  C   -0.250784
     8  H    0.127399
     9  H    0.119732
    10  H    0.120122
    11  C   -0.209334
    12  H    0.114009
    13  H    0.115887
    14  H    0.126645
    15  O   -0.130301
    16  O   -0.173846
 Sum of Mulliken charges=   0.00000
 Atomic charges with hydrogens summed into heavy atoms:
              1
     1  C    0.278571
     2  H    0.000000
     3  H    0.000000
     4  O   -0.143473
     5  H    0.000000
     6  C   -0.094627
     7  C    0.116469
     8  H    0.000000
     9  H    0.000000
    10  H    0.000000
    11  C    0.147207
    12  H    0.000000
    13  H    0.000000
    14  H    0.000000
    15  O   -0.130301
    16  O   -0.173846
 Sum of Mulliken charges=   0.00000
          Atomic-Atomic Spin Densities.
              1          2          3          4          5          6
     1  C    0.041861  -0.002795  -0.002687  -0.003868   0.000666  -0.004884
     2  H   -0.002795  -0.000261   0.000074   0.000377  -0.000268   0.001838
     3  H   -0.002687   0.000074  -0.000899   0.000206  -0.000207   0.002666
     4  O   -0.003868   0.000377   0.000206   0.003081   0.002129   0.001055
     5  H    0.000666  -0.000268  -0.000207   0.002129  -0.002422   0.000073
     6  C   -0.004884   0.001838   0.002666   0.001055   0.000073  -0.030401
     7  C    0.000592  -0.000048  -0.000032   0.000009  -0.000066   0.001305
     8  H    0.000684  -0.000022  -0.000018  -0.000007   0.000006   0.002107
     9  H   -0.000541   0.000029   0.000028   0.000008  -0.000007  -0.000215
    10  H   -0.001551   0.000084   0.000154   0.000027  -0.000029  -0.000092
    11  C   -0.011704   0.000147   0.000650   0.000461  -0.000148  -0.006228
    12  H    0.001387   0.000033  -0.000007  -0.000076   0.000084   0.001714
    13  H    0.000518   0.000001  -0.000002  -0.000028   0.000028   0.001253
    14  H   -0.001755   0.000059   0.000218   0.000423  -0.000200   0.000808
    15  O   -0.013820   0.000225   0.000012   0.000472  -0.000120   0.022017
    16  O    0.006574  -0.000795  -0.000102  -0.000271  -0.002187  -0.005502
              7          8          9         10         11         12
     1  C    0.000592   0.000684  -0.000541  -0.001551  -0.011704   0.001387
     2  H   -0.000048  -0.000022   0.000029   0.000084   0.000147   0.000033
     3  H   -0.000032  -0.000018   0.000028   0.000154   0.000650  -0.000007
     4  O    0.000009  -0.000007   0.000008   0.000027   0.000461  -0.000076
     5  H   -0.000066   0.000006  -0.000007  -0.000029  -0.000148   0.000084
     6  C    0.001305   0.002107  -0.000215  -0.000092  -0.006228   0.001714
     7  C    0.001089  -0.001696   0.000359  -0.000128   0.003269  -0.000418
     8  H   -0.001696   0.000822  -0.000207  -0.000607  -0.001780   0.000131
     9  H    0.000359  -0.000207  -0.001385   0.000378   0.000765  -0.000184
    10  H   -0.000128  -0.000607   0.000378   0.000620   0.000761  -0.000047
    11  C    0.003269  -0.001780   0.000765   0.000761   0.040455  -0.001423
    12  H   -0.000418   0.000131  -0.000184  -0.000047  -0.001423  -0.001197
    13  H   -0.000421   0.000190  -0.000054  -0.000055  -0.002470   0.000515
    14  H    0.000041  -0.000118   0.000052   0.000050   0.001672  -0.001051
    15  O   -0.004024   0.000332  -0.000054   0.001092  -0.012182   0.000150
    16  O   -0.000051  -0.000074   0.000001  -0.000194   0.003278  -0.000153
             13         14         15         16
     1  C    0.000518  -0.001755  -0.013820   0.006574
     2  H    0.000001   0.000059   0.000225  -0.000795
     3  H   -0.000002   0.000218   0.000012  -0.000102
     4  O   -0.000028   0.000423   0.000472  -0.000271
     5  H    0.000028  -0.000200  -0.000120  -0.002187
     6  C    0.001253   0.000808   0.022017  -0.005502
     7  C   -0.000421   0.000041  -0.004024  -0.000051
     8  H    0.000190  -0.000118   0.000332  -0.000074
     9  H   -0.000054   0.000052  -0.000054   0.000001
    10  H   -0.000055   0.000050   0.001092  -0.000194
    11  C   -0.002470   0.001672  -0.012182   0.003278
    12  H    0.000515  -0.001051   0.000150  -0.000153
    13  H   -0.000151  -0.000516   0.001248  -0.000706
    14  H   -0.000516  -0.000493  -0.001919   0.001461
    15  O    0.001248  -0.001919   0.466681  -0.135362
    16  O   -0.000706   0.001461  -0.135362   0.801064
 Mulliken atomic spin densities:
              1
     1  C    0.008677
     2  H   -0.001323
     3  H    0.000052
     4  O    0.003997
     5  H   -0.002667
     6  C   -0.012488
     7  C   -0.000222
     8  H   -0.000256
     9  H   -0.001027
    10  H    0.000464
    11  C    0.015524
    12  H   -0.000541
    13  H   -0.000650
    14  H   -0.001270
    15  O    0.324746
    16  O    0.666983
 Sum of Mulliken spin densities=   1.00000
 APT atomic charges:
              1
     1  C    0.414173
     2  H   -0.061159
     3  H   -0.012078
     4  O   -0.607030
     5  H    0.304649
     6  C    0.370817
     7  C    0.004250
     8  H    0.008291
     9  H    0.007478
    10  H    0.001900
    11  C   -0.022302
    12  H    0.012350
    13  H   -0.002620
    14  H    0.024640
    15  O   -0.267661
    16  O   -0.175699
 Sum of APT charges=   0.00000
 APT Atomic charges with hydrogens summed into heavy atoms:
              1
     1  C    0.340936
     2  H    0.000000
     3  H    0.000000
     4  O   -0.302381
     5  H    0.000000
     6  C    0.370817
     7  C    0.021919
     8  H    0.000000
     9  H    0.000000
    10  H    0.000000
    11  C    0.012069
    12  H    0.000000
    13  H    0.000000
    14  H    0.000000
    15  O   -0.267661
    16  O   -0.175699
 Sum of APT charges=   0.00000
 Electronic spatial extent (au):  <R**2>=  3396.3392
 Charge=     0.0000 electrons
 Dipole moment (field-independent basis, Debye):
    X=     2.1532    Y=    -0.2139    Z=    -1.4810  Tot=     2.6221
 Quadrupole moment (field-independent basis, Debye-Ang):
   XX=   -57.8558   YY=   -46.3992   ZZ=   -44.1844
   XY=     2.9553   XZ=     4.8094   YZ=     3.1882
 Traceless Quadrupole moment (field-independent basis, Debye-Ang):
   XX=    -8.3760   YY=     3.0806   ZZ=     5.2954
   XY=     2.9553   XZ=     4.8094   YZ=     3.1882
 Octapole moment (field-independent basis, Debye-Ang**2):
  XXX=   532.1296  YYY=    -3.5978  ZZZ=   -14.3487  XYY=   172.1818
  XXY=   -19.4234  XXZ=   -16.9295  XZZ=   158.3384  YZZ=     7.2684
  YYZ=    -5.5868  XYZ=   -14.5183
 Hexadecapole moment (field-independent basis, Debye-Ang**3):
 XXXX= -3910.1216 YYYY=  -319.5990 ZZZZ=  -269.1228 XXXY=   135.1882
 XXXZ=    91.2640 YYYX=    54.9954 YYYZ=     3.2830 ZZZX=    84.1448
 ZZZY=     6.9149 XXYY=  -757.0280 XXZZ=  -670.2912 YYZZ=   -97.8134
 XXYZ=    69.1065 YYXZ=    29.0765 ZZXY=   -17.9133
 N-N= 3.404804617036D+02 E-N=-1.580210934020D+03  KE= 3.822299301477D+02
  Exact polarizability:  63.304  -0.520  53.893  -5.274   0.176  55.963
 Approx polarizability:  90.690  -1.181  73.539  -9.586  -3.719  78.973
                          Isotropic Fermi Contact Couplings
        Atom                 a.u.       MegaHertz       Gauss      10(-4) cm-1
     1  C(13)              0.00294       3.31006       1.18111       1.10412
     2  H(1)              -0.00027      -1.18458      -0.42269      -0.39513
     3  H(1)               0.00029       1.27978       0.45666       0.42689
     4  O(17)             -0.00237       1.43387       0.51164       0.47829
     5  H(1)               0.00002       0.08195       0.02924       0.02734
     6  C(13)             -0.00890     -10.00637      -3.57052      -3.33777
     7  C(13)             -0.00040      -0.44747      -0.15967      -0.14926
     8  H(1)              -0.00014      -0.61726      -0.22026      -0.20590
     9  H(1)              -0.00043      -1.93980      -0.69217      -0.64705
    10  H(1)              -0.00007      -0.32275      -0.11517      -0.10766
    11  C(13)              0.00474       5.32441       1.89988       1.77603
    12  H(1)              -0.00012      -0.53120      -0.18955      -0.17719
    13  H(1)              -0.00023      -1.02441      -0.36554      -0.34171
    14  H(1)              -0.00017      -0.76655      -0.27352      -0.25569
    15  O(17)              0.04386     -26.58859      -9.48747      -8.86900
    16  O(17)              0.05079     -30.78879     -10.98621     -10.27004
 --------------------------------------------------------
       Center         ----  Spin Dipole Couplings  ----
                      3XX-RR        3YY-RR        3ZZ-RR
 --------------------------------------------------------
     1   Atom       -0.011319      0.020023     -0.008704
     2   Atom       -0.003301      0.009253     -0.005951
     3   Atom       -0.002198      0.001960      0.000237
     4   Atom       -0.015112      0.019222     -0.004109
     5   Atom       -0.006587      0.011633     -0.005046
     6   Atom       -0.004632     -0.003336      0.007968
     7   Atom        0.003602     -0.003934      0.000331
     8   Atom        0.005130     -0.004322     -0.000808
     9   Atom        0.001126     -0.001869      0.000743
    10   Atom        0.006564     -0.003119     -0.003445
    11   Atom        0.000723     -0.015815      0.015092
    12   Atom       -0.002746     -0.002898      0.005644
    13   Atom       -0.005319     -0.002478      0.007797
    14   Atom       -0.003981     -0.008059      0.012040
    15   Atom       -0.641618      0.679696     -0.038078
    16   Atom       -1.031144      1.118125     -0.086981
 --------------------------------------------------------
                        XY            XZ            YZ
 --------------------------------------------------------
     1   Atom        0.000460     -0.002921     -0.008133
     2   Atom        0.006500     -0.000846     -0.001854
     3   Atom        0.002048     -0.002073     -0.003897
     4   Atom       -0.007104      0.004124     -0.020533
     5   Atom       -0.010076      0.004211     -0.012152
     6   Atom        0.004927     -0.005806     -0.006088
     7   Atom        0.001666     -0.007369     -0.000889
     8   Atom       -0.001815     -0.006091      0.001337
     9   Atom        0.001309     -0.003375     -0.001111
    10   Atom        0.003765     -0.003123     -0.001055
    11   Atom        0.003293      0.014468      0.001905
    12   Atom        0.000679     -0.001029     -0.002305
    13   Atom       -0.000436     -0.001214      0.005015
    14   Atom       -0.000808      0.004039     -0.001736
    15   Atom        0.655362      0.452682      1.095441
    16   Atom        1.078925      0.802105      1.884448
 --------------------------------------------------------


 ---------------------------------------------------------------------------------
              Anisotropic Spin Dipole Couplings in Principal Axis System
 ---------------------------------------------------------------------------------

       Atom             a.u.   MegaHertz   Gauss  10(-4) cm-1        Axes

              Baa    -0.0138    -1.855    -0.662    -0.619  0.7394  0.1478  0.6568
     1 C(13)  Bbb    -0.0084    -1.125    -0.402    -0.375 -0.6723  0.2138  0.7088
              Bcc     0.0222     2.980     1.063     0.994  0.0357  0.9656 -0.2574
 
              Baa    -0.0062    -3.308    -1.180    -1.104  0.3721 -0.0453  0.9271
     2 H(1)   Bbb    -0.0060    -3.222    -1.150    -1.075  0.8429 -0.4017 -0.3579
              Bcc     0.0122     6.531     2.330     2.178  0.3886  0.9146 -0.1113
 
              Baa    -0.0034    -1.816    -0.648    -0.606  0.8048  0.1157  0.5821
     3 H(1)   Bbb    -0.0027    -1.440    -0.514    -0.480 -0.4935  0.6754  0.5481
              Bcc     0.0061     3.255     1.162     1.086  0.3298  0.7283 -0.6006
 
              Baa    -0.0165     1.196     0.427     0.399  0.9853  0.1562 -0.0689
     4 O(17)  Bbb    -0.0161     1.162     0.415     0.388 -0.0187  0.5001  0.8658
              Bcc     0.0326    -2.358    -0.841    -0.787 -0.1697  0.8518 -0.4957
 
              Baa    -0.0121    -6.432    -2.295    -2.146  0.5238  0.5545  0.6466
     5 H(1)   Bbb    -0.0101    -5.388    -1.922    -1.797  0.7747  0.0056 -0.6324
              Bcc     0.0222    11.820     4.218     3.943 -0.3543  0.8322 -0.4266
 
              Baa    -0.0090    -1.203    -0.429    -0.401  0.7708 -0.6361  0.0356
     6 C(13)  Bbb    -0.0046    -0.619    -0.221    -0.207  0.5146  0.6545  0.5540
              Bcc     0.0136     1.823     0.650     0.608 -0.3757 -0.4087  0.8318
 
              Baa    -0.0057    -0.760    -0.271    -0.253  0.6309 -0.2266  0.7420
     7 C(13)  Bbb    -0.0041    -0.551    -0.197    -0.184  0.0403  0.9647  0.2603
              Bcc     0.0098     1.311     0.468     0.437  0.7748  0.1343 -0.6178
 
              Baa    -0.0048    -2.576    -0.919    -0.859 -0.2239  0.7713 -0.5959
     8 H(1)   Bbb    -0.0045    -2.390    -0.853    -0.797  0.5016  0.6154  0.6080
              Bcc     0.0093     4.966     1.772     1.657  0.8356 -0.1628 -0.5246
 
              Baa    -0.0025    -1.328    -0.474    -0.443  0.6936 -0.4340  0.5749
     9 H(1)   Bbb    -0.0023    -1.210    -0.432    -0.404  0.1436  0.8654  0.4800
              Bcc     0.0048     2.539     0.906     0.847  0.7059  0.2504 -0.6626
 
              Baa    -0.0044    -2.355    -0.840    -0.786 -0.3643  0.9139 -0.1790
    10 H(1)   Bbb    -0.0043    -2.312    -0.825    -0.771  0.1825  0.2586  0.9486
              Bcc     0.0087     4.667     1.665     1.557  0.9132  0.3129 -0.2610
 
              Baa    -0.0165    -2.212    -0.789    -0.738 -0.2228  0.9739  0.0433
    11 C(13)  Bbb    -0.0079    -1.055    -0.376    -0.352  0.8189  0.2111 -0.5337
              Bcc     0.0243     3.267     1.166     1.090  0.5290  0.0835  0.8445
 
              Baa    -0.0037    -1.966    -0.702    -0.656 -0.4507  0.8769  0.1669
    12 H(1)   Bbb    -0.0027    -1.435    -0.512    -0.479  0.8836  0.4117  0.2230
              Bcc     0.0064     3.401     1.214     1.135 -0.1268 -0.2480  0.9604
 
              Baa    -0.0054    -2.898    -1.034    -0.967  0.9948 -0.0224  0.0998
    13 H(1)   Bbb    -0.0045    -2.410    -0.860    -0.804  0.0582  0.9266 -0.3716
              Bcc     0.0099     5.308     1.894     1.770 -0.0841  0.3754  0.9230
 
              Baa    -0.0083    -4.412    -1.574    -1.472  0.1316  0.9896  0.0584
    14 H(1)   Bbb    -0.0049    -2.613    -0.932    -0.872  0.9637 -0.1139 -0.2415
              Bcc     0.0132     7.025     2.507     2.343  0.2323 -0.0881  0.9687
 
              Baa    -0.9116    65.959    23.536    22.002  0.9274 -0.3738 -0.0118
    15 O(17)  Bbb    -0.8283    59.933    21.386    19.992 -0.1983 -0.5182  0.8320
              Bcc     1.7398  -125.892   -44.921   -41.993  0.3171  0.7692  0.5547
 
              Baa    -1.4898   107.801    38.466    35.958  0.8774 -0.0164 -0.4796
    16 O(17)  Bbb    -1.4584   105.528    37.655    35.200  0.3575 -0.6442  0.6761
              Bcc     2.9482  -213.329   -76.121   -71.159  0.3201  0.7647  0.5593
 

 ---------------------------------------------------------------------------------

 Use density number 0.
 Entering OneElI...
 Calculate overlap and kinetic energy integrals
    NBasis = 187  MinDer = 2  MaxDer = 2
 Requested accuracy = 0.1000D-12
 PrsmSu:  NPrtUS=   1 ThrOK=F
 PRISM was handed   130758104 working-precision words and  2556 shell-pairs
 Entering OneElI...
 Calculate potential energy integrals
    NBasis = 187  MinDer = 2  MaxDer = 2
 Requested accuracy = 0.1000D-12
 PrsmSu:  NPrtUS=   8 ThrOK=T
 PRISM was handed    16299681 working-precision words and  2432 shell-pairs
 PRISM was handed    16299681 working-precision words and  2432 shell-pairs
 PRISM was handed    16299681 working-precision words and  2432 shell-pairs
 PRISM was handed    16299681 working-precision words and  2432 shell-pairs
 PRISM was handed    16299681 working-precision words and  2432 shell-pairs
 PRISM was handed    16299681 working-precision words and  2432 shell-pairs
 PRISM was handed    16299681 working-precision words and  2432 shell-pairs
 PRISM was handed    16299681 working-precision words and  2432 shell-pairs
 Polarizability after L701:
                1             2             3
      1  0.633042D+02
      2 -0.519559D+00  0.538935D+02
      3 -0.527352D+01  0.175525D+00  0.559634D+02
 Dipole Derivatives after L701:
               1            2            3            4            5
      1 0.646032D+00-0.128051D+00 0.427704D-01-0.660190D-01 0.504268D-02
      2-0.123268D+00 0.350022D+00 0.161625D-01-0.550613D-02 0.140468D-02
      3 0.845877D-01 0.432582D-01 0.246464D+00-0.732992D-01-0.406354D-01
               6            7            8            9           10
      1-0.118353D+00-0.290236D-02-0.519008D-01 0.800529D-01-0.867363D+00
      2-0.782167D-01-0.244386D-01 0.537195D-02 0.778110D-01 0.196212D+00
      3-0.118863D+00 0.436840D-01 0.714144D-01-0.387035D-01-0.151846D-01
              11           12           13           14           15
      1 0.168318D+00 0.203735D-01 0.306813D+00-0.858207D-01-0.737325D-02
      2-0.573498D+00-0.107658D+00-0.305330D-01 0.354703D+00 0.545260D-01
      3-0.125657D+00-0.380229D+00-0.426134D-01 0.828351D-01 0.252432D+00
              16           17           18           19           20
      1 0.388821D+00 0.146501D+00-0.912488D-01-0.534167D-01 0.373776D-01
      2 0.377224D-01 0.241116D+00-0.498846D-01 0.584538D-02 0.340985D-01
      3-0.613843D-01-0.500774D-01 0.482516D+00 0.218385D-01 0.456943D-02
              21           22           23           24           25
      1 0.173035D-01 0.417614D-01 0.599835D-01-0.947289D-02 0.422337D-01
      2 0.379320D-02 0.149382D-01-0.103749D+00-0.535769D-02-0.339528D-02
      3 0.320680D-01 0.405181D-02-0.132591D-01 0.868595D-01 0.234484D-01
              26           27           28           29           30
      1-0.252269D-01 0.557024D-01 0.205955D-02-0.515582D-01-0.945249D-01
      2 0.441111D-01 0.650116D-01-0.307402D-01 0.382187D-01-0.697595D-01
      3 0.758694D-01-0.639103D-01-0.510724D-01-0.739836D-01-0.345768D-01
              31           32           33           34           35
      1-0.936552D-01-0.806390D-01-0.938777D-02 0.810539D-01-0.269393D-01
      2-0.331598D-01 0.361118D-01-0.161903D-01-0.337772D-01 0.222417D-01
      3-0.360813D-01-0.339007D-01-0.936314D-02 0.296281D-01 0.824803D-01
              36           37           38           39           40
      1 0.374543D-01 0.554627D-01 0.340124D-01-0.186447D-01-0.670445D-01
      2 0.580862D-01 0.590991D-01-0.117707D+00-0.130786D-01-0.186419D-02
      3-0.662443D-01-0.515331D-02-0.508011D-01 0.543851D-01-0.415383D-02
              41           42           43           44           45
      1 0.160822D-01 0.416429D-01-0.358214D+00-0.224529D-01 0.828601D-01
      2 0.892544D-01-0.324123D-02 0.507910D-01-0.175178D+00 0.975699D-02
      3-0.989434D-02 0.517103D-01 0.383754D-01-0.329650D-02-0.269589D+00
              46           47           48
      1-0.556213D-01 0.527083D-02-0.291548D-01
      2-0.779256D-01-0.246521D+00 0.582393D-01
      3 0.433283D-01 0.410780D-01-0.224956D+00
 Hessian after L701:
                1             2             3             4             5
      1  0.134801D+02
      2  0.252341D+01  0.162697D+02
      3  0.262380D+00  0.107274D+00  0.206364D+02
      4 -0.409422D+01  0.360800D+00  0.134968D+01  0.408204D+01
      5  0.481211D+00 -0.460109D+01  0.915997D+00 -0.622218D+00  0.409765D+01
      6  0.130171D+01  0.649595D+00 -0.230243D+01 -0.143779D+01 -0.872049D+00
      7 -0.397865D+01  0.835126D+00 -0.114026D+01  0.158186D+00  0.568243D-02
      8  0.904667D+00 -0.384355D+01 -0.130077D+01  0.636717D-02  0.151014D+00
      9 -0.108579D+01 -0.114210D+01 -0.321213D+01  0.468717D-02  0.569373D-01
     10  0.847950D+00 -0.194340D+01  0.456686D-01 -0.189716D+00  0.120810D+00
     11 -0.217801D+01 -0.803990D+01 -0.697804D-01  0.140374D+00  0.104738D+00
     12  0.161129D+00 -0.119157D+00 -0.868414D+01  0.111705D+00  0.930308D-01
     13  0.981713D-01 -0.139854D+00  0.121424D+00 -0.820308D-01 -0.272005D-01
     14  0.153036D-01  0.139451D+00 -0.117654D-01 -0.119584D-01  0.242365D-01
     15  0.300563D-01  0.417829D-01  0.120219D+00 -0.212921D-01 -0.747512D-02
     16 -0.601161D+01 -0.169276D+01 -0.324124D+00  0.199529D+00 -0.511469D-01
     17 -0.160696D+01 -0.620988D+00  0.756661D+00 -0.383363D-01  0.817796D-01
     18 -0.363719D+00  0.826608D+00 -0.652621D+01 -0.512675D-01 -0.364308D+00
     19 -0.599606D-01  0.237480D-01  0.331848D-02 -0.283679D-01  0.139417D-01
     20 -0.123055D+00  0.969278D-01  0.288362D-01  0.102792D-01 -0.173286D-01
     21 -0.184761D-01  0.176704D-01 -0.613956D-03 -0.721817D-02  0.287238D-01
     22  0.395308D-01 -0.118141D+00 -0.117738D-01 -0.245915D-02  0.126697D-02
     23 -0.123929D+00  0.103436D+00  0.157659D-01  0.428263D-02  0.169293D-02
     24 -0.133501D-01  0.194411D-01 -0.459990D-01  0.120604D-02 -0.856950D-03
     25  0.887604D-02  0.200420D-02 -0.259806D-01 -0.203630D-02 -0.241810D-02
     26  0.426542D-02 -0.241566D-01  0.319478D-02 -0.273778D-03 -0.245065D-02
     27 -0.522953D-01  0.972376D-02  0.159986D-01 -0.290846D-04  0.573667D-02
     28 -0.113177D-01 -0.768386D-02  0.117670D-01  0.264047D-01 -0.600653D-01
     29  0.444755D-02 -0.542913D-02 -0.683875D-03 -0.366751D-01  0.349496D-02
     30  0.374928D-01 -0.106735D-01 -0.682603D-02 -0.106197D-01  0.644164D-02
     31  0.769494D-01 -0.705881D-01 -0.435240D-01 -0.539045D-01  0.565565D-01
     32 -0.584468D-01  0.648124D-01  0.247939D-01  0.668537D-01  0.835240D-01
     33 -0.575053D-01 -0.829784D-01  0.119504D+00  0.695427D-01  0.180983D+00
     34 -0.247794D-01 -0.600606D-02 -0.873710D-02 -0.172482D-02 -0.512714D-03
     35 -0.339184D-02 -0.175379D-01  0.116291D-01 -0.101324D-02 -0.243501D-02
     36 -0.983291D-02  0.297296D-01  0.511079D-01  0.396936D-02  0.368737D-02
     37 -0.543046D-01  0.146406D-01  0.315414D-02 -0.386184D-03 -0.275318D-02
     38  0.946674D-02  0.173914D+00  0.100422D+00  0.318457D-02  0.186158D-03
     39  0.374907D-02  0.107720D+00 -0.928839D-02  0.853314D-03 -0.296662D-02
     40  0.181352D-02 -0.250599D-01 -0.164036D-01  0.110570D-01  0.197647D-01
     41 -0.300653D-01 -0.293284D-01 -0.287253D-01  0.148314D-01  0.872994D-02
     42 -0.328703D-01 -0.452438D-01 -0.146352D-01  0.131472D-01  0.155390D-01
     43 -0.109524D+00  0.238718D-01  0.936561D-02 -0.364316D-01 -0.311966D-02
     44 -0.601575D-01  0.341893D+00 -0.202198D+00  0.255100D-01  0.223275D-01
     45  0.491125D-01 -0.108561D+00 -0.962342D-01 -0.883990D-02 -0.424513D-01
     46 -0.208986D+00  0.219896D+00 -0.235955D+00  0.140619D-01  0.702013D-01
     47  0.241247D+00 -0.814350D-02 -0.350645D+00  0.779921D-01  0.439332D-01
     48 -0.211792D+00 -0.300829D+00 -0.447266D-01 -0.177340D-01 -0.169688D-01
                6             7             8             9            10
      6  0.225005D+01
      7  0.262181D-02  0.398268D+01
      8  0.848639D-01 -0.107578D+01  0.343882D+01
      9 -0.235126D+00  0.135337D+01  0.127209D+01  0.317566D+01
     10  0.137002D+00 -0.327911D+00  0.978775D-01 -0.142650D+00  0.613061D+01
     11  0.734423D-01  0.682331D-01  0.109647D+00 -0.773515D-01  0.139733D+01
     12  0.368478D+00 -0.809372D-01 -0.103036D+00  0.228779D+00  0.183022D+01
     13 -0.102420D-01  0.108519D+00  0.740933D-01 -0.104101D+00 -0.550936D+01
     14  0.658896D-02  0.621115D-01 -0.135021D-01 -0.417836D-01  0.149285D+01
     15  0.161899D-01 -0.984503D-01 -0.464789D-01  0.272900D-01 -0.178632D+01
     16 -0.300893D-01  0.116375D+00  0.473126D-01 -0.206242D-01 -0.465287D+00
     17 -0.244939D+00  0.647733D-01  0.150157D-01  0.175985D+00 -0.213934D+00
     18 -0.166463D+00  0.236338D-02  0.272661D+00  0.293451D-02  0.100939D-01
     19 -0.132415D-01 -0.216256D-01 -0.488858D-01  0.287267D-01  0.237423D+00
     20  0.407942D-01 -0.247677D-01  0.544391D-01 -0.592558D-01 -0.243687D+00
     21  0.333285D-01  0.157774D-01 -0.411795D-01 -0.253658D-01 -0.404004D-01
     22 -0.162486D-02 -0.260795D-02 -0.388612D-02  0.240791D-02  0.314027D-02
     23  0.816258D-02  0.262877D-02  0.107094D-01 -0.846349D-02 -0.263859D-01
     24  0.403776D-03 -0.122332D-03 -0.863664D-03 -0.121915D-02 -0.105796D-02
     25 -0.677417D-02  0.317811D-02 -0.353809D-01 -0.217048D-03  0.257071D-01
     26 -0.931463D-03 -0.185498D-01  0.947381D-02  0.406843D-02 -0.485759D-02
     27  0.128781D-01 -0.802516D-02  0.225699D-01 -0.202920D-01 -0.355644D-01
     28 -0.348496D-01 -0.441821D-02 -0.492771D-02  0.720290D-02  0.420251D-01
     29  0.150857D-01  0.172067D-02 -0.452716D-02  0.195556D-02 -0.446859D-02
     30 -0.321405D-01 -0.154857D-02 -0.802516D-02  0.740457D-02  0.283559D-01
     31  0.570981D-01  0.112229D-01 -0.208521D-01 -0.351155D-02 -0.126482D+00
     32  0.176804D+00 -0.707976D-02 -0.709170D-01 -0.276305D-01 -0.308494D+00
     33  0.121959D+00 -0.685145D-02 -0.358044D-01  0.939070D-02 -0.135187D+00
     34 -0.135202D-02 -0.764381D-02  0.627469D-02  0.436093D-02 -0.205255D-01
     35 -0.302277D-02  0.718941D-02  0.103116D-01  0.114520D-01 -0.728364D-02
     36  0.952821D-02  0.146658D-01  0.310959D-01 -0.413428D-02 -0.342168D-01
     37 -0.192068D-02 -0.141207D-02 -0.105358D-02  0.579697D-03 -0.107338D-01
     38  0.603496D-02  0.521506D-02  0.763848D-02 -0.690097D-02 -0.243486D-01
     39  0.337360D-03  0.853227D-03  0.804197D-03 -0.222642D-02 -0.766218D-02
     40  0.241547D-01  0.718624D-02  0.848048D-02 -0.757340D-02 -0.137622D+00
     41  0.167884D-01  0.800993D-04 -0.131965D-02 -0.249821D-02  0.313106D-02
     42  0.778974D-02 -0.135262D-02 -0.218251D-02  0.901503D-04  0.375318D-02
     43  0.343386D-02 -0.403362D-01  0.242425D-01 -0.142695D-01 -0.131689D+00
     44  0.158426D-01  0.443175D-01  0.106583D+00 -0.115801D+00 -0.371162D+00
     45 -0.340384D-01 -0.276907D-01 -0.110110D+00  0.322484D-01  0.143252D+00
     46  0.118634D-01 -0.274008D-02  0.214484D-01 -0.225924D-01 -0.367538D+00
     47  0.269402D-01  0.290968D-01  0.201586D-01 -0.407026D-01  0.360282D-01
     48 -0.507468D-01 -0.244070D-01 -0.356308D-01  0.166908D-01 -0.152804D-01
               11            12            13            14            15
     11  0.114560D+02
     12  0.237739D+01  0.135466D+02
     13  0.192715D+01 -0.202266D+01  0.561735D+01
     14 -0.524305D+01 -0.205162D+01 -0.149492D+01  0.505123D+01
     15 -0.229023D+01 -0.477473D+01  0.197909D+01  0.227840D+01  0.478921D+01
     16 -0.160632D+00 -0.526796D-01 -0.119006D+00  0.569478D-01 -0.744308D-01
     17  0.535775D+00  0.135302D+00 -0.528511D-02 -0.203445D-01  0.715657D-01
     18  0.109586D+00  0.121942D+00 -0.651298D-01  0.338503D-01  0.597571D-01
     19 -0.252855D+00 -0.281045D-01  0.255767D-01 -0.957825D-03 -0.169577D-01
     20 -0.230249D-01  0.181694D-01 -0.168374D-01 -0.133366D-01  0.922268D-02
     21  0.308129D-01 -0.173331D+00 -0.893876D-02 -0.105061D-02 -0.610760D-02
     22 -0.155863D-01  0.142406D-02  0.560207D-02 -0.283933D-03 -0.421393D-02
     23  0.238424D-01 -0.192992D-02 -0.875915D-02 -0.356026D-02  0.685462D-02
     24  0.182002D-02 -0.101767D-01 -0.157205D-02  0.219481D-03 -0.398085D-03
     25 -0.219424D-01 -0.148136D-01  0.577626D-02  0.163433D-02 -0.537160D-02
     26 -0.154736D-01  0.312330D-02  0.878565D-03 -0.550967D-04 -0.133239D-02
     27  0.211817D-01 -0.461936D-02 -0.744884D-02 -0.346099D-02  0.552872D-02
     28 -0.284485D-01  0.159386D-01  0.639089D-02  0.345999D-02 -0.536440D-02
     29 -0.180665D-01  0.454868D-03  0.183227D-02  0.193824D-03 -0.175432D-02
     30 -0.155336D-01 -0.874099D-02  0.467724D-02  0.271030D-02 -0.483515D-02
     31 -0.434323D+00 -0.172351D+00 -0.457218D-02  0.218060D-01 -0.131974D-01
     32  0.209092D+00  0.259526D+00  0.202438D-02 -0.290977D-01  0.891993D-02
     33  0.268907D+00 -0.226230D+00  0.971127D-02 -0.230250D-01 -0.121705D-01
     34 -0.252685D-01 -0.271336D-01  0.139807D-02  0.103867D-02 -0.594786D-02
     35 -0.216968D-01  0.176179D-01  0.849830D-03 -0.272324D-03 -0.117495D-02
     36  0.694383D-01  0.421930D-01 -0.100838D-01 -0.375760D-02  0.132021D-01
     37 -0.232343D-01 -0.466065D-02  0.995692D-03  0.111090D-03 -0.359253D-02
     38  0.650872D-01  0.206762D-01 -0.784450D-02 -0.397476D-02  0.100788D-01
     39  0.273597D-01 -0.120477D-01 -0.276814D-02 -0.356121D-03  0.227873D-02
     40  0.116280D+00  0.408783D-01 -0.124329D-01 -0.342229D-02  0.118004D-01
     41  0.146501D+00  0.978724D-01 -0.569589D-02 -0.174860D-02  0.148779D-01
     42  0.115612D+00 -0.115105D+00 -0.477799D-02  0.531174D-02  0.740750D-02
     43 -0.420875D+00  0.179357D+00  0.627920D-01 -0.307607D-01 -0.199108D-01
     44  0.408667D+00 -0.290575D+00 -0.724693D-01 -0.113486D-01  0.272421D-01
     45 -0.261781D+00 -0.223217D+00  0.137164D-01  0.146232D-02 -0.289947D-01
     46 -0.881861D-01  0.626861D-01 -0.205175D+00 -0.112952D+00  0.341117D-01
     47  0.301837D+00 -0.456835D+00 -0.227956D+00  0.125172D+00 -0.120495D+00
     48 -0.380864D+00 -0.756983D-01  0.109104D+00 -0.191720D+00 -0.213850D+00
               16            17            18            19            20
     16  0.171294D+02
     17 -0.684056D-01  0.151858D+02
     18  0.372161D+00  0.513823D+00  0.154976D+02
     19 -0.611424D+00 -0.585483D+00 -0.603404D+00  0.114994D+02
     20 -0.588972D+00 -0.615050D+01  0.116239D+00  0.305098D+00  0.159087D+02
     21 -0.667977D+00  0.118329D+00 -0.605334D+01  0.879282D+00  0.105593D-01
     22  0.651875D-01  0.203377D-01 -0.324450D-01 -0.420928D+01 -0.806503D+00
     23 -0.773378D-01  0.986823D-01  0.314820D-01 -0.542422D+00 -0.162159D+01
     24 -0.200523D-01  0.103544D-01  0.394344D-01 -0.346215D-02  0.465868D-01
     25  0.662954D-01 -0.705429D-01  0.105240D+00 -0.401513D+01  0.435170D+00
     26 -0.223383D-01  0.569827D-01  0.109235D-01  0.326743D+00 -0.388648D+01
     27  0.228308D-01  0.305465D-01  0.115405D-01 -0.729590D+00 -0.974419D+00
     28  0.399063D-01  0.155328D-01 -0.112824D+00 -0.360165D+01  0.730616D+00
     29  0.531537D-01  0.100535D+00  0.166263D-01  0.594036D+00 -0.388126D+01
     30 -0.145186D-01  0.204973D-01  0.632089D-01  0.104057D+01  0.906614D+00
     31 -0.451048D+01  0.118750D+01  0.241294D+01  0.131471D+00  0.592253D-01
     32  0.124134D+01 -0.540370D+01  0.171932D+01 -0.257203D-01  0.678329D-02
     33  0.251911D+01  0.169111D+01 -0.287092D+01 -0.285663D-01  0.196053D-02
     34  0.669543D-01  0.437931D-01 -0.710471D-02 -0.156980D-01 -0.784727D-02
     35  0.278171D-01  0.598113D-01  0.310546D-01 -0.191926D-01 -0.157983D-01
     36  0.474405D-01  0.113893D+00 -0.264388D-01  0.183262D-01 -0.923558D-02
     37  0.772363D-01 -0.622440D-01  0.287326D-02 -0.978089D-02  0.192503D-02
     38 -0.172789D-01 -0.197409D-01  0.348869D-01  0.175660D-01  0.174069D-01
     39  0.141574D-01 -0.572201D-01  0.126796D+00 -0.131974D-01 -0.331724D-02
     40  0.632425D-02 -0.129555D-01  0.623492D-01  0.220879D+00  0.247387D-01
     41 -0.615363D-01  0.627946D-01  0.108260D-01  0.252532D-01 -0.570690D-01
     42 -0.633358D-01  0.122459D-02  0.109021D+00  0.586892D-01  0.288699D-02
     43 -0.557360D+01  0.108340D+01 -0.187745D+01  0.105256D+00  0.187111D+00
     44  0.105827D+01 -0.435555D+01 -0.312848D+01  0.124285D+00 -0.208564D+00
     45 -0.180237D+01 -0.311859D+01 -0.798047D+00 -0.299205D+00 -0.107582D+00
     46 -0.475799D+00  0.248817D+00  0.145320D+00  0.352904D+00  0.575064D-01
     47  0.255570D+00  0.373609D+00 -0.235098D+00  0.448463D-01 -0.209294D+00
     48  0.945120D-01 -0.218543D+00  0.409173D+00 -0.293186D+00 -0.280602D-01
               21            22            23            24            25
     21  0.157356D+02
     22  0.142820D-01  0.387089D+01
     23 -0.222669D-01  0.944105D+00  0.153968D+01
     24 -0.434419D+01  0.125710D+00 -0.838734D-01  0.430546D+01
     25 -0.928407D+00  0.679473D-01 -0.120375D-01 -0.909934D-03  0.366171D+01
     26 -0.926064D+00 -0.865327D-02 -0.324379D-01  0.859933D-01 -0.393130D+00
     27 -0.220970D+01 -0.575856D-02  0.476502D-01  0.327733D-01  0.100586D+01
     28  0.129015D+01  0.755960D-01 -0.254119D-01 -0.928412D-02  0.818357D-01
     29  0.910707D+00 -0.281154D-01 -0.337755D-01 -0.837436D-01  0.102166D-01
     30 -0.280031D+01 -0.200517D-02 -0.417835D-01  0.443915D-01 -0.222037D-01
     31  0.902761D-01 -0.308307D-01 -0.139987D-01  0.549700D-02  0.199313D-01
     32 -0.128263D-01  0.435481D-02  0.643729D-02 -0.218363D-03  0.219409D-01
     33 -0.391135D-02 -0.772931D-02  0.146891D-02 -0.440222D-02 -0.127248D-01
     34  0.106540D-01  0.219659D-02 -0.521794D-02  0.424159D-02  0.203949D-01
     35 -0.234742D-01 -0.642943D-02  0.565143D-02 -0.416771D-02 -0.137104D-02
     36  0.225433D-01  0.105459D-01 -0.154820D-01  0.340037D-02  0.260715D-01
     37 -0.952962D-02  0.295523D-01 -0.103557D-02  0.203110D-01  0.138552D-02
     38  0.969954D-02  0.226323D-01 -0.287400D-01  0.881206D-02  0.124310D-01
     39 -0.236149D-01  0.279658D-01 -0.269001D-02 -0.726096D-02  0.103370D-02
     40  0.509826D-01  0.509495D-02 -0.120778D-01  0.599718D-03  0.131095D-01
     41  0.283620D-02 -0.104012D-02  0.390326D-03 -0.223063D-03  0.171864D-02
     42 -0.520534D-01 -0.666086D-03  0.364952D-03 -0.134954D-02 -0.134895D-02
     43 -0.359473D+00  0.501953D-01 -0.633726D-01 -0.848917D-01  0.356477D-01
     44 -0.793935D-01  0.106438D-01 -0.616739D-01 -0.672113D-02  0.473509D-01
     45 -0.444731D-01 -0.925733D-01  0.432655D-01 -0.202285D-02 -0.105728D+00
     46 -0.310980D+00  0.302393D-01 -0.390296D-01 -0.228628D-01  0.537406D-02
     47 -0.230826D-01 -0.147017D-01 -0.873618D-02  0.744068D-02  0.435702D-02
     48 -0.544087D-01 -0.235458D-01  0.214745D-01 -0.884134D-02 -0.137250D-01
               26            27            28            29            30
     26  0.386099D+01
     27  0.904970D+00  0.218484D+01
     28  0.589341D-02 -0.216460D-01  0.309434D+01
     29  0.798109D-01  0.139504D-01 -0.763481D+00  0.383301D+01
     30 -0.232170D-01 -0.942000D-01 -0.120589D+01 -0.885065D+00  0.286908D+01
     31  0.372641D-01 -0.286580D-01  0.118490D+00  0.582848D-01  0.118350D+00
     32 -0.863406D-02 -0.677415D-02  0.567455D-01 -0.388383D-01  0.357641D-01
     33 -0.585330D-02 -0.113236D-01  0.127112D+00  0.387353D-01  0.233987D-01
     34  0.645943D-02  0.474482D-02 -0.118667D-03  0.494356D-03  0.191573D-02
     35 -0.133815D-01  0.329012D-02 -0.262204D-02 -0.297886D-02 -0.347001D-02
     36  0.789411D-02 -0.148109D-01  0.843020D-02  0.413346D-02  0.939093D-02
     37  0.432764D-02 -0.206361D-02  0.106769D-02  0.256197D-02  0.278380D-02
     38  0.882736D-02 -0.105883D-01  0.104326D-01  0.631733D-02  0.107138D-01
     39  0.127284D-02 -0.438991D-02  0.501410D-02  0.387206D-02  0.225876D-02
     40  0.669519D-02 -0.106387D-01  0.266555D-02  0.434586D-02  0.674867D-02
     41 -0.190223D-02 -0.679245D-03 -0.174405D-02 -0.214321D-03 -0.398675D-03
     42 -0.833709D-03 -0.857762D-03 -0.356639D-02 -0.227557D-03 -0.943529D-03
     43  0.452776D-01 -0.106759D+00  0.811479D-01  0.763087D-01  0.548026D-02
     44 -0.237041D-01 -0.560744D-01  0.563470D-01 -0.254009D-01  0.171609D-02
     45 -0.537925D-01  0.842154D-01 -0.579147D-01 -0.283958D-01 -0.494011D-01
     46  0.999889D-02 -0.249574D-01  0.476351D-01  0.253379D-01  0.104145D-01
     47 -0.740664D-02 -0.762310D-02  0.153574D-01 -0.128767D-01  0.370921D-02
     48 -0.941567D-02  0.124181D-01 -0.142675D-01 -0.564990D-02 -0.217350D-01
               31            32            33            34            35
     31  0.149364D+02
     32 -0.380130D+00  0.156969D+02
     33 -0.131113D+01 -0.130001D+01  0.135043D+02
     34 -0.431902D+01  0.254876D+00 -0.424988D+00  0.427084D+01
     35  0.262723D+00 -0.376814D+01 -0.110319D+01 -0.237352D+00  0.382206D+01
     36 -0.523824D+00 -0.131841D+01 -0.223398D+01  0.398865D+00  0.105368D+01
     37 -0.435711D+01 -0.508452D+00 -0.622314D-01  0.830056D-01 -0.104527D-01
     38 -0.605524D+00 -0.166267D+01  0.290195D+00  0.133823D-01 -0.735836D-01
     39 -0.116686D+00  0.515383D+00 -0.442403D+01 -0.121554D-01  0.924409D-01
     40 -0.163362D+01 -0.338453D+00 -0.673064D+00  0.612018D-02 -0.958925D-02
     41 -0.150540D+00 -0.470340D+01  0.146806D-01 -0.447080D-01  0.604478D-01
     42 -0.328516D+00  0.207962D-01 -0.466131D+01  0.762294D-01  0.495130D-02
     43 -0.770786D-01 -0.314324D-01  0.190471D+00 -0.487851D-01 -0.477155D-02
     44 -0.997754D-02 -0.103406D+00  0.518015D-01 -0.271218D-02 -0.289571D-01
     45  0.156298D+00 -0.677609D-01  0.392184D+00  0.492880D-02 -0.663570D-01
     46 -0.181379D+00  0.100737D-01 -0.195966D+00 -0.126130D-01  0.489053D-02
     47  0.257831D-02 -0.278778D+00  0.110215D-01  0.330583D-02 -0.135068D-01
     48 -0.299061D+00 -0.276713D-01  0.277526D+00 -0.185223D-01 -0.212683D-01
               36            37            38            39            40
     36  0.182364D+01
     37 -0.716552D-04  0.432717D+01
     38  0.839068D-01  0.501939D+00  0.152771D+01
     39  0.551647D-01  0.838292D-01 -0.703184D+00  0.409675D+01
     40  0.566237D-01 -0.117311D-01  0.746420D-01  0.313772D-01  0.157391D+01
     41  0.288415D-01  0.103861D+00  0.136905D-01 -0.300334D-01  0.149792D+00
     42  0.201867D-01  0.123215D-01 -0.597231D-02  0.707367D-01  0.237954D+00
     43  0.113029D-01 -0.569917D-01  0.496421D-02  0.998306D-02  0.360766D-01
     44 -0.653690D-01 -0.624814D-02 -0.302466D-01  0.196663D-01 -0.859645D-03
     45  0.173676D+00 -0.802858D-02  0.853702D-01  0.852613D-01  0.707105D-01
     46 -0.182121D-01 -0.179542D-01 -0.208597D-01 -0.263474D-01 -0.888372D-01
     47 -0.140530D-01 -0.138925D-01 -0.182540D-02  0.312484D-01 -0.232100D-02
     48  0.553286D-01 -0.337538D-01  0.658495D-01  0.432704D-01  0.113501D+00
               41            42            43            44            45
     41  0.462864D+01
     42 -0.110633D+00  0.447789D+01
     43 -0.486132D-02  0.162183D-01  0.160027D+01
     44 -0.201013D-01  0.817863D-02  0.109607D+01  0.120026D+02
     45 -0.634743D-02 -0.362754D-02  0.667716D+01  0.402083D+01  0.658933D+01
     46  0.152364D-02  0.181212D-01  0.410306D+01 -0.193921D+01 -0.471283D+01
     47 -0.106108D+00 -0.977163D-02 -0.198205D+01 -0.801315D+01 -0.179198D+00
     48 -0.718445D-02  0.156752D+00 -0.464003D+01 -0.200662D+00 -0.607686D+01
               46            47            48
     46 -0.299225D+01
     47  0.153054D+01  0.779512D+01
     48  0.528818D+01  0.135714D+01  0.557571D+01
 ReadGW:  IGet=0 IStart=         114 Next=        7213 LGW=        7099.
 ICntrl=12127.
 Symmetry not used in FoFDir.
 MinBra= 0 MaxBra= 2 Meth= 1.
 IRaf=       0 NMat=   1 IRICut=       1 DoRegI=T DoRafI=F ISym2E= 0 JSym2E=0.
 PrsmSu:  NPrtUS=   8 ThrOK=T
 PRISM was handed    16285591 working-precision words and  2507 shell-pairs
 PRISM was handed    16285591 working-precision words and  2507 shell-pairs
 PRISM was handed    16285591 working-precision words and  2507 shell-pairs
 PRISM was handed    16285591 working-precision words and  2507 shell-pairs
 PRISM was handed    16285591 working-precision words and  2507 shell-pairs
 PRISM was handed    16285591 working-precision words and  2507 shell-pairs
 PRISM was handed    16285591 working-precision words and  2507 shell-pairs
 PRISM was handed    16285591 working-precision words and  2507 shell-pairs
 Pruned (  75, 302) grid will be used in CalDFT.
 CkSvGd:  ISavGI=        -1 IRadAn=       4 IRASav=       4 ISavGd=        -1.
 CalDSu:  NPrtUS=   8 ThrOK=T
 IPart= 0 IRanGd=          0 ScrnBf=T ScrnGd=T RCrit=4.00D+00 DoMicB=T.
 IPart= 4 IRanGd=          0 ScrnBf=T ScrnGd=T RCrit=4.00D+00 DoMicB=T.
 IPart= 2 IRanGd=          0 ScrnBf=T ScrnGd=T RCrit=4.00D+00 DoMicB=T.
 IPart= 3 IRanGd=          0 ScrnBf=T ScrnGd=T RCrit=4.00D+00 DoMicB=T.
 IPart= 6 IRanGd=          0 ScrnBf=T ScrnGd=T RCrit=4.00D+00 DoMicB=T.
 CutRad = 1000.00    CtRdIn =    0.00    XCrit =  15.00   ICut = 0
 IPart= 1 IRanGd=          0 ScrnBf=T ScrnGd=T RCrit=4.00D+00 DoMicB=T.
 CutRad = 1000.00    CtRdIn =    0.00    XCrit =  15.00   ICut = 0
 CutRad = 1000.00    CtRdIn =    0.00    XCrit =  15.00   ICut = 0
 CutRad = 1000.00    CtRdIn =    0.00    XCrit =  15.00   ICut = 0
 IPart= 5 IRanGd=          0 ScrnBf=T ScrnGd=T RCrit=4.00D+00 DoMicB=T.
 CutRad = 1000.00    CtRdIn =    0.00    XCrit =  15.00   ICut = 0
 CutRad = 1000.00    CtRdIn =    0.00    XCrit =  15.00   ICut = 0
 CutRad = 1000.00    CtRdIn =    0.00    XCrit =  15.00   ICut = 0
 IPart= 7 IRanGd=          0 ScrnBf=T ScrnGd=T RCrit=4.00D+00 DoMicB=T.
 CutRad = 1000.00    CtRdIn =    0.00    XCrit =  15.00   ICut = 0
 IPart= 6        13415 of        15724 points in      34 batches and       80 microbatches, Max-NSigAt=      16 Max-NSgAt2=      16
 IPart= 7        14934 of        17764 points in      36 batches and      100 microbatches, Max-NSigAt=      16 Max-NSgAt2=      16
 IPart= 0        14062 of        15942 points in      32 batches and      105 microbatches, Max-NSigAt=      16 Max-NSgAt2=      16
 IPart= 4        13444 of        14988 points in      30 batches and       85 microbatches, Max-NSigAt=      16 Max-NSgAt2=      16
 IPart= 1        14015 of        15452 points in      31 batches and       91 microbatches, Max-NSigAt=      16 Max-NSgAt2=      16
 IPart= 5        13536 of        15576 points in      32 batches and      115 microbatches, Max-NSigAt=      16 Max-NSgAt2=      16
 IPart= 2        13549 of        15582 points in      33 batches and       93 microbatches, Max-NSigAt=      16 Max-NSgAt2=      16
 IPart= 3        14703 of        16762 points in      34 batches and       92 microbatches, Max-NSigAt=      16 Max-NSgAt2=      16
 Polarizability after L703:
                1             2             3
      1  0.633042D+02
      2 -0.519559D+00  0.538935D+02
      3 -0.527352D+01  0.175525D+00  0.559634D+02
 Dipole Derivatives after L703:
               1            2            3            4            5
      1 0.646032D+00-0.128051D+00 0.427704D-01-0.660190D-01 0.504268D-02
      2-0.123268D+00 0.350022D+00 0.161625D-01-0.550613D-02 0.140468D-02
      3 0.845877D-01 0.432582D-01 0.246464D+00-0.732992D-01-0.406354D-01
               6            7            8            9           10
      1-0.118353D+00-0.290236D-02-0.519008D-01 0.800529D-01-0.867363D+00
      2-0.782167D-01-0.244386D-01 0.537195D-02 0.778110D-01 0.196212D+00
      3-0.118863D+00 0.436840D-01 0.714144D-01-0.387035D-01-0.151846D-01
              11           12           13           14           15
      1 0.168318D+00 0.203735D-01 0.306813D+00-0.858207D-01-0.737325D-02
      2-0.573498D+00-0.107658D+00-0.305330D-01 0.354703D+00 0.545260D-01
      3-0.125657D+00-0.380229D+00-0.426134D-01 0.828351D-01 0.252432D+00
              16           17           18           19           20
      1 0.388821D+00 0.146501D+00-0.912488D-01-0.534167D-01 0.373776D-01
      2 0.377224D-01 0.241116D+00-0.498846D-01 0.584538D-02 0.340985D-01
      3-0.613843D-01-0.500774D-01 0.482516D+00 0.218385D-01 0.456943D-02
              21           22           23           24           25
      1 0.173035D-01 0.417614D-01 0.599835D-01-0.947289D-02 0.422337D-01
      2 0.379320D-02 0.149382D-01-0.103749D+00-0.535769D-02-0.339528D-02
      3 0.320680D-01 0.405181D-02-0.132591D-01 0.868595D-01 0.234484D-01
              26           27           28           29           30
      1-0.252269D-01 0.557024D-01 0.205955D-02-0.515582D-01-0.945249D-01
      2 0.441111D-01 0.650116D-01-0.307402D-01 0.382187D-01-0.697595D-01
      3 0.758694D-01-0.639103D-01-0.510724D-01-0.739836D-01-0.345768D-01
              31           32           33           34           35
      1-0.936552D-01-0.806390D-01-0.938777D-02 0.810539D-01-0.269393D-01
      2-0.331598D-01 0.361118D-01-0.161903D-01-0.337772D-01 0.222417D-01
      3-0.360813D-01-0.339007D-01-0.936314D-02 0.296281D-01 0.824803D-01
              36           37           38           39           40
      1 0.374543D-01 0.554627D-01 0.340124D-01-0.186447D-01-0.670445D-01
      2 0.580862D-01 0.590991D-01-0.117707D+00-0.130786D-01-0.186419D-02
      3-0.662443D-01-0.515331D-02-0.508011D-01 0.543851D-01-0.415383D-02
              41           42           43           44           45
      1 0.160822D-01 0.416429D-01-0.358214D+00-0.224529D-01 0.828601D-01
      2 0.892544D-01-0.324123D-02 0.507910D-01-0.175178D+00 0.975699D-02
      3-0.989434D-02 0.517103D-01 0.383754D-01-0.329650D-02-0.269589D+00
              46           47           48
      1-0.556213D-01 0.527083D-02-0.291548D-01
      2-0.779256D-01-0.246521D+00 0.582393D-01
      3 0.433283D-01 0.410780D-01-0.224956D+00
 Hessian after L703:
                1             2             3             4             5
      1  0.509638D+00
      2  0.545872D-01  0.471792D+00
      3 -0.844380D-02 -0.426475D-01  0.608387D+00
      4 -0.787633D-01 -0.253336D-01 -0.740517D-01  0.100854D+00
      5 -0.243586D-01 -0.667689D-01 -0.545547D-01  0.220669D-01  0.718809D-01
      6 -0.758245D-01 -0.580891D-01 -0.243193D+00  0.906571D-01  0.624919D-01
      7 -0.849776D-01 -0.543430D-01  0.698722D-01  0.660227D-02  0.624924D-02
      8 -0.613384D-01 -0.131253D+00  0.104125D+00  0.394936D-02  0.629118D-02
      9  0.763529D-01  0.104236D+00 -0.187510D+00  0.104351D-01  0.162928D-01
     10 -0.226338D+00  0.422635D-01 -0.201667D-01 -0.344255D-01  0.716712D-02
     11  0.110424D-01 -0.831209D-01  0.190815D-01 -0.329175D-02  0.514550D-02
     12  0.790348D-02  0.161545D-01 -0.819138D-01 -0.296738D-01  0.751430D-02
     13 -0.305476D-01 -0.257722D-01  0.325634D-01  0.112807D-02 -0.914537D-03
     14  0.515122D-02  0.600664D-02 -0.602618D-02  0.121029D-02 -0.304810D-03
     15  0.691460D-03 -0.179656D-02 -0.229296D-03 -0.191231D-02 -0.393405D-03
     16 -0.764117D-01  0.707482D-03  0.491315D-02  0.350292D-02 -0.106967D-01
     17  0.108583D-01 -0.147916D+00 -0.240582D-01 -0.573309D-03 -0.138243D-01
     18 -0.128754D-02 -0.200644D-01 -0.811488D-01  0.332969D-02 -0.304876D-01
     19 -0.124716D-01  0.973503D-02  0.117814D-02  0.544416D-03 -0.157144D-02
     20  0.318934D-01 -0.115192D-02 -0.327688D-02 -0.483121D-03  0.261415D-03
     21  0.430000D-02 -0.251525D-02  0.545481D-03  0.848873D-03  0.699158D-04
     22 -0.497140D-02 -0.322843D-02  0.212718D-03  0.192563D-03  0.191987D-03
     23  0.703235D-03  0.109917D-02  0.413052D-03 -0.156450D-03  0.130137D-03
     24  0.104349D-02  0.612146D-03 -0.204332D-03 -0.141315D-03  0.344864D-03
     25  0.439936D-03 -0.942991D-03  0.290065D-03 -0.157639D-05 -0.106269D-04
     26  0.000000D+00 -0.254257D-03 -0.554307D-03  0.220555D-03  0.710550D-04
     27  0.943043D-04  0.883456D-03 -0.661168D-03  0.841698D-04  0.838024D-04
     28  0.523977D-03 -0.153960D-02 -0.141818D-02 -0.639376D-04  0.881241D-03
     29  0.103686D-02  0.379671D-05  0.619859D-03  0.353186D-03  0.258867D-03
     30  0.403226D-03 -0.490311D-03  0.153339D-03 -0.399204D-04  0.280122D-03
     31  0.645554D-02 -0.229461D-03  0.415086D-02 -0.171501D-03  0.235946D-02
     32 -0.169482D-01 -0.166193D-01 -0.291957D-01  0.157902D-02 -0.571966D-02
     33 -0.200850D-02 -0.101839D-01 -0.356696D-02  0.160899D-03  0.629713D-03
     34  0.988579D-03  0.875938D-04  0.753074D-03 -0.125826D-03  0.203907D-03
     35  0.301394D-03  0.306253D-04  0.144011D-03 -0.134161D-04  0.246391D-03
     36  0.284114D-03  0.778380D-03  0.456511D-03 -0.191059D-03  0.624713D-04
     37 -0.343352D-02 -0.144588D-03 -0.361064D-02  0.452814D-03 -0.119422D-02
     38 -0.148832D-02  0.999150D-03 -0.191994D-02  0.206327D-03 -0.698867D-03
     39 -0.324959D-02 -0.554824D-03 -0.361641D-02  0.246766D-03 -0.138024D-02
     40 -0.170293D-02  0.137817D-02 -0.145088D-03  0.126211D-03 -0.158635D-03
     41 -0.206447D-02  0.171787D-03  0.485771D-03  0.401526D-03  0.173807D-03
     42  0.134452D-03  0.562942D-03  0.582735D-03  0.237925D-04  0.123867D-03
     43  0.132826D-02 -0.166903D-02 -0.461120D-02  0.258794D-03  0.106134D-02
     44 -0.142436D-01 -0.323185D-01  0.384501D-01  0.392704D-03  0.267492D-02
     45  0.305904D-02  0.151953D-01 -0.110449D-01 -0.255037D-03 -0.186204D-02
     46  0.243454D-03  0.444387D-02 -0.148624D-02 -0.110673D-03 -0.127642D-02
     47  0.486671D-02 -0.700036D-03 -0.108585D-02 -0.528178D-03  0.182363D-03
     48 -0.345254D-02 -0.208106D-02  0.296358D-02  0.478829D-03  0.784166D-03
                6             7             8             9            10
      6  0.258363D+00
      7 -0.711595D-02  0.113089D+00
      8 -0.693478D-02  0.608367D-01  0.138014D+00
      9 -0.197228D-01 -0.857854D-01 -0.112497D+00  0.195962D+00
     10 -0.677004D-02 -0.318076D-01  0.449541D-02  0.303098D-02  0.435981D+00
     11  0.198592D-02 -0.192648D-01  0.750927D-02 -0.205051D-02  0.621482D-01
     12  0.827228D-02  0.279189D-01 -0.683713D-02  0.452870D-02 -0.126621D+00
     13 -0.774913D-04 -0.654772D-02  0.223807D-02 -0.129714D-02 -0.122873D+00
     14  0.110357D-02  0.314986D-02  0.541216D-03 -0.931241D-03 -0.130069D+00
     15  0.681694D-03 -0.531204D-03 -0.266465D-03  0.168499D-02  0.146279D+00
     16 -0.281293D-02  0.228210D-02 -0.123442D-01 -0.271447D-02 -0.270103D-01
     17 -0.323063D-03 -0.309279D-04 -0.170814D-01 -0.412136D-02  0.134756D-01
     18 -0.773737D-02 -0.300819D-02  0.236453D-01  0.272763D-02  0.384014D-02
     19 -0.328656D-03  0.236603D-04 -0.735459D-03  0.194834D-03  0.191897D-02
     20 -0.225755D-03  0.853781D-03  0.109836D-02 -0.316747D-04  0.536467D-02
     21 -0.234604D-03 -0.461303D-04  0.615406D-03  0.110693D-03  0.802302D-04
     22  0.307867D-03 -0.350111D-04 -0.149501D-03 -0.324498D-03 -0.181719D-02
     23  0.230568D-04 -0.193321D-03  0.342172D-03 -0.606147D-04  0.295327D-03
     24  0.284692D-03 -0.201837D-03 -0.292866D-03  0.102378D-03  0.244821D-03
     25 -0.108871D-03  0.236685D-04  0.890946D-03 -0.533707D-04  0.292475D-03
     26  0.147495D-04  0.600368D-03 -0.240773D-03 -0.120363D-03 -0.175366D-03
     27  0.228005D-03 -0.199595D-04 -0.598111D-03  0.493019D-03 -0.824426D-05
     28  0.841408D-03  0.267976D-04  0.191498D-03  0.159033D-04  0.884628D-03
     29 -0.115172D-03 -0.833961D-04 -0.647930D-04  0.177058D-03 -0.591401D-03
     30  0.352590D-03 -0.231246D-03  0.114522D-04 -0.189197D-03  0.101821D-03
     31  0.815062D-03 -0.231110D-04 -0.304624D-04 -0.167425D-03 -0.102632D-02
     32 -0.960137D-03 -0.263188D-03  0.103193D-02  0.256138D-03 -0.221106D-02
     33  0.754163D-03  0.394422D-03  0.303773D-04 -0.755445D-05 -0.204771D-02
     34  0.113511D-03  0.778998D-04 -0.199602D-03  0.163970D-04 -0.147738D-03
     35  0.184132D-03 -0.956236D-04 -0.301984D-03 -0.250531D-03 -0.702415D-04
     36  0.335988D-03 -0.223892D-03 -0.843275D-03  0.106171D-03  0.842025D-04
     37 -0.333773D-03  0.000000D+00  0.287727D-03  0.714966D-04  0.126347D-02
     38 -0.276742D-03  0.354179D-05  0.193575D-03  0.169864D-03 -0.105351D-03
     39 -0.800142D-04 -0.132966D-03 -0.205776D-03  0.705732D-04  0.494066D-04
     40  0.254858D-04 -0.370818D-04  0.172642D-03 -0.718686D-04  0.166404D-02
     41  0.786400D-04  0.161688D-03 -0.390172D-04 -0.152912D-03  0.144090D-02
     42  0.123837D-04  0.590557D-04  0.661223D-04 -0.126872D-05  0.600125D-03
     43  0.123229D-02  0.170814D-02  0.126721D-02  0.118351D-02 -0.131079D-02
     44  0.100092D-02  0.266049D-02 -0.684035D-02 -0.101881D-02 -0.225154D-02
     45  0.128394D-02 -0.125171D-02  0.108037D-02  0.156583D-02  0.623933D-03
     46 -0.620531D-03 -0.406724D-03  0.468052D-03 -0.886961D-03  0.475163D-02
     47  0.418510D-04 -0.241395D-03  0.799675D-03  0.103420D-03 -0.117699D-02
     48  0.398589D-03  0.303901D-03 -0.109811D-02  0.784003D-04  0.679305D-03
               11            12            13            14            15
     11  0.284470D+00
     12 -0.223561D+00  0.297940D+00
     13 -0.937493D-01  0.111718D+00  0.160729D+00
     14 -0.195157D+00  0.206338D+00  0.119629D+00  0.188446D+00
     15  0.199415D+00 -0.231212D+00 -0.144466D+00 -0.197586D+00  0.232538D+00
     16  0.379991D-01  0.678843D-02 -0.203267D-03  0.372644D-02 -0.830820D-03
     17 -0.656110D-02 -0.213688D-02 -0.756941D-03  0.238452D-02  0.109575D-02
     18  0.211851D-03  0.128379D-02  0.879911D-03 -0.343574D-02  0.134879D-02
     19 -0.497415D-03  0.234092D-03 -0.733713D-04  0.166749D-03  0.222497D-04
     20 -0.706961D-02 -0.204312D-02 -0.531360D-03 -0.108219D-02  0.738039D-03
     21 -0.218204D-03  0.623610D-03 -0.211700D-03  0.486967D-03 -0.384959D-03
     22  0.229628D-02  0.669382D-03  0.246557D-03  0.308654D-03 -0.291320D-03
     23 -0.183039D-04 -0.876280D-04 -0.238126D-04 -0.175451D-03  0.569847D-04
     24 -0.413533D-03  0.349615D-03 -0.990804D-04 -0.112507D-03  0.154846D-03
     25  0.233201D-03 -0.589314D-03  0.171980D-03 -0.417589D-03  0.140919D-03
     26  0.551791D-04  0.156680D-03 -0.179211D-04 -0.111280D-04 -0.252378D-04
     27 -0.499015D-03  0.411755D-03 -0.155592D-03  0.180431D-03 -0.564380D-04
     28  0.206252D-03  0.642743D-03 -0.933874D-04 -0.238319D-03 -0.177283D-03
     29 -0.112339D-04  0.142762D-03 -0.195457D-04  0.974296D-04 -0.835366D-04
     30  0.349975D-03  0.200039D-03  0.357409D-04 -0.141937D-03 -0.369445D-05
     31 -0.933717D-03 -0.111570D-03  0.471583D-03  0.147439D-03  0.956687D-03
     32  0.553593D-03 -0.112397D-02  0.634884D-03 -0.856354D-03  0.332873D-03
     33  0.280515D-03  0.256177D-03 -0.290199D-04  0.402789D-03 -0.578971D-03
     34  0.669160D-04 -0.318914D-03 -0.163338D-03 -0.122560D-03 -0.302789D-03
     35 -0.140846D-03  0.167532D-03 -0.757542D-04  0.219526D-03 -0.420639D-04
     36 -0.667545D-03  0.451189D-03 -0.180726D-03  0.590316D-03 -0.355178D-05
     37  0.139844D-02  0.118031D-02 -0.117196D-04 -0.261017D-03 -0.447200D-03
     38  0.171253D-03 -0.896695D-04 -0.100346D-03 -0.847743D-04  0.140573D-03
     39  0.302247D-03  0.308046D-03 -0.412329D-04 -0.221013D-04  0.233188D-03
     40  0.201801D-02  0.130440D-02  0.259098D-03 -0.237503D-03 -0.319835D-03
     41 -0.404657D-03  0.380761D-03  0.355278D-04 -0.309340D-03 -0.139264D-02
     42 -0.259167D-03 -0.513694D-03  0.652764D-04 -0.116625D-02 -0.825290D-03
     43 -0.374045D-04 -0.431067D-03 -0.114838D-02 -0.655619D-03  0.139319D-02
     44  0.416843D-02 -0.247129D-02  0.468148D-02  0.447761D-03 -0.116836D-02
     45 -0.101406D-02 -0.333053D-03  0.275955D-03  0.537895D-03  0.105190D-02
     46  0.365537D-03 -0.614506D-03 -0.134448D-02 -0.148783D-02 -0.204389D-03
     47 -0.958989D-02  0.749653D-02 -0.525692D-02 -0.162350D-03  0.975682D-03
     48  0.705677D-02 -0.652914D-03  0.101932D-02 -0.217766D-03 -0.439894D-02
               16            17            18            19            20
     16  0.525813D+00
     17 -0.248072D-01  0.442629D+00
     18  0.384822D-01  0.579294D-01  0.384542D+00
     19 -0.180552D+00  0.144783D-01  0.514002D-02  0.471387D+00
     20  0.225209D-01 -0.844486D-01 -0.575657D-02  0.152741D-01  0.576629D+00
     21 -0.133557D-02 -0.301025D-02 -0.737078D-01  0.104364D-01 -0.261749D-02
     22 -0.885407D-02  0.355919D-01  0.733580D-03 -0.577577D-01  0.520029D-01
     23  0.124586D-02 -0.461614D-02 -0.661005D-03  0.547635D-01 -0.301395D+00
     24  0.188393D-02 -0.381572D-02 -0.212434D-02 -0.885592D-03 -0.146765D-02
     25 -0.685160D-02 -0.142168D-01  0.275605D-01 -0.713848D-01 -0.316178D-01
     26  0.140218D-02  0.145014D-03 -0.438157D-02 -0.328991D-01 -0.878971D-01
     27  0.130365D-05  0.101615D-02 -0.396873D-02  0.706303D-01  0.922216D-01
     28 -0.166765D-01 -0.148878D-01 -0.263884D-01 -0.111332D+00 -0.549548D-01
     29  0.157322D-02  0.123973D-02  0.479057D-02 -0.557261D-01 -0.977882D-01
     30  0.214108D-02  0.311740D-02  0.250240D-02 -0.981074D-01 -0.863422D-01
     31 -0.112971D+00 -0.229450D-01 -0.408043D-01 -0.228368D-01 -0.147617D-01
     32 -0.259518D-01 -0.976082D-01 -0.372597D-01  0.966563D-03  0.213270D-02
     33 -0.398069D-01 -0.372909D-01 -0.121953D+00 -0.292551D-02  0.103580D-02
     34  0.235007D-02  0.909116D-02 -0.146255D-01  0.308902D-03  0.472369D-03
     35  0.392554D-02  0.512632D-02 -0.101190D-01  0.166433D-03  0.956943D-04
     36  0.706721D-02  0.125538D-01 -0.202339D-01  0.975505D-03  0.408144D-03
     37  0.310283D-02 -0.192454D-01 -0.159592D-02  0.103156D-02 -0.777481D-03
     38  0.292518D-02 -0.140431D-01 -0.115674D-02  0.844461D-03  0.541688D-03
     39  0.572732D-02 -0.261241D-01 -0.525699D-02  0.130121D-02  0.205118D-03
     40 -0.183887D-01  0.781970D-03  0.264224D-02 -0.609556D-03 -0.193769D-02
     41 -0.132862D-01  0.104124D-02  0.490185D-02 -0.697969D-03 -0.102564D-02
     42 -0.264819D-01  0.330953D-02  0.437294D-02 -0.168489D-02 -0.226277D-02
     43 -0.613045D-01  0.250660D-01 -0.219504D-01 -0.207865D-01 -0.194645D-01
     44  0.324822D-01 -0.722238D-01  0.256917D-01 -0.261537D-02  0.236160D-02
     45 -0.347151D-01  0.334241D-01 -0.662729D-01  0.132791D-01  0.450264D-02
[...]
    X8       -2.66595   0.00000   0.00000  -0.00017  -0.00010  -2.66605
    Y8       -2.76824  -0.00001   0.00000  -0.00011  -0.00006  -2.76829
    Z8       -0.57033   0.00000   0.00000  -0.00052  -0.00044  -0.57077
    X9       -2.47773   0.00000   0.00000   0.00004   0.00012  -2.47761
    Y9        0.06606   0.00000   0.00000   0.00026   0.00032   0.06638
    Z9       -2.33889  -0.00001   0.00000   0.00006   0.00016  -2.33873
   X10       -2.07975   0.00000   0.00000   0.00028   0.00025  -2.07949
   Y10        0.13375  -0.00001   0.00000  -0.00049  -0.00043   0.13332
   Z10        0.98935   0.00000   0.00000   0.00009   0.00020   0.98954
   X11       -7.49082   0.00000   0.00000  -0.00026  -0.00015  -7.49097
   Y11       -1.51575   0.00001   0.00000  -0.00003  -0.00006  -1.51581
   Z11       -2.40612   0.00000   0.00000   0.00058   0.00051  -2.40561
   X12       -7.08025   0.00000   0.00000  -0.00054  -0.00039  -7.08064
   Y12       -0.52154   0.00001   0.00000  -0.00014  -0.00016  -0.52170
   Z12       -4.16867  -0.00001   0.00000   0.00043   0.00038  -4.16830
   X13       -7.01742  -0.00001   0.00000  -0.00039  -0.00024  -7.01766
   Y13       -3.51041   0.00000   0.00000  -0.00008  -0.00010  -3.51051
   Z13       -2.64353  -0.00001   0.00000   0.00062   0.00056  -2.64298
   X14       -9.50503  -0.00001   0.00000  -0.00021  -0.00012  -9.50515
   Y14       -1.33257   0.00001   0.00000   0.00011   0.00005  -1.33252
   Z14       -2.02800   0.00000   0.00000   0.00091   0.00077  -2.02723
   X15       -6.53044   0.00004   0.00000   0.00054   0.00051  -6.52993
   Y15       -1.84018  -0.00001   0.00000   0.00086   0.00084  -1.83933
   Z15        2.09408   0.00000   0.00000   0.00066   0.00062   2.09470
   X16       -8.84541  -0.00003   0.00000  -0.00059  -0.00066  -8.84606
   Y16       -1.51555   0.00000   0.00000  -0.00149  -0.00154  -1.51708
   Z16        2.94120  -0.00001   0.00000  -0.00131  -0.00143   2.93977
         Item               Value     Threshold  Converged?
 Maximum Force            0.000041     0.000450     YES
 RMS     Force            0.000013     0.000300     YES
 Maximum Displacement     0.001537     0.001800     YES
 RMS     Displacement     0.000447     0.001200     YES
 Predicted change in Energy=-2.549626D-08
 Optimization completed.
    -- Stationary point found.
 GradGradGradGradGradGradGradGradGradGradGradGradGradGradGradGradGradGrad


 Test job not archived.
 1\1\GINC-NODE04\Freq\UB3LYP\CBSB7\C4H9O3(2)\NYEE\10-Jun-2013\0\\# freq
  nosymm b3lyp/cbsb7 iop(7/33=1)\\Title Card Required\\0,2\C,-3.485869,
 1.283902,0.126489\H,-3.031372,1.567088,1.086831\H,-3.009232,1.882712,-
 0.654606\O,-4.862169,1.592012,0.086178\H,-5.287237,1.009694,0.729613\C
 ,-3.15113,-0.193593,-0.139196\C,-1.650142,-0.399779,-0.295145\H,-1.410
 761,-1.464888,-0.301808\H,-1.311158,0.03496,-1.237688\H,-1.100556,0.07
 0777,0.523539\C,-3.963972,-0.802101,-1.273263\H,-3.746706,-0.275989,-2
 .205966\H,-3.713457,-1.857628,-1.398898\H,-5.029847,-0.705166,-1.07317
 4\O,-3.45576,-0.973781,1.108141\O,-4.680787,-0.801992,1.556416\\Versio
 n=AM64L-G03RevD.01\HF=-383.4960298\S2=0.753622\S2-1=0.\S2A=0.750008\RM
 SD=4.530e-09\RMSF=1.281e-05\ZeroPoint=0.1323086\Thermal=0.1406332\Dipo
 le=0.8471508,-0.0841717,-0.5826663\DipoleDeriv=0.646032,-0.1232682,0.0
 845877,-0.1280511,0.3500222,0.0432582,0.0427704,0.0161625,0.2464636,-0
 .066019,-0.0055061,-0.0732992,0.0050427,0.0014047,-0.0406354,-0.118352
 8,-0.0782167,-0.1188625,-0.0029024,-0.0244386,0.043684,-0.0519008,0.00
 53719,0.0714144,0.0800529,0.077811,-0.0387035,-0.8673633,0.1962123,-0.
 0151846,0.1683183,-0.5734985,-0.1256567,0.0203735,-0.1076582,-0.380229
 ,0.3068127,-0.030533,-0.0426134,-0.0858207,0.3547026,0.0828351,-0.0073
 732,0.054526,0.2524324,0.3888206,0.0377224,-0.0613843,0.1465015,0.2411
 16,-0.0500774,-0.0912488,-0.0498846,0.4825155,-0.0534167,0.0058454,0.0
 218385,0.0373776,0.0340985,0.0045694,0.0173035,0.0037932,0.032068,0.04
 17614,0.0149382,0.0040518,0.0599835,-0.1037492,-0.0132591,-0.0094729,-
 0.0053577,0.0868595,0.0422337,-0.0033953,0.0234484,-0.0252269,0.044111
 1,0.0758694,0.0557024,0.0650116,-0.0639103,0.0020595,-0.0307402,-0.051
 0724,-0.0515582,0.0382187,-0.0739836,-0.0945249,-0.0697595,-0.0345768,
 -0.0936552,-0.0331598,-0.0360813,-0.080639,0.0361118,-0.0339007,-0.009
 3878,-0.0161903,-0.0093631,0.0810539,-0.0337772,0.0296281,-0.0269393,0
 .0222417,0.0824803,0.0374543,0.0580862,-0.0662443,0.0554627,0.0590991,
 -0.0051533,0.0340124,-0.1177067,-0.0508011,-0.0186447,-0.0130786,0.054
 3851,-0.0670445,-0.0018642,-0.0041538,0.0160822,0.0892544,-0.0098943,0
 .0416429,-0.0032412,0.0517103,-0.3582142,0.050791,0.0383754,-0.0224529
 ,-0.175178,-0.0032965,0.0828601,0.009757,-0.2695894,-0.0556213,-0.0779
 256,0.0433283,0.0052708,-0.246521,0.041078,-0.0291548,0.0582393,-0.224
 9556\Polar=63.3041696,-0.5195587,53.8934713,-5.2735182,0.1755252,55.96
 33712\PG=C01 [X(C4H9O3)]\NImag=0\\0.50963769,0.05458724,0.47179209,-0.
 00844380,-0.04264748,0.60838652,-0.07876328,-0.02533361,-0.07405174,0.
 10085424,-0.02435859,-0.06676894,-0.05455470,0.02206686,0.07188094,-0.
 07582448,-0.05808908,-0.24319271,0.09065709,0.06249190,0.25836317,-0.0
 8497763,-0.05434301,0.06987216,0.00660227,0.00624924,-0.00711595,0.113
 08935,-0.06133839,-0.13125348,0.10412494,0.00394936,0.00629118,-0.0069
 3478,0.06083674,0.13801443,0.07635288,0.10423614,-0.18750978,0.0104351
 0,0.01629281,-0.01972279,-0.08578537,-0.11249742,0.19596221,-0.2263377
 6,0.04226353,-0.02016672,-0.03442551,0.00716712,-0.00677004,-0.0318075
 9,0.00449541,0.00303098,0.43598118,0.01104245,-0.08312090,0.01908150,-
 0.00329175,0.00514550,0.00198592,-0.01926485,0.00750927,-0.00205051,0.
 06214821,0.28447006,0.00790348,0.01615448,-0.08191384,-0.02967384,0.00
 751430,0.00827228,0.02791892,-0.00683713,0.00452870,-0.12662079,-0.223
 56131,0.29794015,-0.03054759,-0.02577219,0.03256343,0.00112807,-0.0009
 1454,-0.00007749,-0.00654772,0.00223807,-0.00129714,-0.12287321,-0.093
 74929,0.11171825,0.16072916,0.00515122,0.00600664,-0.00602618,0.001210
 29,-0.00030481,0.00110357,0.00314986,0.00054122,-0.00093124,-0.1300688
 6,-0.19515676,0.20633796,0.11962865,0.18844607,0.00069146,-0.00179656,
 -0.00022930,-0.00191231,-0.00039340,0.00068169,-0.00053120,-0.00026646
 ,0.00168499,0.14627854,0.19941457,-0.23121185,-0.14446590,-0.19758621,
 0.23253759,-0.07641170,0.00070748,0.00491315,0.00350292,-0.01069669,-0
 .00281293,0.00228210,-0.01234424,-0.00271447,-0.02701028,0.03799913,0.
 00678843,-0.00020327,0.00372644,-0.00083082,0.52581280,0.01085832,-0.1
 4791587,-0.02405821,-0.00057331,-0.01382431,-0.00032306,-0.00003093,-0
 .01708142,-0.00412136,0.01347564,-0.00656110,-0.00213688,-0.00075694,0
 .00238452,0.00109575,-0.02480724,0.44262885,-0.00128754,-0.02006438,-0
 .08114875,0.00332969,-0.03048755,-0.00773737,-0.00300819,0.02364527,0.
 00272763,0.00384014,0.00021185,0.00128379,0.00087991,-0.00343574,0.001
 34879,0.03848221,0.05792935,0.38454235,-0.01247160,0.00973503,0.001178
 14,0.00054442,-0.00157144,-0.00032866,0.00002366,-0.00073546,0.0001948
 3,0.00191897,-0.00049742,0.00023409,-0.00007337,0.00016675,0.00002225,
 -0.18055219,0.01447827,0.00514002,0.47138726,0.03189339,-0.00115192,-0
 .00327688,-0.00048312,0.00026141,-0.00022576,0.00085378,0.00109836,-0.
 00003167,0.00536467,-0.00706961,-0.00204312,-0.00053136,-0.00108219,0.
 00073804,0.02252094,-0.08444862,-0.00575657,0.01527413,0.57662949,0.00
 430000,-0.00251525,0.00054548,0.00084887,0.00006992,-0.00023460,-0.000
 04613,0.00061541,0.00011069,0.00008023,-0.00021820,0.00062361,-0.00021
 170,0.00048697,-0.00038496,-0.00133557,-0.00301025,-0.07370785,0.01043
 637,-0.00261749,0.57838869,-0.00497140,-0.00322843,0.00021272,0.000192
 56,0.00019199,0.00030787,-0.00003501,-0.00014950,-0.00032450,-0.001817
 19,0.00229628,0.00066938,0.00024656,0.00030865,-0.00029132,-0.00885407
 ,0.03559194,0.00073358,-0.05775771,0.05200295,-0.00032751,0.06418587,0
 .00070323,0.00109917,0.00041305,-0.00015645,0.00013014,0.00002306,-0.0
 0019332,0.00034217,-0.00006061,0.00029533,-0.00001830,-0.00008763,-0.0
 0002381,-0.00017545,0.00005698,0.00124586,-0.00461614,-0.00066101,0.05
 476351,-0.30139515,-0.00197583,-0.06016956,0.32591447,0.00104349,0.000
 61215,-0.00020433,-0.00014132,0.00034486,0.00028469,-0.00020184,-0.000
 29287,0.00010238,0.00024482,-0.00041353,0.00034961,-0.00009908,-0.0001
 1251,0.00015485,0.00188393,-0.00381572,-0.00212434,-0.00088559,-0.0014
 6765,-0.04578375,-0.00010579,0.00182394,0.04538622,0.00043994,-0.00094
 299,0.00029007,-0.00000158,-0.00001063,-0.00010887,0.00002367,0.000890
 95,-0.00005337,0.00029248,0.00023320,-0.00058931,0.00017198,-0.0004175
 9,0.00014092,-0.00685160,-0.01421676,0.02756051,-0.07138475,-0.0316178
 4,0.06830595,0.00165900,0.00210752,-0.00701212,0.07714671,0.00000073,-
 0.00025426,-0.00055431,0.00022055,0.00007106,0.00001475,0.00060037,-0.
 00024077,-0.00012036,-0.00017537,0.00005518,0.00015668,-0.00001792,-0.
 00001113,-0.00002524,0.00140218,0.00014501,-0.00438157,-0.03289913,-0.
 08789711,0.09231498,-0.01040984,-0.01097848,0.02766813,0.03491476,0.09
 235914,0.00009430,0.00088346,-0.00066117,0.00008417,0.00008380,0.00022
 800,-0.00001996,-0.00059811,0.00049302,-0.00000824,-0.00049902,0.00041
 176,-0.00015559,0.00018043,-0.00005644,0.00000130,0.00101615,-0.003968
 73,0.07063026,0.09222155,-0.24518113,-0.00117328,-0.00067223,0.0012181
 9,-0.07680359,-0.10176206,0.26489574,0.00052398,-0.00153960,-0.0014181
 8,-0.00006394,0.00088124,0.00084141,0.00002680,0.00019150,0.00001590,0
 .00088463,0.00020625,0.00064274,-0.00009339,-0.00023832,-0.00017728,-0
 .01667651,-0.01488777,-0.02638838,-0.11133198,-0.05495477,-0.09558764,
 0.00339998,0.00247506,0.00605993,0.00534354,0.00581784,0.00768148,0.12
 277781,0.00103686,0.00000380,0.00061986,0.00035319,0.00025887,-0.00011
 517,-0.00008340,-0.00006479,0.00017706,-0.00059140,-0.00001123,0.00014
 276,-0.00001955,0.00009743,-0.00008354,0.00157322,0.00123973,0.0047905
 7,-0.05572606,-0.09778824,-0.08651234,-0.01592794,-0.01224966,-0.02440
 750,0.00799225,0.00599216,0.01006610,0.06040950,0.10140247,0.00040323,
 -0.00049031,0.00015334,-0.00003992,0.00028012,0.00035259,-0.00023125,0
 .00001145,-0.00018920,0.00010182,0.00034997,0.00020004,0.00003574,-0.0
 0014194,-0.00000369,0.00214108,0.00311740,0.00250240,-0.09810736,-0.08
 634216,-0.19673867,0.00114300,0.00054264,0.00029860,-0.01361257,-0.012
 75583,-0.01919571,0.10754977,0.09549270,0.21073009,0.00645554,-0.00022
 946,0.00415086,-0.00017150,0.00235946,0.00081506,-0.00002311,-0.000030
 46,-0.00016743,-0.00102632,-0.00093372,-0.00011157,0.00047158,0.000147
 44,0.00095669,-0.11297131,-0.02294497,-0.04080425,-0.02283679,-0.01476
 171,-0.02734957,0.00168042,-0.00041364,-0.00026742,0.00150795,-0.00008
 608,-0.00065216,-0.00605399,0.00075397,0.00013746,0.55351148,-0.016948
 15,-0.01661933,-0.02919572,0.00157902,-0.00571966,-0.00096014,-0.00026
 319,0.00103193,0.00025614,-0.00221106,0.00055359,-0.00112397,0.0006348
 8,-0.00085635,0.00033287,-0.02595180,-0.09760821,-0.03725972,0.0009665
 6,0.00213270,0.00218758,0.00094965,0.00048314,0.00072772,-0.00019317,0
 .00008887,-0.00004672,0.00153718,0.00011721,0.00009484,-0.02645859,0.5
 6502197,-0.00200850,-0.01018390,-0.00356696,0.00016090,0.00062971,0.00
 075416,0.00039442,0.00003038,-0.00000755,-0.00204771,0.00028052,0.0002
 5618,-0.00002902,0.00040279,-0.00057897,-0.03980695,-0.03729085,-0.121
 95313,-0.00292551,0.00103580,0.00504194,0.00071501,-0.00006942,-0.0001
 9284,0.00030059,0.00000231,-0.00012245,0.00276496,-0.00011114,0.000527
 41,-0.04683580,-0.03251746,0.51032077,0.00098858,0.00008759,0.00075307
 ,-0.00012583,0.00020391,0.00011351,0.00007790,-0.00019960,0.00001640,-
 0.00014774,0.00006692,-0.00031891,-0.00016334,-0.00012256,-0.00030279,
 0.00235007,0.00909116,-0.01462553,0.00030890,0.00047237,0.00042791,-0.
 00005076,-0.00005019,-0.00015571,-0.00056171,-0.00018065,-0.00026002,0
 .00020671,-0.00007666,0.00027042,-0.05633746,-0.02671080,0.04615270,0.
 05834177,0.00030139,0.00003063,0.00014401,-0.00001342,0.00024639,0.000
 18413,-0.00009562,-0.00030198,-0.00025053,-0.00007024,-0.00014085,0.00
 016753,-0.00007575,0.00021953,-0.00004206,0.00392554,0.00512632,-0.010
 11899,0.00016643,0.00009569,0.00033748,-0.00008711,0.00004389,0.000089
 62,0.00004677,0.00031273,-0.00008774,0.00020562,-0.00001364,-0.0000759
 0,-0.02692630,-0.10928126,0.10922403,0.03040245,0.11496515,0.00028411,
 0.00077838,0.00045651,-0.00019106,0.00006247,0.00033599,-0.00022389,-0
 .00084327,0.00010617,0.00008420,-0.00066754,0.00045119,-0.00018073,0.0
 0059032,-0.00000355,0.00706721,0.01255379,-0.02023387,0.00097550,0.000
 40814,0.00060318,0.00000135,-0.00011248,0.00002762,-0.00072617,-0.0001
 4556,0.00052158,0.00000374,-0.00028306,0.00029061,0.04488457,0.1077013
 4,-0.23741859,-0.04861907,-0.11894227,0.25883993,-0.00343352,-0.000144
 59,-0.00361064,0.00045281,-0.00119422,-0.00033377,0.00000098,0.0002877
 3,0.00007150,0.00126347,0.00139844,0.00118031,-0.00001172,-0.00026102,
 -0.00044720,0.00310283,-0.01924541,-0.00159592,0.00103156,-0.00077748,
 0.00036677,-0.00020964,0.00018907,-0.00030030,-0.00010437,-0.00011023,
 0.00004321,0.00015294,0.00023498,0.00014817,-0.06309962,0.06150175,0.0
 0687411,0.00067868,-0.00697621,-0.00131309,0.06466670,-0.00148832,0.00
 099915,-0.00191994,0.00020633,-0.00069887,-0.00027674,0.00000354,0.000
 19358,0.00016986,-0.00010535,0.00017125,-0.00008967,-0.00010035,-0.000
 08477,0.00014057,0.00292518,-0.01404314,-0.00115674,0.00084446,0.00054
 169,0.00064099,-0.00076091,0.00051556,-0.00012418,-0.00009107,-0.00010
 381,-0.00008366,-0.00000251,0.00038067,0.00002792,0.06025724,-0.293266
 93,-0.02766516,0.00354198,-0.01318217,-0.00203563,-0.06552853,0.318548
 48,-0.00324959,-0.00055482,-0.00361641,0.00024677,-0.00138024,-0.00008
 001,-0.00013297,-0.00020578,0.00007057,0.00004941,0.00030225,0.0003080
 5,-0.00004123,-0.00002210,0.00023319,0.00572732,-0.02612412,-0.0052569
 9,0.00130121,0.00020512,0.00062232,-0.00053365,0.00036370,0.00022693,-
 0.00004645,0.00018513,0.00003282,0.00020148,0.00018865,-0.00005969,0.0
 0692467,-0.02530741,-0.04957093,-0.00738878,0.02666069,0.00468212,-0.0
 0460027,0.03182339,0.05219608,-0.00170293,0.00137817,-0.00014509,0.000
 12621,-0.00015864,0.00002549,-0.00003708,0.00017264,-0.00007187,0.0016
 6404,0.00201801,0.00130440,0.00025910,-0.00023750,-0.00031983,-0.01838
 866,0.00078197,0.00264224,-0.00060956,-0.00193769,-0.00331822,0.000191
 53,0.00001834,0.00007008,0.00034052,0.00003094,0.00007496,-0.00097853,
 0.00027588,0.00018918,-0.30661370,0.02356455,0.04956337,-0.00460663,0.
 00043536,0.00094514,-0.00459750,0.00028202,0.00099739,0.33400542,-0.00
 206447,0.00017179,0.00048577,0.00040153,0.00017381,0.00007864,0.000161
 69,-0.00003902,-0.00015291,0.00144090,-0.00040466,0.00038076,0.0000355
 3,-0.00030934,-0.00139264,-0.01328622,0.00104124,0.00490185,-0.0006979
 7,-0.00102564,-0.00212439,-0.00030084,0.00019516,-0.00016465,0.0002860
 3,-0.00006321,-0.00016385,-0.00083383,0.00048912,-0.00024695,0.0256643
 1,-0.04942614,-0.00605520,-0.01602926,0.00080614,0.00227895,0.03053879
 ,-0.00118963,-0.00604067,-0.02612613,0.04979985,0.00013445,0.00056294,
 0.00058274,0.00002379,0.00012387,0.00001238,0.00005906,0.00006612,-0.0
 0000127,0.00060013,-0.00025917,-0.00051369,0.00006528,-0.00116625,-0.0
 0082529,-0.02648195,0.00330953,0.00437294,-0.00168489,-0.00226277,-0.0
 0420078,0.00021177,-0.00003535,-0.00007394,-0.00002820,-0.00018176,0.0
 0018452,-0.00161081,-0.00005202,0.00019716,0.05285598,-0.00455235,-0.0
 5650353,0.02717434,-0.00334914,-0.00453382,0.00224372,0.00023590,-0.00
 172223,-0.05401895,0.00742933,0.06093269,0.00132826,-0.00166903,-0.004
 61120,0.00025879,0.00106134,0.00123229,0.00170814,0.00126721,0.0011835
 1,-0.00131079,-0.00003740,-0.00043107,-0.00114838,-0.00065562,0.001393
 19,-0.06130454,0.02506599,-0.02195042,-0.02078651,-0.01946449,0.036760
 55,0.00164255,-0.00093470,0.00044187,-0.00606386,0.00048310,0.00084627
 ,0.00182087,-0.00020436,0.00025797,0.00529928,0.00747767,-0.00872074,-
 0.00157311,-0.00126636,-0.00215151,0.00023206,-0.00052000,0.00001377,-
 0.00053929,0.00053213,-0.00006981,0.43428620,-0.01424363,-0.03231852,0
 .03845013,0.00039270,0.00267492,0.00100092,0.00266049,-0.00684035,-0.0
 0101881,-0.00225154,0.00416843,-0.00247129,0.00468148,0.00044776,-0.00
 116836,0.03248219,-0.07222378,0.02569165,-0.00261537,0.00236160,-0.001
 75985,0.00011798,0.00036457,-0.00077225,0.00203883,0.00002438,-0.00067
 164,0.00046203,0.00035439,0.00008091,0.00373254,0.00140451,0.00335002,
 -0.00017734,0.00112478,-0.00112701,-0.00001391,0.00110435,-0.00035306,
 -0.00051355,0.00038322,0.00005741,-0.08690454,0.13175899,0.00305904,0.
 01519530,-0.01104492,-0.00025504,-0.00186204,0.00128394,-0.00125171,0.
 00108037,0.00156583,0.00062393,-0.00101406,-0.00033305,0.00027596,0.00
 053789,0.00105190,-0.03471513,0.03342407,-0.06627291,0.01327912,0.0045
 0264,-0.01198403,-0.00097827,0.00066831,0.00045397,-0.00006458,-0.0000
 4741,0.00069884,-0.00090513,-0.00017485,0.00065030,0.00549428,0.019290
 65,-0.04714172,-0.00365046,-0.00393078,-0.00485862,0.00074850,0.000640
 80,0.00240595,0.00111587,0.00084370,0.00239064,-0.10083507,-0.07362650
 ,0.20409405,0.00024345,0.00444387,-0.00148624,-0.00011067,-0.00127642,
 -0.00062053,-0.00040672,0.00046805,-0.00088696,0.00475163,0.00036554,-
 0.00061451,-0.00134448,-0.00148783,-0.00020439,-0.02782659,-0.01187997
 ,0.02705194,0.00258970,-0.00385376,0.00664969,0.00049733,0.00014375,-0
 .00057495,-0.00195792,0.00040873,-0.00038310,0.00006107,-0.00000049,-0
 .00038674,0.00020756,0.00052549,-0.00455183,0.00061396,0.00002745,-0.0
 0084032,-0.00012566,0.00053628,0.00053093,0.00148705,0.00027782,0.0005
 2611,-0.35384967,0.06015161,0.11805869,0.37516995,0.00486671,-0.000700
 04,-0.00108585,-0.00052818,0.00018236,0.00004185,-0.00024139,0.0007996
 8,0.00010342,-0.00117699,-0.00958989,0.00749653,-0.00525692,-0.0001623
 5,0.00097568,-0.02142197,0.00575692,-0.00384829,-0.00165231,-0.0012624
 7,0.00408029,-0.00042530,0.00034492,0.00030443,-0.00102027,0.00050024,
 0.00013354,0.00027057,-0.00020828,0.00005513,-0.00013004,0.00194395,-0
 .00106244,-0.00031931,-0.00005135,-0.00021656,0.00010085,0.00011459,0.
 00025928,0.00001561,-0.00060268,0.00007372,0.07576908,-0.03478926,0.00
 447189,-0.04885013,0.03772364,-0.00345254,-0.00208106,0.00296358,0.000
 47883,0.00078417,0.00039859,0.00030390,-0.00109811,0.00007840,0.000679
 30,0.00705677,-0.00065291,0.00101932,-0.00021777,-0.00439894,0.0416931
 9,-0.01156558,-0.01437396,0.00054021,0.00491277,-0.00772015,-0.0002603
 5,-0.00021711,-0.00012385,0.00244720,-0.00036787,0.00050116,0.00032602
 ,0.00026190,0.00028444,-0.00003136,0.00037235,0.00015621,0.00041292,-0
 .00001010,0.00073356,0.00052491,-0.00032772,-0.00047178,0.00094584,-0.
 00005774,-0.00029853,0.09664040,0.01433772,-0.07296018,-0.14226778,-0.
 01178263,0.09588437\\0.00001582,0.00000125,-0.00000273,-0.00001388,0.0
 0000115,-0.00001115,-0.00001013,-0.00000427,0.00000050,-0.00002392,-0.
 00003651,0.00002408,0.00000218,0.00001496,-0.00002001,0.00001701,0.000
 00418,-0.00000678,0.00000678,0.00000999,-0.00000481,0.00000290,0.00001
 483,0.00000397,-0.00000115,0.00000380,0.00000545,-0.00000486,0.0000072
 0,-0.00000482,-0.00000091,-0.00000570,-0.00000358,0.00000176,-0.000008
 39,0.00000723,0.00000610,0.00000280,0.00000537,0.00001408,-0.00001117,
 -0.00000312,-0.00004054,0.00000532,0.00000192,0.00002878,0.00000054,0.
 00000848\\\@


 IT'S WHAT A FELLER THINKS HE KNOWS THAT HURTS HIM...
                    ------
           KIN HUBBARD
 Job cpu time:  0 days  1 hours 25 minutes 58.3 seconds.
 File lengths (MBytes):  RWF=    125 Int=      0 D2E=      0 Chk=      8 Scr=      1
 Normal termination of Gaussian 03 at Mon Jun 10 10:27:07 2013.
