 Entering Gaussian System, Link 0=g03
 Input=TS08freq.gjf
 Output=TS08freq.log
 Initial command:
 /opt/g03/l1.exe /scratch/nyee/Gau-20328.inp -scrdir=/scratch/nyee/
 Entering Link 1 = /opt/g03/l1.exe PID=     20330.
  
 Copyright (c) 1988,1990,1992,1993,1995,1998,2003,2004, Gaussian, Inc.
                  All Rights Reserved.
  
 This is the Gaussian(R) 03 program.  It is based on the
 the Gaussian(R) 98 system (copyright 1998, Gaussian, Inc.),
 the Gaussian(R) 94 system (copyright 1995, Gaussian, Inc.),
 the Gaussian 92(TM) system (copyright 1992, Gaussian, Inc.),
 the Gaussian 90(TM) system (copyright 1990, Gaussian, Inc.),
 the Gaussian 88(TM) system (copyright 1988, Gaussian, Inc.),
 the Gaussian 86(TM) system (copyright 1986, Carnegie Mellon
 University), and the Gaussian 82(TM) system (copyright 1983,
 Carnegie Mellon University). Gaussian is a federally registered
 trademark of Gaussian, Inc.
  
 This software contains proprietary and confidential information,
 including trade secrets, belonging to Gaussian, Inc.
  
 This software is provided under written license and may be
 used, copied, transmitted, or stored only in accord with that
 written license.
  
 The following legend is applicable only to US Government
 contracts under FAR:
  
                    RESTRICTED RIGHTS LEGEND
  
 Use, reproduction and disclosure by the US Government is
 subject to restrictions as set forth in subparagraphs (a)
 and (c) of the Commercial Computer Software - Restricted
 Rights clause in FAR 52.227-19.
  
 Gaussian, Inc.
 340 Quinnipiac St., Bldg. 40, Wallingford CT 06492
  
  
 ---------------------------------------------------------------
 Warning -- This program may not be used in any manner that
 competes with the business of Gaussian, Inc. or will provide
 assistance to any competitor of Gaussian, Inc.  The licensee
 of this program is prohibited from giving any competitor of
 Gaussian, Inc. access to this program.  By using this program,
 the user acknowledges that Gaussian, Inc. is engaged in the
 business of creating and licensing software in the field of
 computational chemistry and represents and warrants to the
 licensee that it is not a competitor of Gaussian, Inc. and that
 it will not use this program in any manner prohibited above.
 ---------------------------------------------------------------
  

 Cite this work as:
 Gaussian 03, Revision D.01,
 M. J. Frisch, G. W. Trucks, H. B. Schlegel, G. E. Scuseria, 
 M. A. Robb, J. R. Cheeseman, J. A. Montgomery, Jr., T. Vreven, 
 K. N. Kudin, J. C. Burant, J. M. Millam, S. S. Iyengar, J. Tomasi, 
 V. Barone, B. Mennucci, M. Cossi, G. Scalmani, N. Rega, 
 G. A. Petersson, H. Nakatsuji, M. Hada, M. Ehara, K. Toyota, 
 R. Fukuda, J. Hasegawa, M. Ishida, T. Nakajima, Y. Honda, O. Kitao, 
 H. Nakai, M. Klene, X. Li, J. E. Knox, H. P. Hratchian, J. B. Cross, 
 V. Bakken, C. Adamo, J. Jaramillo, R. Gomperts, R. E. Stratmann, 
 O. Yazyev, A. J. Austin, R. Cammi, C. Pomelli, J. W. Ochterski, 
 P. Y. Ayala, K. Morokuma, G. A. Voth, P. Salvador, J. J. Dannenberg, 
 V. G. Zakrzewski, S. Dapprich, A. D. Daniels, M. C. Strain, 
 O. Farkas, D. K. Malick, A. D. Rabuck, K. Raghavachari, 
 J. B. Foresman, J. V. Ortiz, Q. Cui, A. G. Baboul, S. Clifford, 
 J. Cioslowski, B. B. Stefanov, G. Liu, A. Liashenko, P. Piskorz, 
 I. Komaromi, R. L. Martin, D. J. Fox, T. Keith, M. A. Al-Laham, 
 C. Y. Peng, A. Nanayakkara, M. Challacombe, P. M. W. Gill, 
 B. Johnson, W. Chen, M. W. Wong, C. Gonzalez, and J. A. Pople, 
 Gaussian, Inc., Wallingford CT, 2004.
 
 ******************************************
 Gaussian 03:  AM64L-G03RevD.01 13-Oct-2005
                 8-Jul-2014 
 ******************************************
 %chk=TS08freq.chk
 %mem=1000mb
 %nproc=8
 Will use up to    8 processors via shared memory.
 -------------------------------------
 # freq nosymm b3lyp/cbsb7 iop(7/33=1)
 -------------------------------------
 1/10=4,30=1,38=1/1,3;
 2/15=1,17=6,18=5,40=1/2;
 3/5=4,6=6,7=700,11=2,16=1,25=1,30=1,74=-5/1,2,3;
 4//1;
 5/5=2,38=5/2;
 8/6=4,10=90,11=11/1;
 11/6=1,8=1,9=11,15=111,16=1,31=1/1,2,10;
 10/6=1,31=1/2;
 6/7=2,8=2,9=2,10=2,18=1,28=1/1;
 7/8=1,10=1,25=1,30=1,33=1/1,2,3,16;
 1/10=4,30=1/3;
 99//99;
 -------------------
 Title Card Required
 -------------------
 Symbolic Z-matrix:
 Charge =  0 Multiplicity = 2
 O                    -2.18292   3.10959   0.56096 
 H                    -2.60161   3.32271  -0.28047 
 C                    -0.85099   3.05132   0.40173 
 H                    -0.42333   3.62123  -0.41522 
 C                    -0.04799   2.41594   1.35168 
 C                    -0.68694   1.98802   2.66928 
 H                    -0.76924   2.83427   3.35999 
 H                    -1.68752   1.58332   2.51439 
 H                    -0.07857   1.22064   3.15438 
 C                     1.40699   2.87473   1.4361 
 H                     1.80011   3.14938   0.45361 
 H                     1.51381   3.74077   2.09805 
 H                     2.04058   2.07651   1.83156 
 O                    -0.76336   1.2765   -1.11138 
 O                    -0.11957   0.47322  -0.34748 
 H                     0.03566   1.30187   0.65966 
 

 GradGradGradGradGradGradGradGradGradGradGradGradGradGradGradGradGradGrad
 Berny optimization.
 Initialization pass.
 Trust Radius=3.00D-01 FncErr=1.00D-07 GrdErr=1.00D-07
 Number of steps in this run=   2 maximum allowed number of steps=   2.
 GradGradGradGradGradGradGradGradGradGradGradGradGradGradGradGradGradGrad

                          Input orientation:                          
 ---------------------------------------------------------------------
 Center     Atomic     Atomic              Coordinates (Angstroms)
 Number     Number      Type              X           Y           Z
 ---------------------------------------------------------------------
    1          8             0       -2.182916    3.109593    0.560956
    2          1             0       -2.601614    3.322714   -0.280472
    3          6             0       -0.850991    3.051324    0.401729
    4          1             0       -0.423325    3.621231   -0.415223
    5          6             0       -0.047992    2.415942    1.351683
    6          6             0       -0.686942    1.988022    2.669282
    7          1             0       -0.769238    2.834267    3.359990
    8          1             0       -1.687523    1.583324    2.514393
    9          1             0       -0.078571    1.220637    3.154380
   10          6             0        1.406985    2.874733    1.436097
   11          1             0        1.800114    3.149384    0.453611
   12          1             0        1.513805    3.740765    2.098053
   13          1             0        2.040575    2.076505    1.831559
   14          8             0       -0.763364    1.276498   -1.111381
   15          8             0       -0.119572    0.473215   -0.347480
   16          1             0        0.035661    1.301873    0.659655
 ---------------------------------------------------------------------
                    Distance matrix (angstroms):
                    1          2          3          4          5
     1  O    0.000000
     2  H    0.963706   0.000000
     3  C    1.342674   1.898350   0.000000
     4  H    2.076261   2.202774   1.084022   0.000000
     5  C    2.379979   3.163408   1.396757   2.171532   0.000000
     6  C    2.817960   3.761439   2.509845   3.500148   1.525595
     7  H    3.147838   4.104771   2.967340   3.871847   2.174509
     8  H    2.528009   3.416476   2.705210   3.786015   2.175594
     9  H    3.836961   4.752124   3.394869   4.315527   2.163193
    10  C    3.702488   4.383624   2.489891   2.708261   1.527931
    11  H    3.984675   4.465885   2.653425   2.433350   2.181735
    12  H    4.052998   4.771669   2.990837   3.175424   2.179778
    13  H    4.529854   5.250108   3.369843   3.674916   2.169703
    14  O    2.858684   2.873425   2.333921   2.469420   2.806559
    15  O    3.468881   3.779506   2.782613   3.163362   2.581950
    16  H    2.863508   3.452949   1.978195   2.597201   1.314173
                    6          7          8          9         10
     6  C    0.000000
     7  H    1.095436   0.000000
     8  H    1.090382   1.767241   0.000000
     9  H    1.092847   1.767229   1.769139   0.000000
    10  C    2.586800   2.904987   3.522278   2.809877   0.000000
    11  H    3.527521   3.892031   4.343153   3.813617   1.093281
    12  H    2.870836   2.761613   3.882833   3.162678   1.095266
    13  H    2.854638   3.287150   3.822068   2.640671   1.093158
    14  O    3.847794   4.734959   3.754257   4.320738   3.708694
    15  O    3.423069   4.443193   3.446901   3.580970   3.358394
    16  H    2.243113   3.207476   2.547279   2.498660   2.226495
                   11         12         13         14         15
    11  H    0.000000
    12  H    1.770846   0.000000
    13  H    1.762848   1.765862   0.000000
    14  O    3.539537   4.643121   4.142823   0.000000
    15  O    3.389516   4.396070   3.461934   1.281903   0.000000
    16  H    2.563015   3.194071   2.448080   1.943104   1.313428
                   16
    16  H    0.000000
 Symmetry turned off by external request.
 Stoichiometry    C4H9O3(2)
 Framework group  C1[X(C4H9O3)]
 Deg. of freedom    42
 Full point group                 C1
 Rotational constants (GHZ):      2.7587464      2.0879655      1.6146197
 Standard basis: CBSB7 (5D, 7F)
 Integral buffers will be    131072 words long.
 Raffenetti 2 integral format.
 Two-electron integral symmetry is turned off.
   180 basis functions,   296 primitive gaussians,   187 cartesian basis functions
    29 alpha electrons       28 beta electrons
       nuclear repulsion energy       324.0760562472 Hartrees.
 NAtoms=   16 NActive=   16 NUniq=   16 SFac= 7.50D-01 NAtFMM=   80 NAOKFM=F Big=F
 One-electron integrals computed using PRISM.
 NBasis=   180 RedAO= T  NBF=   180
 NBsUse=   180 1.00D-06 NBFU=   180
 Harris functional with IExCor=  402 diagonalized for initial guess.
 ExpMin= 1.03D-01 ExpMax= 8.59D+03 ExpMxC= 1.30D+03 IAcc=1 IRadAn=         1 AccDes= 1.00D-06
 HarFok:  IExCor= 402 AccDes= 1.00D-06 IRadAn=         1 IDoV=1
 ScaDFX=  1.000000  1.000000  1.000000  1.000000
 <S**2> of initial guess= 0.7500
 Requested convergence on RMS density matrix=1.00D-08 within 128 cycles.
 Requested convergence on MAX density matrix=1.00D-06.
 Requested convergence on             energy=1.00D-06.
 No special actions if energy rises.
 Integral accuracy reduced to 1.0D-05 until final iterations.
 Initial convergence to 1.0D-05 achieved.  Increase integral accuracy.
 SCF Done:  E(UB+HF-LYP) =  -383.454021006     A.U. after   21 cycles
             Convg  =    0.3549D-08             -V/T =  2.0033
             S**2   =   0.7598
 Annihilation of the first spin contaminant:
 S**2 before annihilation     0.7598,   after     0.7501
 Range of M.O.s used for correlation:     1   180
 NBasis=   180 NAE=    29 NBE=    28 NFC=     0 NFV=     0
 NROrb=    180 NOA=    29 NOB=    28 NVA=   151 NVB=   152
 Symmetrizing basis deriv contribution to polar:
 IMax=3 JMax=2 DiffMx= 0.00D+00
 G2DrvN: will do   17 centers at a time, making    1 passes doing MaxLOS=2.
 FoFDir/FoFCou used for L=0 through L=2.
 DoAtom=TTTTTTTTTTTTTTTT
          Differentiating once with respect to electric field.
                with respect to dipole field.
          Differentiating once with respect to nuclear coordinates.
 Symmetry not used in FoFDir.
 MinBra= 0 MaxBra= 2 Meth= 1.
 IRaf=       0 NMat=  51 IRICut=      51 DoRegI=T DoRafI=T ISym2E= 0 JSym2E=0.
          There are  51 degrees of freedom in the 1st order CPHF.
    48 vectors were produced by pass  0.
 AX will form  48 AO Fock derivatives at one time.
    48 vectors were produced by pass  1.
    48 vectors were produced by pass  2.
    48 vectors were produced by pass  3.
    48 vectors were produced by pass  4.
    48 vectors were produced by pass  5.
    23 vectors were produced by pass  6.
     3 vectors were produced by pass  7.
     3 vectors were produced by pass  8.
 Inv2:  IOpt= 1 Iter= 1 AM= 3.09D-15 Conv= 1.00D-12.
 Inverted reduced A of dimension  317 with in-core refinement.
 Isotropic polarizability for W=    0.000000       64.78 Bohr**3.
 End of Minotr Frequency-dependent properties file   721 does not exist.

 **********************************************************************

            Population analysis using the SCF density.

 **********************************************************************

 Alpha  occ. eigenvalues --  -19.18894 -19.17910 -19.17702 -10.26552 -10.18156
 Alpha  occ. eigenvalues --  -10.17437 -10.16820  -1.17491  -1.09528  -0.82548
 Alpha  occ. eigenvalues --   -0.78315  -0.70126  -0.69824  -0.59094  -0.56026
 Alpha  occ. eigenvalues --   -0.51627  -0.47256  -0.46995  -0.45664  -0.42994
 Alpha  occ. eigenvalues --   -0.42432  -0.40411  -0.39561  -0.39319  -0.36738
 Alpha  occ. eigenvalues --   -0.35449  -0.28954  -0.25395  -0.22981
 Alpha virt. eigenvalues --   -0.03480   0.01769   0.04935   0.07012   0.09598
 Alpha virt. eigenvalues --    0.09696   0.10919   0.14039   0.14486   0.15487
 Alpha virt. eigenvalues --    0.18742   0.20028   0.20589   0.25520   0.26646
 Alpha virt. eigenvalues --    0.27982   0.29763   0.31215   0.34489   0.38352
 Alpha virt. eigenvalues --    0.41041   0.42574   0.43435   0.48797   0.50673
 Alpha virt. eigenvalues --    0.51411   0.54397   0.55105   0.57417   0.58138
 Alpha virt. eigenvalues --    0.59220   0.59824   0.61225   0.62740   0.63541
 Alpha virt. eigenvalues --    0.68716   0.69374   0.73656   0.75971   0.79065
 Alpha virt. eigenvalues --    0.80515   0.80793   0.82056   0.83849   0.91821
 Alpha virt. eigenvalues --    0.94640   0.97767   1.01701   1.03560   1.05656
 Alpha virt. eigenvalues --    1.08523   1.18478   1.21945   1.25993   1.29197
 Alpha virt. eigenvalues --    1.31906   1.35221   1.38140   1.41656   1.43851
 Alpha virt. eigenvalues --    1.44531   1.46198   1.47108   1.49421   1.51227
 Alpha virt. eigenvalues --    1.53113   1.55239   1.58696   1.60820   1.62587
 Alpha virt. eigenvalues --    1.63855   1.66012   1.68331   1.70543   1.73287
 Alpha virt. eigenvalues --    1.76705   1.78696   1.83523   1.87323   1.90272
 Alpha virt. eigenvalues --    1.95209   1.97712   2.00088   2.03670   2.07788
 Alpha virt. eigenvalues --    2.08569   2.13787   2.15993   2.28345   2.29996
 Alpha virt. eigenvalues --    2.34368   2.35201   2.37897   2.41106   2.41643
 Alpha virt. eigenvalues --    2.45009   2.46711   2.47123   2.51244   2.51624
 Alpha virt. eigenvalues --    2.52823   2.55857   2.59579   2.60260   2.62444
 Alpha virt. eigenvalues --    2.65322   2.71286   2.73044   2.76467   2.78823
 Alpha virt. eigenvalues --    2.81396   2.86666   2.88071   2.94558   2.98281
 Alpha virt. eigenvalues --    3.02772   3.07643   3.11695   3.17256   3.20888
 Alpha virt. eigenvalues --    3.32230   3.36735   3.38561   3.43360   3.55888
 Alpha virt. eigenvalues --    3.72300   3.75031   3.76664   3.79213   3.81913
 Alpha virt. eigenvalues --    3.82442   3.87848   3.91214   4.28625   4.29886
 Alpha virt. eigenvalues --    4.63357   4.69106   4.79208   4.84328   4.89927
 Alpha virt. eigenvalues --    5.12056   5.28287   5.66172   6.02811  23.66037
 Alpha virt. eigenvalues --   23.87523  23.92938  24.02420  49.73443  49.76425
 Alpha virt. eigenvalues --   49.88130
  Beta  occ. eigenvalues --  -19.17942 -19.17461 -19.15962 -10.26636 -10.18138
  Beta  occ. eigenvalues --  -10.17440 -10.16822  -1.14370  -1.09586  -0.82519
  Beta  occ. eigenvalues --   -0.73967  -0.70129  -0.69874  -0.59035  -0.56037
  Beta  occ. eigenvalues --   -0.50931  -0.47240  -0.43940  -0.42863  -0.42238
  Beta  occ. eigenvalues --   -0.40439  -0.39595  -0.39342  -0.37798  -0.36770
  Beta  occ. eigenvalues --   -0.35447  -0.28120  -0.21747
  Beta virt. eigenvalues --   -0.08064  -0.03366   0.01804   0.04934   0.07044
  Beta virt. eigenvalues --    0.09642   0.09748   0.10931   0.14047   0.14506
  Beta virt. eigenvalues --    0.16037   0.18783   0.20549   0.21593   0.25611
  Beta virt. eigenvalues --    0.26619   0.28053   0.29828   0.31277   0.34528
  Beta virt. eigenvalues --    0.38357   0.41032   0.42652   0.43512   0.48775
  Beta virt. eigenvalues --    0.50753   0.51558   0.54611   0.55145   0.57494
  Beta virt. eigenvalues --    0.58176   0.59279   0.59849   0.61299   0.62791
  Beta virt. eigenvalues --    0.63697   0.69264   0.69511   0.74877   0.76543
  Beta virt. eigenvalues --    0.79942   0.80991   0.82165   0.83037   0.84366
  Beta virt. eigenvalues --    0.92595   0.96141   0.98041   1.02229   1.03840
  Beta virt. eigenvalues --    1.06088   1.08615   1.18523   1.21959   1.26249
  Beta virt. eigenvalues --    1.29560   1.32094   1.35267   1.38463   1.41760
  Beta virt. eigenvalues --    1.44009   1.44572   1.46302   1.47145   1.49434
  Beta virt. eigenvalues --    1.51354   1.53471   1.55514   1.58746   1.61051
  Beta virt. eigenvalues --    1.62624   1.63847   1.66018   1.68430   1.70587
  Beta virt. eigenvalues --    1.73340   1.76742   1.78696   1.83532   1.87438
  Beta virt. eigenvalues --    1.90378   1.95262   1.97742   2.00063   2.03702
  Beta virt. eigenvalues --    2.07812   2.08601   2.14042   2.15983   2.28387
  Beta virt. eigenvalues --    2.30103   2.34398   2.37975   2.38952   2.41174
  Beta virt. eigenvalues --    2.42075   2.45143   2.46894   2.47139   2.51252
  Beta virt. eigenvalues --    2.51731   2.52864   2.55964   2.59876   2.60802
  Beta virt. eigenvalues --    2.62817   2.66087   2.72063   2.73219   2.78761
  Beta virt. eigenvalues --    2.80636   2.82352   2.87435   2.88844   2.98065
  Beta virt. eigenvalues --    3.00606   3.03388   3.07631   3.11750   3.17184
  Beta virt. eigenvalues --    3.22448   3.32610   3.38687   3.41507   3.44497
  Beta virt. eigenvalues --    3.56695   3.73065   3.75196   3.76714   3.79529
  Beta virt. eigenvalues --    3.81929   3.82525   3.87931   3.91957   4.28638
  Beta virt. eigenvalues --    4.29866   4.69692   4.70166   4.79919   4.86293
  Beta virt. eigenvalues --    4.95390   5.13520   5.28291   5.66131   6.04467
  Beta virt. eigenvalues --   23.65988  23.87521  23.92936  24.02391  49.75029
  Beta virt. eigenvalues --   49.77867  49.88233
          Condensed to atoms (all electrons):
              1          2          3          4          5          6
     1  O    7.748155   0.315935   0.332244  -0.031854  -0.075406   0.002045
     2  H    0.315935   0.455373  -0.039147  -0.011411   0.011025  -0.000414
     3  C    0.332244  -0.039147   4.835086   0.413564   0.417936  -0.066823
     4  H   -0.031854  -0.011411   0.413564   0.561173  -0.065831   0.006774
     5  C   -0.075406   0.011025   0.417936  -0.065831   5.483961   0.335610
     6  C    0.002045  -0.000414  -0.066823   0.006774   0.335610   4.826436
     7  H    0.001721  -0.000361  -0.008132  -0.000124  -0.043528   0.409936
     8  H    0.011394  -0.000435  -0.010936   0.000710  -0.026676   0.400157
     9  H    0.000044   0.000053   0.009286  -0.000241  -0.037822   0.404946
    10  C    0.002218  -0.000335  -0.054529  -0.001227   0.342550  -0.055452
    11  H    0.000034  -0.000023  -0.007891   0.003997  -0.027412   0.007355
    12  H    0.000134  -0.000061  -0.007748  -0.000117  -0.039435  -0.002296
    13  H   -0.000121   0.000057   0.008438   0.000055  -0.041096  -0.006130
    14  O   -0.012551   0.003719   0.068428  -0.003595  -0.005335   0.002110
    15  O    0.002531   0.000116  -0.047786   0.000280  -0.091760   0.000229
    16  H    0.002079  -0.000141  -0.017238   0.001868   0.219885  -0.022448
              7          8          9         10         11         12
     1  O    0.001721   0.011394   0.000044   0.002218   0.000034   0.000134
     2  H   -0.000361  -0.000435   0.000053  -0.000335  -0.000023  -0.000061
     3  C   -0.008132  -0.010936   0.009286  -0.054529  -0.007891  -0.007748
     4  H   -0.000124   0.000710  -0.000241  -0.001227   0.003997  -0.000117
     5  C   -0.043528  -0.026676  -0.037822   0.342550  -0.027412  -0.039435
     6  C    0.409936   0.400157   0.404946  -0.055452   0.007355  -0.002296
     7  H    0.586748  -0.028506  -0.033581  -0.004067  -0.000182   0.005333
     8  H   -0.028506   0.551816  -0.024985   0.007256  -0.000409  -0.000276
     9  H   -0.033581  -0.024985   0.577672  -0.005622   0.000017  -0.001177
    10  C   -0.004067   0.007256  -0.005622   4.831196   0.397563   0.402369
    11  H   -0.000182  -0.000409   0.000017   0.397563   0.576851  -0.028285
    12  H    0.005333  -0.000276  -0.001177   0.402369  -0.028285   0.587819
    13  H   -0.001484   0.000073   0.004697   0.409389  -0.026521  -0.033860
    14  O   -0.000099   0.000419  -0.000022  -0.000068   0.001185  -0.000175
    15  O   -0.000219   0.001611   0.001135   0.004822   0.000776  -0.000110
    16  H    0.003746  -0.002908  -0.004377  -0.022537  -0.003920   0.003785
             13         14         15         16
     1  O   -0.000121  -0.012551   0.002531   0.002079
     2  H    0.000057   0.003719   0.000116  -0.000141
     3  C    0.008438   0.068428  -0.047786  -0.017238
     4  H    0.000055  -0.003595   0.000280   0.001868
     5  C   -0.041096  -0.005335  -0.091760   0.219885
     6  C   -0.006130   0.002110   0.000229  -0.022448
     7  H   -0.001484  -0.000099  -0.000219   0.003746
     8  H    0.000073   0.000419   0.001611  -0.002908
     9  H    0.004697  -0.000022   0.001135  -0.004377
    10  C    0.409389  -0.000068   0.004822  -0.022537
    11  H   -0.026521   0.001185   0.000776  -0.003920
    12  H   -0.033860  -0.000175  -0.000110   0.003785
    13  H    0.574077  -0.000249   0.002407  -0.004247
    14  O   -0.000249   8.164005   0.054920  -0.065320
    15  O    0.002407   0.054920   8.087783   0.147587
    16  H   -0.004247  -0.065320   0.147587   0.488874
 Mulliken atomic charges:
              1
     1  O   -0.298602
     2  H    0.266049
     3  C    0.175246
     4  H    0.125979
     5  C   -0.356667
     6  C   -0.242037
     7  H    0.112799
     8  H    0.121696
     9  H    0.109977
    10  C   -0.253526
    11  H    0.106863
    12  H    0.114098
    13  H    0.114514
    14  O   -0.207375
    15  O   -0.164323
    16  H    0.275311
 Sum of Mulliken charges=   0.00000
 Atomic charges with hydrogens summed into heavy atoms:
              1
     1  O   -0.032554
     2  H    0.000000
     3  C    0.301225
     4  H    0.000000
     5  C   -0.356667
     6  C    0.102434
     7  H    0.000000
     8  H    0.000000
     9  H    0.000000
    10  C    0.081948
    11  H    0.000000
    12  H    0.000000
    13  H    0.000000
    14  O   -0.207375
    15  O    0.110987
    16  H    0.000000
 Sum of Mulliken charges=   0.00000
          Atomic-Atomic Spin Densities.
              1          2          3          4          5          6
     1  O   -0.018531  -0.000065   0.010821   0.000037  -0.000125  -0.000166
     2  H   -0.000065  -0.000032   0.000666  -0.000241   0.000055   0.000086
     3  C    0.010821   0.000666  -0.069139  -0.000289  -0.000013   0.001412
     4  H    0.000037  -0.000241  -0.000289   0.002522   0.000634   0.000059
     5  C   -0.000125   0.000055  -0.000013   0.000634   0.006324  -0.000193
     6  C   -0.000166   0.000086   0.001412   0.000059  -0.000193  -0.005341
     7  H    0.000029  -0.000012  -0.000228   0.000014  -0.000386   0.000662
     8  H    0.000118  -0.000044  -0.000186   0.000029  -0.000168   0.000560
     9  H    0.000000  -0.000004  -0.000001   0.000002  -0.000038   0.000183
    10  C    0.000022  -0.000007   0.000045  -0.000082   0.000642  -0.000165
    11  H   -0.000010   0.000010   0.000229   0.000060  -0.000738  -0.000125
    12  H   -0.000001   0.000007  -0.000151  -0.000124  -0.000414   0.000152
    13  H   -0.000003   0.000001  -0.000001  -0.000043   0.000104   0.000305
    14  O    0.000215   0.000624  -0.010349   0.001247   0.002258  -0.000146
    15  O    0.000026  -0.000206   0.003006  -0.000432  -0.002619   0.000590
    16  H   -0.000506  -0.000110   0.005132  -0.000418   0.006740   0.001855
              7          8          9         10         11         12
     1  O    0.000029   0.000118   0.000000   0.000022  -0.000010  -0.000001
     2  H   -0.000012  -0.000044  -0.000004  -0.000007   0.000010   0.000007
     3  C   -0.000228  -0.000186  -0.000001   0.000045   0.000229  -0.000151
     4  H    0.000014   0.000029   0.000002  -0.000082   0.000060  -0.000124
     5  C   -0.000386  -0.000168  -0.000038   0.000642  -0.000738  -0.000414
     6  C    0.000662   0.000560   0.000183  -0.000165  -0.000125   0.000152
     7  H    0.000638  -0.000103  -0.000131  -0.000042   0.000009   0.000016
     8  H   -0.000103  -0.000185   0.000066  -0.000077   0.000010  -0.000002
     9  H   -0.000131   0.000066   0.000209   0.000155  -0.000004  -0.000066
    10  C   -0.000042  -0.000077   0.000155  -0.004140   0.000658   0.000391
    11  H    0.000009   0.000010  -0.000004   0.000658  -0.000429  -0.000076
    12  H    0.000016  -0.000002  -0.000066   0.000391  -0.000076   0.001040
    13  H   -0.000069  -0.000013  -0.000011   0.000509   0.000214  -0.000206
    14  O    0.000007  -0.000230  -0.000018  -0.000220  -0.000280   0.000005
    15  O   -0.000009   0.000036   0.000092   0.000731  -0.000072  -0.000005
    16  H   -0.000008   0.000025  -0.000305   0.000513   0.000326  -0.000057
             13         14         15         16
     1  O   -0.000003   0.000215   0.000026  -0.000506
     2  H    0.000001   0.000624  -0.000206  -0.000110
     3  C   -0.000001  -0.010349   0.003006   0.005132
     4  H   -0.000043   0.001247  -0.000432  -0.000418
     5  C    0.000104   0.002258  -0.002619   0.006740
     6  C    0.000305  -0.000146   0.000590   0.001855
     7  H   -0.000069   0.000007  -0.000009  -0.000008
     8  H   -0.000013  -0.000230   0.000036   0.000025
     9  H   -0.000011  -0.000018   0.000092  -0.000305
    10  C    0.000509  -0.000220   0.000731   0.000513
    11  H    0.000214  -0.000280  -0.000072   0.000326
    12  H   -0.000206   0.000005  -0.000005  -0.000057
    13  H   -0.000223  -0.000037   0.000178  -0.000649
    14  O   -0.000037   0.772241  -0.172219   0.002964
    15  O    0.000178  -0.172219   0.652240  -0.009051
    16  H   -0.000649   0.002964  -0.009051  -0.022744
 Mulliken atomic spin densities:
              1
     1  O   -0.008138
     2  H    0.000728
     3  C   -0.059044
     4  H    0.002974
     5  C    0.012062
     6  C   -0.000272
     7  H    0.000391
     8  H   -0.000164
     9  H    0.000129
    10  C   -0.001066
    11  H   -0.000218
    12  H    0.000509
    13  H    0.000055
    14  O    0.596063
    15  O    0.472285
    16  H   -0.016294
 Sum of Mulliken spin densities=   1.00000
 APT atomic charges:
              1
     1  O   -0.688965
     2  H    0.313463
     3  C    0.735704
     4  H   -0.019623
     5  C   -0.160371
     6  C    0.102468
     7  H   -0.033972
     8  H    0.004716
     9  H   -0.012426
    10  C    0.127155
    11  H   -0.017377
    12  H   -0.039262
    13  H   -0.012874
    14  O   -0.182937
    15  O   -0.376762
    16  H    0.261062
 Sum of APT charges=   0.00000
 APT Atomic charges with hydrogens summed into heavy atoms:
              1
     1  O   -0.375503
     2  H    0.000000
     3  C    0.716082
     4  H    0.000000
     5  C   -0.160371
     6  C    0.060786
     7  H    0.000000
     8  H    0.000000
     9  H    0.000000
    10  C    0.057643
    11  H    0.000000
    12  H    0.000000
    13  H    0.000000
    14  O   -0.182937
    15  O   -0.115700
    16  H    0.000000
 Sum of APT charges=   0.00000
 Electronic spatial extent (au):  <R**2>=  1946.6914
 Charge=     0.0000 electrons
 Dipole moment (field-independent basis, Debye):
    X=    -0.3022    Y=     2.9590    Z=     0.6972  Tot=     3.0550
 Quadrupole moment (field-independent basis, Debye-Ang):
   XX=   -39.9670   YY=   -31.6957   ZZ=   -43.4961
   XY=    -3.3173   XZ=     2.7621   YZ=    -2.6679
 Traceless Quadrupole moment (field-independent basis, Debye-Ang):
   XX=    -1.5808   YY=     6.6906   ZZ=    -5.1099
   XY=    -3.3173   XZ=     2.7621   YZ=    -2.6679
 Octapole moment (field-independent basis, Debye-Ang**2):
  XXX=    38.4649  YYY=  -245.5532  ZZZ=  -103.3516  XYY=     1.4057
  XXY=   -83.2960  XXZ=   -44.5050  XZZ=    18.9806  YZZ=   -94.9218
  YYZ=   -50.1484  XYZ=    11.1192
 Hexadecapole moment (field-independent basis, Debye-Ang**3):
 XXXX=  -356.4674 YYYY= -1394.7396 ZZZZ=  -611.6005 XXXY=    73.3187
 XXXZ=    29.5907 YYYX=    56.5824 YYYZ=  -340.6008 ZZZX=     4.9956
 ZZZY=  -278.5742 XXYY=  -275.5227 XXZZ=  -169.3462 YYZZ=  -351.0464
 XXYZ=  -128.4387 YYXZ=    42.6143 ZZXY=    41.9796
 N-N= 3.240760562472D+02 E-N=-1.547784782044D+03  KE= 3.821970924000D+02
  Exact polarizability:  61.939  -5.456  64.205   5.855   4.171  68.205
 Approx polarizability:  89.054 -20.863 114.266   9.648   9.009  99.976
                          Isotropic Fermi Contact Couplings
        Atom                 a.u.       MegaHertz       Gauss      10(-4) cm-1
     1  O(17)             -0.00154       0.93220       0.33263       0.31095
     2  H(1)               0.00001       0.03611       0.01289       0.01205
     3  C(13)             -0.00349      -3.91966      -1.39863      -1.30746
     4  H(1)               0.00070       3.13900       1.12007       1.04706
     5  C(13)              0.00153       1.71589       0.61227       0.57236
     6  C(13)             -0.00081      -0.90810      -0.32403      -0.30291
     7  H(1)               0.00020       0.89912       0.32083       0.29991
     8  H(1)               0.00003       0.14379       0.05131       0.04796
     9  H(1)               0.00008       0.34086       0.12163       0.11370
    10  C(13)             -0.00155      -1.74276      -0.62186      -0.58132
    11  H(1)               0.00002       0.09400       0.03354       0.03136
    12  H(1)               0.00029       1.28184       0.45739       0.42758
    13  H(1)               0.00012       0.53241       0.18998       0.17759
    14  O(17)              0.04757     -28.83594     -10.28938      -9.61863
    15  O(17)              0.04284     -25.97126      -9.26719      -8.66308
    16  H(1)              -0.00672     -30.04406     -10.72047     -10.02162
 --------------------------------------------------------
       Center         ----  Spin Dipole Couplings  ----
                      3XX-RR        3YY-RR        3ZZ-RR
 --------------------------------------------------------
     1   Atom        0.027355     -0.044107      0.016752
     2   Atom        0.000789      0.004003     -0.004792
     3   Atom        0.026179     -0.032803      0.006624
     4   Atom       -0.004110      0.012338     -0.008227
     5   Atom       -0.011466      0.010003      0.001464
     6   Atom       -0.002614     -0.001618      0.004232
     7   Atom       -0.001255     -0.000413      0.001668
     8   Atom       -0.001797     -0.002592      0.004389
     9   Atom       -0.002262     -0.002261      0.004523
    10   Atom       -0.002051      0.001116      0.000934
    11   Atom        0.000138      0.001613     -0.001751
    12   Atom       -0.000940      0.000558      0.000382
    13   Atom        0.000401     -0.001543      0.001141
    14   Atom        1.544871     -0.895475     -0.649397
    15   Atom        1.257632     -0.767006     -0.490626
    16   Atom       -0.025951     -0.004494      0.030445
 --------------------------------------------------------
                        XY            XZ            YZ
 --------------------------------------------------------
     1   Atom       -0.003384     -0.004895     -0.023576
     2   Atom       -0.006014     -0.003779      0.003111
     3   Atom       -0.005283     -0.002869     -0.034227
     4   Atom       -0.000620      0.002841      0.006084
     5   Atom       -0.000687     -0.000016      0.015487
     6   Atom       -0.000313     -0.000440      0.003400
     7   Atom       -0.000139     -0.000334      0.001868
     8   Atom       -0.000940     -0.002732      0.002290
     9   Atom        0.000129      0.000506      0.001104
    10   Atom        0.002718      0.002757      0.003500
    11   Atom        0.004425      0.002620      0.002475
    12   Atom        0.001183      0.000927      0.001833
    13   Atom        0.001948      0.003383      0.002027
    14   Atom        1.070025     -1.376643     -0.374212
    15   Atom        0.872977     -1.145668     -0.288325
    16   Atom        0.009720      0.013286      0.038857
 --------------------------------------------------------


 ---------------------------------------------------------------------------------
              Anisotropic Spin Dipole Couplings in Principal Axis System
 ---------------------------------------------------------------------------------

       Atom             a.u.   MegaHertz   Gauss  10(-4) cm-1        Axes

              Baa    -0.0525     3.796     1.354     1.266  0.0600  0.9436  0.3257
     1 O(17)  Bbb     0.0224    -1.623    -0.579    -0.541  0.5594 -0.3020  0.7719
              Bcc     0.0300    -2.173    -0.775    -0.725  0.8267  0.1359 -0.5460
 
              Baa    -0.0067    -3.575    -1.276    -1.192  0.4429 -0.0117  0.8965
     2 H(1)   Bbb    -0.0035    -1.842    -0.657    -0.614  0.6672  0.6722 -0.3209
              Bcc     0.0102     5.417     1.933     1.807 -0.5988  0.7403  0.3055
 
              Baa    -0.0530    -7.118    -2.540    -2.374  0.0756  0.8634  0.4989
     3 C(13)  Bbb     0.0263     3.533     1.261     1.178 -0.4572 -0.4146  0.7868
              Bcc     0.0267     3.585     1.279     1.196  0.8862 -0.2876  0.3633
 
              Baa    -0.0111    -5.922    -2.113    -1.975 -0.3837 -0.2415  0.8913
     4 H(1)   Bbb    -0.0029    -1.550    -0.553    -0.517  0.9234 -0.1093  0.3679
              Bcc     0.0140     7.472     2.666     2.492  0.0085  0.9642  0.2650
 
              Baa    -0.0116    -1.557    -0.556    -0.519  0.9530  0.1960 -0.2311
     5 C(13)  Bbb    -0.0102    -1.369    -0.489    -0.457  0.3026 -0.5733  0.7614
              Bcc     0.0218     2.926     1.044     0.976 -0.0167  0.7956  0.6057
 
              Baa    -0.0032    -0.429    -0.153    -0.143  0.1804  0.8984 -0.4005
     6 C(13)  Bbb    -0.0026    -0.353    -0.126    -0.118  0.9816 -0.1384  0.1315
              Bcc     0.0058     0.782     0.279     0.261 -0.0627  0.4169  0.9068
 
              Baa    -0.0015    -0.811    -0.290    -0.271 -0.2034  0.8354 -0.5106
     7 H(1)   Bbb    -0.0013    -0.681    -0.243    -0.227  0.9751  0.2197 -0.0289
              Bcc     0.0028     1.492     0.533     0.498 -0.0881  0.5037  0.8594
 
              Baa    -0.0033    -1.763    -0.629    -0.588  0.2250  0.9528 -0.2038
     8 H(1)   Bbb    -0.0028    -1.505    -0.537    -0.502  0.9122 -0.1325  0.3877
              Bcc     0.0061     3.268     1.166     1.090 -0.3424  0.2731  0.8990
 
              Baa    -0.0025    -1.308    -0.467    -0.436 -0.3028  0.9445 -0.1275
     9 H(1)   Bbb    -0.0023    -1.219    -0.435    -0.407  0.9502  0.2888 -0.1174
              Bcc     0.0047     2.528     0.902     0.843  0.0741  0.1568  0.9849
 
              Baa    -0.0038    -0.516    -0.184    -0.172  0.9065 -0.2645 -0.3292
    10 C(13)  Bbb    -0.0025    -0.332    -0.118    -0.111 -0.0450  0.7148 -0.6979
              Bcc     0.0063     0.848     0.302     0.283  0.4199  0.6474  0.6360
 
              Baa    -0.0038    -2.049    -0.731    -0.683  0.7725 -0.4049 -0.4892
    11 H(1)   Bbb    -0.0030    -1.609    -0.574    -0.537  0.1840 -0.5946  0.7827
              Bcc     0.0069     3.657     1.305     1.220  0.6077  0.6947  0.3848
 
              Baa    -0.0016    -0.854    -0.305    -0.285  0.8114 -0.5665  0.1440
    12 H(1)   Bbb    -0.0013    -0.687    -0.245    -0.229 -0.4572 -0.4616  0.7602
              Bcc     0.0029     1.542     0.550     0.514  0.3642  0.6826  0.6336
 
              Baa    -0.0028    -1.471    -0.525    -0.491 -0.6383  0.7524  0.1626
    13 H(1)   Bbb    -0.0026    -1.370    -0.489    -0.457 -0.4546 -0.5388  0.7092
              Bcc     0.0053     2.841     1.014     0.948  0.6213  0.3788  0.6860
 
              Baa    -1.4109   102.092    36.429    34.054  0.5058 -0.6004  0.6194
    14 O(17)  Bbb    -1.1633    84.176    30.036    28.078  0.0509  0.7375  0.6734
              Bcc     2.5742  -186.268   -66.465   -62.132  0.8611  0.3091 -0.4036
 
              Baa    -1.1792    85.325    30.446    28.461 -0.4983  0.6723 -0.5475
    15 O(17)  Bbb    -0.9336    67.557    24.106    22.535  0.1116  0.6759  0.7285
              Bcc     2.1128  -152.883   -54.552   -50.996  0.8598  0.3019 -0.4118
 
              Baa    -0.0303   -16.190    -5.777    -5.400 -0.5996  0.7273 -0.3339
    16 H(1)   Bbb    -0.0284   -15.166    -5.412    -5.059  0.7773  0.4300 -0.4593
              Bcc     0.0588    31.356    11.189    10.459  0.1905  0.5349  0.8232
 

 ---------------------------------------------------------------------------------

 Use density number 0.
 Entering OneElI...
 Calculate overlap and kinetic energy integrals
    NBasis = 187  MinDer = 2  MaxDer = 2
 Requested accuracy = 0.1000D-12
 PrsmSu:  NPrtUS=   1 ThrOK=F
 PRISM was handed   130759677 working-precision words and  2555 shell-pairs
 Entering OneElI...
 Calculate potential energy integrals
    NBasis = 187  MinDer = 2  MaxDer = 2
 Requested accuracy = 0.1000D-12
 PrsmSu:  NPrtUS=   8 ThrOK=T
 PRISM was handed    16301861 working-precision words and  2382 shell-pairs
 PRISM was handed    16301861 working-precision words and  2382 shell-pairs
 PRISM was handed    16301861 working-precision words and  2382 shell-pairs
 PRISM was handed    16301861 working-precision words and  2382 shell-pairs
 PRISM was handed    16301861 working-precision words and  2382 shell-pairs
 PRISM was handed    16301861 working-precision words and  2382 shell-pairs
 PRISM was handed    16301861 working-precision words and  2382 shell-pairs
 PRISM was handed    16301861 working-precision words and  2382 shell-pairs
 Polarizability after L701:
                1             2             3
      1  0.619391D+02
      2 -0.545555D+01  0.642054D+02
      3  0.585459D+01  0.417067D+01  0.682047D+02
 Dipole Derivatives after L701:
               1            2            3            4            5
      1-0.133450D+01 0.136509D+00 0.389087D-01 0.357221D+00-0.683109D-01
      2 0.665341D+00-0.468866D+00-0.784894D-01-0.446571D-01 0.395083D+00
      3 0.139087D-01-0.510138D-02-0.263528D+00 0.501322D-01-0.551615D-02
               6            7            8            9           10
      1 0.955181D-02 0.127765D+01-0.256957D+00 0.912046D-01-0.357354D-02
      2-0.252457D-02-0.587761D+00 0.311328D+00 0.148003D+00-0.258322D-01
      3 0.188085D+00 0.181910D+00-0.169396D+00 0.618135D+00 0.908297D-02
              11           12           13           14           15
      1-0.167701D-01 0.552409D-01-0.153515D+00 0.389213D+00-0.704360D-01
      2-0.209112D-01 0.340501D-01 0.101021D+00-0.283825D+00 0.670166D-02
      3 0.345204D-01-0.343838D-01-0.140190D+00 0.248980D+00-0.437731D-01
              16           17           18           19           20
      1-0.624198D-02-0.110089D+00 0.336145D-03 0.749366D-01 0.151167D-01
      2-0.670348D-01 0.182490D+00 0.436383D-01-0.114649D-01-0.803983D-01
      3-0.162600D-01-0.732959D-01 0.131156D+00 0.334717D-01-0.117791D+00
              21           22           23           24           25
      1 0.415323D-02-0.832486D-01-0.586963D-01-0.194514D-01-0.979443D-03
      2-0.486822D-01-0.731222D-01 0.406774D-01-0.135380D-01 0.101644D+00
      3-0.964531D-01 0.183335D-01-0.365927D-02 0.567183D-01-0.666790D-01
              26           27           28           29           30
      1 0.808215D-01-0.168219D-01 0.170145D+00-0.987593D-01 0.433929D-02
      2-0.274416D-01 0.358194D-01 0.654731D-02 0.173638D+00 0.395371D-01
      3 0.892673D-01-0.885784D-02 0.103919D+00 0.570631D-02 0.376824D-01
              31           32           33           34           35
      1 0.105283D-01-0.389035D-01 0.931995D-01-0.232642D-01-0.689432D-01
      2-0.184991D-01 0.456974D-01 0.591194D-01 0.542693D-02-0.721866D-01
      3 0.396096D-01 0.473535D-01-0.108356D+00-0.288194D-01-0.128069D+00
              36           37           38           39           40
      1-0.456926D-01-0.240507D-01 0.109768D+00-0.636789D-01-0.126512D+00
      2-0.113270D+00 0.257482D-01-0.530518D-01 0.399785D-01-0.387996D+00
      3-0.223341D-01-0.538562D-01 0.706840D-01 0.384816D-01-0.258588D+00
              41           42           43           44           45
      1-0.135244D+00 0.411782D-01-0.217973D+00 0.190643D+00-0.811946D-02
      2 0.217766D+00-0.549155D+00 0.368127D+00-0.919133D+00 0.188213D+00
      3 0.102941D+00-0.640065D+00 0.223620D+00-0.395804D+00 0.681799D-02
              46           47           48
      1 0.833793D-01-0.693969D-01-0.113912D+00
      2-0.574897D-01 0.559133D+00 0.210598D+00
      3-0.109595D+00 0.299181D+00 0.140675D+00
 Hessian after L701:
                1             2             3             4             5
      1  0.346027D+01
      2  0.226225D+01  0.168168D+02
      3 -0.165505D+01  0.983138D+00  0.128080D+02
      4 -0.506835D+01 -0.644514D+00  0.254548D+01  0.494769D+01
      5 -0.649607D+00 -0.643269D+01 -0.107491D+01  0.836292D+00  0.630326D+01
      6  0.227011D+01 -0.963121D+00 -0.297407D+01 -0.262256D+01  0.107905D+01
      7  0.201579D+01 -0.567223D+00 -0.133270D+01 -0.595044D-02  0.517001D-01
      8 -0.405015D+00 -0.106305D+02  0.738162D-01  0.772144D-01  0.821879D-01
      9 -0.131149D+01  0.983918D-01 -0.100870D+02 -0.136368D+00  0.325461D-01
     10 -0.896608D-01  0.640125D-01  0.368795D-01 -0.145821D+00 -0.204110D-01
     11  0.616101D-01  0.192336D+00 -0.805501D-01 -0.272384D-01  0.399874D-01
     12  0.404016D-02 -0.895985D-01  0.185630D+00  0.962206D-02  0.208275D-02
     13 -0.578575D+00 -0.186780D+00  0.215349D+00  0.193065D+00 -0.811825D-01
     14 -0.229305D+00  0.269341D+00 -0.597961D-01 -0.765950D-01 -0.491963D-01
     15  0.370215D+00 -0.798838D-01  0.330919D+00  0.216905D+00 -0.646661D-01
     16  0.482749D-01 -0.254453D+00  0.405442D+00  0.483838D-02 -0.108633D-01
     17 -0.227655D+00 -0.222421D+00 -0.243375D+00 -0.108345D-01 -0.675056D-02
     18  0.362281D+00 -0.254319D+00  0.166339D-01  0.155097D-01 -0.121576D-01
     19 -0.125766D-01 -0.117739D-01  0.503898D-01 -0.647749D-03  0.211558D-03
     20  0.971062D-02 -0.369479D-01  0.105407D-01  0.446805D-02 -0.233842D-02
     21  0.698365D-01 -0.278290D-01  0.799861D-01  0.346426D-02 -0.199693D-02
     22 -0.116453D+00  0.102999D-01 -0.367090D-02 -0.637507D-02  0.422008D-02
     23 -0.567656D-01 -0.164046D-01 -0.150655D+00 -0.317669D-02  0.130186D-02
     24  0.681295D-01 -0.117999D+00  0.698744D-01  0.456368D-03 -0.947131D-04
     25  0.118407D-01 -0.239435D-01  0.261064D-01  0.394195D-02 -0.271405D-02
     26 -0.322459D-01  0.433844D-02 -0.273227D-01 -0.532636D-02  0.209863D-02
     27  0.344073D-01 -0.254450D-01  0.126400D-01  0.543281D-02 -0.314718D-02
     28  0.335828D+00  0.331774D-02  0.102958D+00  0.111405D-01 -0.421996D-02
     29 -0.332105D-01 -0.165918D+00  0.909267D-03 -0.490347D-02 -0.603623D-02
     30  0.117752D+00  0.337501D-02 -0.149734D+00  0.899539D-02 -0.275787D-02
     31  0.508395D-01  0.293281D-02 -0.950367D-02  0.593837D-02 -0.196171D-02
     32  0.941759D-02 -0.173998D-01 -0.262297D-02  0.143691D-02 -0.150782D-02
     33 -0.334956D-01 -0.259710D-02 -0.932857D-02 -0.521366D-02  0.167013D-02
     34  0.271462D-01  0.674695D-02  0.148182D-01  0.207844D-02 -0.809104D-03
     35  0.290078D-01 -0.103242D-01  0.605705D-02  0.472434D-02 -0.232521D-02
     36  0.350581D-01  0.701750D-02 -0.822666D-02  0.462078D-02 -0.135953D-02
     37  0.291907D-01 -0.616961D-02  0.478880D-02  0.608833D-02 -0.267603D-02
     38 -0.243579D-01 -0.615790D-02 -0.271354D-02 -0.516086D-02  0.119390D-02
     39  0.166061D-01 -0.298792D-02 -0.976033D-02  0.383965D-02 -0.136734D-02
     40 -0.209778D+00 -0.218257D+00 -0.252838D+00  0.272417D-01 -0.799876D-01
     41 -0.250681D+00  0.473687D-01  0.401290D+00 -0.983638D-01  0.482940D-01
     42 -0.180316D+00  0.308928D+00 -0.202792D-01 -0.475415D-01  0.484793D-01
     43  0.702355D-01 -0.381267D+00 -0.151102D+00  0.256393D-01 -0.368276D-01
     44 -0.364406D+00  0.194682D+00  0.174814D+00 -0.451235D-01  0.230321D-01
     45 -0.144162D+00  0.155460D+00 -0.195904D+00  0.393308D-03 -0.113678D-02
     46  0.259841D-01 -0.551809D-01  0.264911D-02 -0.514854D-03 -0.116454D-02
     47 -0.987488D-01  0.138725D-01 -0.861870D-02 -0.289964D-02 -0.512706D-03
     48 -0.239212D-01  0.747125D-02 -0.493903D-01 -0.303780D-02 -0.238967D-03
                6             7             8             9            10
      6  0.279040D+01
      7  0.441431D-02  0.886556D+01
      8  0.213138D-01  0.230173D+01  0.231871D+02
      9  0.928989D-01 -0.152786D+01  0.385823D+01  0.181764D+02
     10  0.190903D-01 -0.438932D+01  0.731183D+00 -0.113711D+01  0.447486D+01
     11  0.810837D-02  0.873788D+00 -0.408422D+01 -0.146205D+01 -0.856716D+00
     12  0.349784D-01 -0.120875D+01 -0.127910D+01 -0.300270D+01  0.113812D+01
     13  0.224353D+00 -0.553784D+01 -0.227842D+01  0.384104D+01  0.267855D+00
     14 -0.648814D-01 -0.210551D+01 -0.884936D+01 -0.351094D+01  0.331282D-01
     15  0.100004D+00  0.382903D+01 -0.374570D+01 -0.533834D+01 -0.695881D-01
     16  0.274482D-01  0.403280D-01 -0.535734D-01  0.131069D+00 -0.521306D-01
     17 -0.159022D-01 -0.361090D-01  0.162863D+00 -0.585558D-01  0.145233D-01
     18  0.160163D-01  0.114310D+00 -0.152380D-01  0.135987D+00 -0.227102D-01
     19 -0.485620D-03 -0.153299D-03 -0.677229D-04  0.945090D-02 -0.143263D-02
     20  0.720181D-02  0.222693D-02  0.178787D-02  0.628534D-01 -0.243530D-02
     21  0.555753D-02  0.179017D-01  0.466692D-01 -0.307168D-02 -0.404112D-02
     22 -0.105839D-01  0.128188D-01 -0.182160D-02  0.750558D-02  0.287999D-02
     23 -0.639121D-02 -0.893356D-02  0.107233D-01  0.252075D-01  0.723680D-02
     24  0.387841D-03  0.311748D-01  0.463377D-01 -0.640672D-01 -0.683883D-02
     25  0.692986D-02 -0.451872D-01 -0.422366D-01  0.560826D-01 -0.149806D-02
     26 -0.787212D-02 -0.435855D-01  0.517953D-01 -0.141205D+00  0.278011D-02
     27  0.670369D-02  0.524286D-01 -0.132683D+00  0.115314D+00 -0.348372D-02
     28  0.175282D-01  0.131765D+00 -0.123066D+00  0.492448D-01 -0.113540D-01
     29 -0.686814D-02 -0.179646D+00  0.881441D-02 -0.503289D-01  0.204498D-02
     30  0.419173D-02  0.950079D-01 -0.142497D-01 -0.108054D-01  0.187122D-01
     31  0.642788D-02 -0.190086D-01  0.598171D-02  0.545956D-02  0.288802D-01
     32  0.166133D-02  0.311586D-02 -0.343054D-02  0.226378D-02 -0.683462D-02
     33 -0.699063D-02 -0.369978D-01 -0.321627D-02 -0.461243D-02  0.125545D-01
     34  0.347480D-02 -0.361009D-01  0.736364D-02 -0.988712D-02 -0.136748D-02
     35  0.613734D-02  0.249990D-01  0.200672D-01  0.262235D-01 -0.472595D-03
     36  0.524614D-02  0.659427D-02  0.214267D-01  0.171873D-01  0.259435D-02
     37  0.728875D-02  0.140848D+00 -0.893935D-01  0.885941D-01  0.112506D-04
     38 -0.581395D-02 -0.993574D-01 -0.119951D-01 -0.416641D-01 -0.159620D-02
     39  0.322514D-02  0.848984D-01 -0.362496D-01 -0.187352D-01  0.288820D-02
     40  0.177307D-01 -0.112806D+01 -0.200733D+00 -0.117330D+00 -0.346739D-01
     41 -0.162502D-01 -0.198761D+00 -0.130354D+00  0.102208D+01  0.239378D-01
     42 -0.589429D-01 -0.155856D+00  0.973470D+00 -0.924593D-01  0.869238D-02
     43  0.262541D-01 -0.114713D+00  0.217620D+00 -0.353993D-01 -0.367467D-01
     44 -0.320799D-01  0.148663D+00  0.273652D-01  0.236263D+00  0.113874D-01
     45 -0.169888D-01 -0.455568D-01  0.243619D+00  0.584957D-01  0.143933D-02
     46  0.258001D-02  0.692201D-01 -0.146764D+00  0.869965D-01 -0.104760D-01
     47 -0.429683D-02 -0.167091D+00  0.157134D+00 -0.993117D-01 -0.176777D-02
     48 -0.261918D-02  0.719580D-01 -0.584469D-01  0.254723D-01  0.279591D-02
               11            12            13            14            15
     11  0.362930D+01
     12  0.142640D+01  0.285048D+01
     13  0.124505D-01 -0.300061D-01  0.147914D+02
     14  0.122595D+00  0.216578D+00  0.419331D+00  0.199384D+02
     15  0.264845D+00 -0.164758D+00 -0.236843D+01  0.257768D+01  0.143583D+02
     16  0.629614D-02 -0.983805D-02 -0.510400D+01  0.660563D+00 -0.208033D+01
     17  0.717003D-02 -0.935043D-01  0.656785D+00 -0.556381D+01 -0.123787D+01
     18 -0.104919D+00  0.141000D+00 -0.222427D+01 -0.130529D+01 -0.198588D+01
     19  0.309307D-03 -0.129371D-02  0.941538D-01 -0.746822D-02  0.203230D-01
     20 -0.555320D-02  0.633317D-02 -0.309460D-01  0.156011D+00  0.888908D-01
     21 -0.471209D-02  0.110828D-01  0.793425D-02  0.456614D-01  0.766838D-01
     22  0.112326D-01 -0.165233D-01  0.509971D-01  0.556273D-01 -0.210915D-01
     23  0.616110D-02 -0.158061D-01  0.302777D-01  0.696027D-01 -0.310049D-01
     24 -0.114574D-01  0.109069D-01  0.658617D-01 -0.386267D-02  0.429386D-01
     25 -0.297540D-02  0.522098D-02  0.950317D-01 -0.318745D-01  0.150886D-01
     26  0.340513D-02 -0.607265D-02  0.126350D-01  0.110185D+00  0.417434D-01
     27 -0.247781D-02  0.243305D-02 -0.380901D-01  0.558517D-01 -0.103309D+00
     28 -0.130339D-01  0.530526D-01 -0.107323D+01  0.133568D+01  0.179764D+00
     29 -0.287812D-01 -0.241329D-01  0.140390D+01 -0.555146D+01  0.142518D+00
     30 -0.231587D-01  0.232675D-01  0.295328D+00  0.161029D+00 -0.595792D+01
     31 -0.220041D-01  0.365292D-01  0.306390D-01 -0.371932D-02  0.516297D-01
     32 -0.194974D-01 -0.211734D-02  0.613952D-02  0.433145D-01  0.112569D-01
     33  0.824851D-03 -0.223808D-01 -0.217848D-01 -0.126986D-01  0.723232D-01
     34 -0.217226D-02  0.800151D-02 -0.277627D-01 -0.364836D-01 -0.183942D-01
     35 -0.734416D-02  0.996543D-02 -0.612427D-02  0.174572D+00  0.545775D-01
     36 -0.499601D-02  0.136859D-01  0.976378D-02  0.665861D-01  0.131340D+00
     37 -0.824089D-02  0.123219D-01 -0.242884D-01 -0.377646D-01 -0.131130D+00
     38  0.479529D-02 -0.111843D-01 -0.888158D-01  0.143897D+00 -0.352945D-02
     39 -0.671299D-02  0.705667D-02 -0.823011D-01 -0.855541D-02  0.467180D-01
     40 -0.177753D-01 -0.121820D-01 -0.292421D+00  0.127908D+00  0.875717D-01
     41  0.593111D-03 -0.567817D-01  0.151224D+00  0.312381D-02  0.531548D+00
     42  0.242706D-01 -0.483067D-01  0.121191D+00  0.515185D+00  0.193724D+00
     43 -0.724018D-02  0.812882D-02  0.105949D+00  0.269971D-01  0.432115D-01
     44  0.111864D+00 -0.564011D-01  0.661823D-02 -0.310040D+00 -0.138056D+00
     45 -0.924500D-02 -0.335012D-01  0.356649D-01 -0.117586D+00  0.208039D+00
     46 -0.829048D-02  0.355022D-02 -0.299098D+01 -0.130511D+00 -0.124778D+00
     47  0.271884D-01 -0.266649D-01 -0.270960D-01 -0.707183D+00  0.158765D+01
     48 -0.141750D-01 -0.887679D-02 -0.516032D-01  0.144504D+01 -0.201083D+01
               16            17            18            19            20
     16  0.148081D+02
     17 -0.282091D+00  0.153967D+02
     18  0.103833D+01  0.901408D+00  0.122692D+02
     19 -0.423593D+01 -0.210854D+00 -0.175623D+00  0.403973D+01
     20 -0.183916D+00 -0.266818D+01  0.132325D+01  0.213584D+00  0.265700D+01
     21 -0.174877D+00  0.150584D+01 -0.302105D+01  0.194955D+00 -0.154452D+01
     22 -0.194798D+01  0.987882D+00  0.453734D+00  0.465892D-01 -0.479182D-01
     23  0.105955D+01 -0.404317D+01  0.205202D+00 -0.842351D-01 -0.408812D-02
     24  0.161860D+00  0.783226D-01 -0.446894D+01 -0.521031D-01 -0.449455D-01
     25 -0.348520D+01 -0.101814D+01  0.665346D+00  0.657864D-01  0.667717D-01
     26 -0.108378D+01 -0.287793D+01 -0.900427D+00  0.934412D-01 -0.895083D-01
     27  0.804977D+00 -0.102353D+01 -0.362473D+01  0.177863D-01 -0.243938D-01
     28  0.156886D+00  0.975834D-01 -0.609173D-01  0.585921D-02 -0.185421D-01
     29  0.106956D+00  0.418882D-02 -0.431284D-01 -0.369317D-02 -0.131306D-01
     30 -0.161577D+00 -0.791258D-01  0.639549D-02 -0.159379D-01  0.233552D-01
     31  0.648428D-01  0.532043D-01 -0.113365D+00  0.942527D-03 -0.370799D-02
     32  0.536867D-01 -0.227799D-01 -0.527588D-01  0.577044D-03 -0.290392D-02
     33 -0.110245D+00 -0.506920D-01  0.547564D-01 -0.426868D-02  0.653606D-02
     34  0.220318D-02  0.201021D-01 -0.840890D-02  0.337100D-01  0.133364D-01
     35  0.447352D-01  0.112367D-01 -0.686205D-02  0.294522D-01 -0.188906D-01
     36  0.324726D-03  0.131050D-02 -0.183699D-01 -0.217265D-01 -0.982467D-02
     37 -0.128410D-02 -0.458283D-04  0.461617D-02 -0.367551D-02 -0.573026D-02
     38 -0.242556D-01 -0.923926D-02  0.990445D-03 -0.210273D-02  0.685312D-02
     39  0.274370D-02 -0.211052D-02 -0.899468D-02  0.437923D-02 -0.180565D-02
     40 -0.151786D+00 -0.133061D-02  0.154472D-02 -0.969243D-02 -0.351472D-03
     41  0.490803D-02 -0.138409D+00  0.708083D-01 -0.466652D-04  0.619483D-03
     42  0.276804D-01  0.847640D-01  0.301906D+00 -0.752126D-03  0.237838D-01
     43 -0.184545D+00 -0.420317D-01 -0.819209D-01 -0.111559D-01 -0.332979D-02
     44 -0.310895D-01 -0.895951D-01  0.178306D+00 -0.301061D-02  0.785322D-02
     45 -0.779893D-01  0.235219D+00  0.222764D+00 -0.549678D-02  0.287044D-01
     46  0.373494D-01 -0.984739D-03  0.315413D-01 -0.115044D-01 -0.132208D-01
     47 -0.126793D-01  0.601193D-01  0.151341D-01 -0.143236D-01  0.114080D-01
     48  0.149747D-01 -0.219772D-02 -0.367436D-01 -0.195965D-01  0.440408D-01
               21            22            23            24            25
     21  0.259534D+01
     22 -0.434325D-01  0.185641D+01
     23 -0.656662D-01 -0.108488D+01  0.395789D+01
     24  0.471126D-01 -0.136863D+00  0.474289D-01  0.427981D+01
     25  0.144716D-01 -0.501259D-01  0.501177D-01 -0.435980D-01  0.342828D+01
     26 -0.239343D-01  0.141120D-01  0.759951D-01 -0.250500D-02  0.997776D+00
     27  0.111725D+00 -0.536810D-01  0.140259D-01  0.530585D-01 -0.785544D+00
     28 -0.147952D-01  0.144464D+00  0.844705D-01 -0.629965D-01 -0.158725D-01
     29  0.699550D-02  0.804329D-01 -0.132720D-01 -0.250150D-01 -0.562365D-02
     30 -0.236825D-02 -0.620369D-01 -0.262066D-01 -0.324729D-01  0.935138D-02
     31 -0.562675D-02  0.116269D-03 -0.292838D-03  0.471700D-02 -0.222893D-02
     32 -0.179391D-02  0.769529D-03  0.409751D-03  0.191567D-02  0.153869D-03
     33  0.811303D-02 -0.627897D-02 -0.256410D-02 -0.118718D-02  0.843507D-03
     34 -0.374414D-01  0.283619D-02  0.223946D-02  0.438952D-03 -0.353921D-02
     35 -0.243097D-01  0.986879D-02  0.387233D-02  0.793942D-03 -0.598130D-02
     36 -0.783309D-02  0.509678D-02  0.263953D-02 -0.102240D-02  0.234632D-03
     37 -0.105090D-02  0.158026D-01  0.428110D-02 -0.108121D-02  0.233207D-01
     38  0.497998D-02 -0.645760D-02 -0.433899D-02 -0.306282D-03  0.142291D-01
     39 -0.264942D-02  0.198058D-02  0.771705D-03 -0.213237D-02 -0.229996D-01
     40 -0.762244D-03 -0.880380D-02  0.318328D-02 -0.157218D-01 -0.980652D-02
     41  0.121442D-01 -0.393052D-02 -0.235072D-01  0.522732D-02 -0.884222D-03
     42  0.245911D-01 -0.493944D-01 -0.850951D-02  0.414157D-01  0.206552D-01
     43 -0.433331D-02  0.562415D-02 -0.713339D-02 -0.370525D-01 -0.276673D-01
     44  0.205018D-01 -0.276808D-01 -0.258905D-01  0.298761D-01  0.410763D-02
     45  0.213094D-01 -0.770999D-01  0.165420D-01  0.388425D-01  0.249566D-01
     46 -0.222027D-01 -0.879979D-02  0.405768D-02  0.236164D-01  0.129320D-01
     47  0.519675D-01 -0.175857D-02  0.471407D-02 -0.371649D-02  0.122178D-02
     48  0.554629D-01  0.123387D-01 -0.501373D-02 -0.145210D-01  0.685355D-02
               26            27            28            29            30
     26  0.275453D+01
     27  0.113883D+01  0.335478D+01
     28  0.103278D-01  0.111370D-02  0.116379D+02
     29  0.569717D-02 -0.649117D-02 -0.982896D+00  0.150707D+02
     30 -0.233398D-01 -0.570374D-02 -0.460712D+00 -0.275263D+00  0.151640D+02
     31  0.588360D-02 -0.606226D-02 -0.388674D+01  0.284831D+00 -0.112652D+01
     32  0.316094D-02 -0.563833D-02  0.261525D+00 -0.410514D+01 -0.703295D+00
     33 -0.109517D-01  0.833779D-02 -0.877962D+00 -0.597754D+00 -0.205963D+01
     34 -0.299830D-03  0.518996D-03 -0.411908D+01  0.368774D+00  0.281390D+00
     35  0.740383D-02 -0.408320D-02  0.230080D+00 -0.241876D+01  0.130869D+01
     36  0.553603D-02 -0.335185D-02  0.176270D+00  0.129845D+01 -0.316626D+01
     37  0.333530D-01 -0.417267D-01 -0.319813D+01 -0.133020D+01  0.668806D+00
     38 -0.185949D-01 -0.567260D-02 -0.113694D+01 -0.285455D+01 -0.712762D+00
     39 -0.111872D-01 -0.317572D-02  0.616682D+00 -0.774928D+00 -0.385859D+01
     40 -0.308317D-02  0.696185D-02 -0.767225D-02  0.104362D+00  0.195915D+00
     41 -0.129886D-01 -0.864671D-03  0.977310D-01 -0.893812D-01  0.129716D+00
     42 -0.190703D-01  0.365926D-01  0.158235D+00  0.105417D+00  0.524445D-01
     43 -0.149410D-02  0.103064D-02 -0.891571D-01  0.249604D+00  0.176318D+00
     44 -0.289491D-01  0.205106D-01  0.207220D+00  0.127847D+00  0.261166D+00
     45 -0.101739D-01  0.866077D-01  0.145185D+00  0.263845D+00 -0.470296D-01
     46 -0.497861D-03  0.393092D-02 -0.226529D-01 -0.607283D-01 -0.407906D-01
     47  0.936346D-02  0.521723D-02 -0.492381D-01  0.291726D-01 -0.271769D-01
     48 -0.204298D-02 -0.479243D-01 -0.226498D-01 -0.142257D-01  0.402035D-01
               31            32            33            34            35
     31  0.353690D+01
     32 -0.426242D+00  0.400630D+01
     33  0.108544D+01  0.677464D+00  0.209680D+01
     34  0.787029D-01  0.170506D-01  0.178300D-01  0.396669D+01
     35  0.166409D-01  0.719806D-01 -0.420587D-01 -0.506394D+00  0.219157D+01
     36  0.333035D-01 -0.738550D-01 -0.724814D-01 -0.312573D+00 -0.137689D+01
     37  0.793765D-01  0.575232D-02 -0.141096D-01  0.853643D-01  0.694180D-01
     38  0.903114D-02  0.193760D-01  0.494684D-01  0.557691D-01 -0.979487D-01
     39 -0.272161D-01  0.897230D-01 -0.123604D-01  0.220083D-01 -0.433098D-01
     40  0.368066D-01  0.470261D-01  0.589210D-02 -0.336461D-02  0.133705D-01
     41  0.480329D-01  0.303591D-02  0.251175D-02  0.588091D-02  0.697042D-02
     42  0.414460D-01  0.287160D-01 -0.249120D-01  0.787323D-02  0.203811D-01
     43  0.489569D-02  0.466422D-01 -0.117406D-01 -0.636220D-02  0.155500D-01
     44  0.519204D-01  0.371545D-01 -0.113014D-01  0.966413D-02  0.203096D-01
     45  0.175201D-01  0.242316D-01 -0.339745D-01  0.799599D-02  0.273450D-01
     46 -0.108972D-01 -0.202158D-01 -0.467836D-03 -0.116178D-02  0.311255D-01
     47 -0.205305D-01 -0.120729D-01 -0.464097D-02  0.392322D-01  0.476042D-01
     48  0.581736D-02  0.484952D-02  0.752169D-02  0.223540D-01  0.373363D-01
               36            37            38            39            40
     36  0.298407D+01
     37  0.158615D-01  0.282832D+01
     38 -0.173174D-01  0.132366D+01  0.286436D+01
     39  0.101903D+00 -0.689587D+00  0.755392D+00  0.371922D+01
     40  0.137854D-01  0.144707D-01 -0.925034D-02  0.260122D-01  0.706733D+01
     41  0.167735D-01  0.899423D-02 -0.163453D-01  0.745632D-02  0.521145D+01
     42  0.107117D-01  0.284485D-01 -0.101183D-01  0.115015D-01 -0.457040D+01
     43  0.113660D-01  0.365064D-01  0.152281D-01  0.648174D-01 -0.548065D+01
     44  0.238647D-01  0.477833D-01 -0.247013D-01  0.441065D-01 -0.509109D+01
     45  0.680836D-02  0.696133D-01  0.139100D-01  0.259636D-01  0.496944D+01
     46  0.194258D-01 -0.319211D-01 -0.196215D-01 -0.247519D-01  0.190853D+00
     47  0.406352D-01 -0.130143D-01  0.340073D-02 -0.823478D-02  0.114554D+00
     48  0.658962D-02 -0.216538D-01 -0.136589D-01  0.810137D-03 -0.355621D+00
               41            42            43            44            45
     41  0.230484D+01
     42  0.306630D+01  0.302458D+01
     43 -0.511494D+01  0.495918D+01  0.802443D+01
     44 -0.239725D+01 -0.541690D+01  0.484077D+01  0.353297D+01
     45 -0.544403D+01 -0.323465D+01 -0.525377D+01  0.321269D+01  0.346299D+01
     46  0.115446D+00 -0.369140D+00 -0.232228D+01  0.234267D+00  0.331868D+00
     47  0.393395D+00  0.254898D+00  0.181857D+00 -0.120664D+01  0.136061D+01
     48  0.252066D+00 -0.217924D+00  0.285018D+00  0.145264D+01 -0.569776D+00
               46            47            48
     46  0.507485D+01
     47  0.722828D-01  0.116904D+01
     48  0.759734D-01 -0.313344D+01  0.282254D+01
 ReadGW:  IGet=0 IStart=         114 Next=        7227 LGW=        7113.
 ICntrl=12127.
 Symmetry not used in FoFDir.
 MinBra= 0 MaxBra= 2 Meth= 1.
 IRaf=       0 NMat=   1 IRICut=       1 DoRegI=T DoRafI=F ISym2E= 0 JSym2E=0.
 PrsmSu:  NPrtUS=   8 ThrOK=T
 PRISM was handed    16287898 working-precision words and  2469 shell-pairs
 PRISM was handed    16287898 working-precision words and  2469 shell-pairs
 PRISM was handed    16287898 working-precision words and  2469 shell-pairs
 PRISM was handed    16287898 working-precision words and  2469 shell-pairs
 PRISM was handed    16287898 working-precision words and  2469 shell-pairs
 PRISM was handed    16287898 working-precision words and  2469 shell-pairs
 PRISM was handed    16287898 working-precision words and  2469 shell-pairs
 PRISM was handed    16287898 working-precision words and  2469 shell-pairs
 Pruned (  75, 302) grid will be used in CalDFT.
 CkSvGd:  ISavGI=        -1 IRadAn=       4 IRASav=       4 ISavGd=        -1.
 CalDSu:  NPrtUS=   8 ThrOK=T
 IPart= 0 IRanGd=          0 ScrnBf=T ScrnGd=T RCrit=4.00D+00 DoMicB=T.
 IPart= 5 IRanGd=          0 ScrnBf=T ScrnGd=T RCrit=4.00D+00 DoMicB=T.
 IPart= 1 IRanGd=          0 ScrnBf=T ScrnGd=T RCrit=4.00D+00 DoMicB=T.
 IPart= 3 IRanGd=          0 ScrnBf=T ScrnGd=T RCrit=4.00D+00 DoMicB=T.
 IPart= 2 IRanGd=          0 ScrnBf=T ScrnGd=T RCrit=4.00D+00 DoMicB=T.
 IPart= 4 IRanGd=          0 ScrnBf=T ScrnGd=T RCrit=4.00D+00 DoMicB=T.
 CutRad = 1000.00    CtRdIn =    0.00    XCrit =  15.00   ICut = 0
 IPart= 7 IRanGd=          0 ScrnBf=T ScrnGd=T RCrit=4.00D+00 DoMicB=T.
 CutRad = 1000.00    CtRdIn =    0.00    XCrit =  15.00   ICut = 0
 CutRad = 1000.00    CtRdIn =    0.00    XCrit =  15.00   ICut = 0
 CutRad = 1000.00    CtRdIn =    0.00    XCrit =  15.00   ICut = 0
 CutRad = 1000.00    CtRdIn =    0.00    XCrit =  15.00   ICut = 0
 CutRad = 1000.00    CtRdIn =    0.00    XCrit =  15.00   ICut = 0
 IPart= 6 IRanGd=          0 ScrnBf=T ScrnGd=T RCrit=4.00D+00 DoMicB=T.
 CutRad = 1000.00    CtRdIn =    0.00    XCrit =  15.00   ICut = 0
 CutRad = 1000.00    CtRdIn =    0.00    XCrit =  15.00   ICut = 0
 IPart= 6        15635 of        19062 points in      41 batches and      106 microbatches, Max-NSigAt=      16 Max-NSgAt2=      16
 IPart= 3        13611 of        15586 points in      32 batches and       93 microbatches, Max-NSigAt=      16 Max-NSgAt2=      16
 IPart= 4        13153 of        14738 points in      29 batches and       82 microbatches, Max-NSigAt=      16 Max-NSgAt2=      16
 IPart= 0        15648 of        17846 points in      37 batches and      112 microbatches, Max-NSigAt=      16 Max-NSgAt2=      16
 IPart= 2        12318 of        13662 points in      27 batches and       81 microbatches, Max-NSigAt=      16 Max-NSgAt2=      16
 IPart= 1        14750 of        16828 points in      35 batches and      106 microbatches, Max-NSigAt=      16 Max-NSgAt2=      16
 IPart= 5        12620 of        14200 points in      30 batches and       96 microbatches, Max-NSigAt=      16 Max-NSgAt2=      16
 IPart= 7        14418 of        16014 points in      32 batches and      103 microbatches, Max-NSigAt=      16 Max-NSgAt2=      16
 Polarizability after L703:
                1             2             3
      1  0.619391D+02
      2 -0.545555D+01  0.642054D+02
      3  0.585459D+01  0.417067D+01  0.682047D+02
 Dipole Derivatives after L703:
               1            2            3            4            5
      1-0.133450D+01 0.136509D+00 0.389087D-01 0.357221D+00-0.683109D-01
      2 0.665341D+00-0.468866D+00-0.784894D-01-0.446571D-01 0.395083D+00
      3 0.139087D-01-0.510138D-02-0.263528D+00 0.501322D-01-0.551615D-02
               6            7            8            9           10
      1 0.955181D-02 0.127765D+01-0.256957D+00 0.912046D-01-0.357354D-02
      2-0.252457D-02-0.587761D+00 0.311328D+00 0.148003D+00-0.258322D-01
      3 0.188085D+00 0.181910D+00-0.169396D+00 0.618135D+00 0.908297D-02
              11           12           13           14           15
      1-0.167701D-01 0.552409D-01-0.153515D+00 0.389213D+00-0.704360D-01
      2-0.209112D-01 0.340501D-01 0.101021D+00-0.283825D+00 0.670166D-02
      3 0.345204D-01-0.343838D-01-0.140190D+00 0.248980D+00-0.437731D-01
              16           17           18           19           20
      1-0.624198D-02-0.110089D+00 0.336145D-03 0.749366D-01 0.151167D-01
      2-0.670348D-01 0.182490D+00 0.436383D-01-0.114649D-01-0.803983D-01
      3-0.162600D-01-0.732959D-01 0.131156D+00 0.334717D-01-0.117791D+00
              21           22           23           24           25
      1 0.415323D-02-0.832486D-01-0.586963D-01-0.194514D-01-0.979443D-03
      2-0.486822D-01-0.731222D-01 0.406774D-01-0.135380D-01 0.101644D+00
      3-0.964531D-01 0.183335D-01-0.365927D-02 0.567183D-01-0.666790D-01
              26           27           28           29           30
      1 0.808215D-01-0.168219D-01 0.170145D+00-0.987593D-01 0.433929D-02
      2-0.274416D-01 0.358194D-01 0.654731D-02 0.173638D+00 0.395371D-01
      3 0.892673D-01-0.885784D-02 0.103919D+00 0.570631D-02 0.376824D-01
              31           32           33           34           35
      1 0.105283D-01-0.389035D-01 0.931995D-01-0.232642D-01-0.689432D-01
      2-0.184991D-01 0.456974D-01 0.591194D-01 0.542693D-02-0.721866D-01
      3 0.396096D-01 0.473535D-01-0.108356D+00-0.288194D-01-0.128069D+00
              36           37           38           39           40
      1-0.456926D-01-0.240507D-01 0.109768D+00-0.636789D-01-0.126512D+00
      2-0.113270D+00 0.257482D-01-0.530518D-01 0.399785D-01-0.387996D+00
      3-0.223341D-01-0.538562D-01 0.706840D-01 0.384816D-01-0.258588D+00
              41           42           43           44           45
      1-0.135244D+00 0.411782D-01-0.217973D+00 0.190643D+00-0.811946D-02
      2 0.217766D+00-0.549155D+00 0.368127D+00-0.919133D+00 0.188213D+00
      3 0.102941D+00-0.640065D+00 0.223620D+00-0.395804D+00 0.681799D-02
              46           47           48
      1 0.833793D-01-0.693969D-01-0.113912D+00
      2-0.574897D-01 0.559133D+00 0.210598D+00
      3-0.109595D+00 0.299181D+00 0.140675D+00
 Hessian after L703:
                1             2             3             4             5
      1  0.521754D+00
      2 -0.621433D-01  0.751340D-01
      3  0.137173D+00 -0.128235D+00  0.507980D+00
      4 -0.116337D+00  0.382128D-01 -0.141925D+00  0.150296D+00
      5  0.480410D-01 -0.345582D-01  0.100560D+00 -0.501826D-01  0.334974D-01
      6 -0.192805D+00  0.104276D+00 -0.410731D+00  0.182361D+00 -0.101824D+00
      7 -0.335074D+00  0.110507D-01  0.105600D-01 -0.310664D-01  0.357726D-02
      8 -0.808220D-02 -0.517229D-01  0.314918D-01  0.151930D-01 -0.417559D-02
      9  0.587521D-01  0.264328D-01 -0.108117D+00 -0.446478D-01  0.110399D-02
     10 -0.266024D-01 -0.176577D-01  0.263582D-01  0.188346D-02 -0.327720D-03
     11  0.555597D-02  0.935996D-02 -0.260288D-02 -0.521417D-03 -0.566251D-03
     12  0.333290D-02  0.250421D-02  0.428140D-02  0.345771D-03 -0.198273D-02
     13 -0.436300D-01  0.223649D-01 -0.307773D-01 -0.481086D-02  0.383255D-03
     14  0.214123D-01  0.430294D-02  0.184159D-02 -0.304527D-02  0.725344D-02
     15 -0.275996D-02 -0.330592D-02  0.105953D-01  0.348334D-02  0.293861D-02
     16 -0.111840D-02 -0.457394D-03 -0.324360D-03  0.409395D-03  0.178335D-03
     17 -0.544620D-02 -0.290425D-02 -0.914620D-03 -0.106525D-02 -0.120167D-02
     18  0.281436D-02 -0.666481D-03  0.733821D-03  0.578603D-03  0.355077D-03
     19  0.107047D-02  0.378511D-03  0.732812D-03 -0.585148D-04  0.181756D-03
     20 -0.178873D-03  0.538159D-03 -0.302705D-03  0.415329D-04 -0.161555D-03
     21 -0.264847D-02 -0.199860D-03  0.446142D-04 -0.883743D-04 -0.302947D-03
     22  0.529665D-03  0.117114D-02 -0.142340D-02  0.221689D-03  0.126602D-03
     23  0.168008D-02 -0.580489D-03 -0.135275D-03  0.333093D-03  0.384749D-03
     24 -0.150239D-02  0.644872D-03 -0.985614D-03 -0.215462D-03 -0.214466D-03
     25  0.469184D-03  0.139110D-03 -0.120593D-02  0.193731D-03  0.176472D-03
     26 -0.180243D-03  0.158473D-03 -0.564784D-03 -0.146449D-04  0.980271D-04
     27  0.434880D-03 -0.942276D-04  0.451443D-03  0.146358D-03  0.100392D-03
     28  0.382804D-02 -0.219337D-02 -0.290377D-02 -0.867556D-03  0.519822D-03
     29 -0.753665D-04  0.233230D-02  0.621023D-02  0.194993D-02 -0.528162D-03
     30 -0.429231D-02  0.346096D-02 -0.128743D-02 -0.336111D-03  0.411614D-03
     31  0.492365D-03  0.173625D-03 -0.541697D-03 -0.124479D-03 -0.154252D-03
     32  0.205849D-03 -0.264278D-03 -0.323944D-03 -0.422266D-04  0.904997D-04
     33  0.416134D-03 -0.291667D-03  0.398074D-03  0.614829D-04 -0.233123D-05
     34 -0.264850D-02  0.155540D-02  0.595669D-03  0.238839D-03 -0.155390D-03
     35 -0.121429D-02  0.166068D-03 -0.218021D-03  0.530015D-04 -0.227291D-03
     36 -0.678619D-03  0.464808D-03  0.225093D-03  0.620011D-04 -0.101535D-03
     37 -0.106911D-02  0.297148D-03 -0.191258D-02 -0.528386D-03  0.259722D-04
     38 -0.312222D-03  0.207291D-03 -0.722546D-03 -0.285575D-03  0.896052D-04
     39 -0.190926D-03 -0.265458D-03 -0.184953D-03  0.119940D-04  0.956379D-04
     40  0.923344D-02  0.662896D-02  0.383523D-02 -0.538607D-05 -0.964538D-03
     41 -0.134950D-01  0.190376D-02  0.340618D-03  0.785008D-03 -0.128650D-02
     42  0.138141D-01 -0.798113D-02 -0.385030D-02 -0.306710D-03  0.462793D-03
     43 -0.979683D-02 -0.126977D-02  0.171903D-02  0.647197D-03 -0.177964D-03
     44  0.248802D-01 -0.361329D-02 -0.266873D-02 -0.137266D-02  0.163149D-02
     45 -0.587369D-02  0.472788D-02  0.569824D-02  0.963055D-03  0.185491D-05
     46 -0.110090D-02  0.174931D-02  0.401058D-04 -0.919607D-04 -0.124799D-02
     47 -0.106476D-01 -0.459533D-03 -0.375604D-02 -0.386572D-04 -0.340014D-03
     48 -0.598669D-02 -0.147158D-02 -0.525204D-02 -0.493358D-03 -0.160188D-02
                6             7             8             9            10
      6  0.403150D+00
      7  0.608969D-02  0.658616D+00
      8 -0.111824D-02 -0.240523D-01  0.331972D+00
      9  0.486700D-02  0.752653D-02 -0.280285D+00  0.551478D+00
     10  0.269506D-02 -0.946541D-01 -0.481494D-01  0.745349D-01  0.109679D+00
     11 -0.118297D-02 -0.554519D-01 -0.119800D+00  0.128728D+00  0.557874D-01
     12  0.121411D-02  0.761466D-01  0.128293D+00 -0.215765D+00 -0.872722D-01
     13  0.250971D-02 -0.162281D+00  0.564210D-01 -0.832180D-01  0.969109D-02
     14 -0.935688D-03  0.216469D-01 -0.108325D+00  0.653507D-01  0.632955D-02
     15  0.132109D-02 -0.109318D+00  0.112113D+00 -0.232494D+00 -0.128153D-01
     16  0.160523D-03  0.147893D-01  0.432958D-02 -0.140139D-01 -0.255043D-02
     17  0.807049D-04  0.417763D-02 -0.944684D-02  0.259139D-01  0.253716D-02
     18  0.185925D-03  0.674761D-02  0.704121D-02 -0.248810D-01 -0.134968D-02
     19 -0.707331D-04 -0.148329D-02  0.182885D-03 -0.179334D-02 -0.119124D-03
     20 -0.909344D-04 -0.684203D-03  0.924052D-03  0.678069D-03 -0.102585D-03
     21  0.579128D-04  0.607415D-02 -0.246546D-02  0.229869D-02  0.311282D-04
     22 -0.382378D-03 -0.150676D-02  0.401291D-03 -0.696650D-03  0.117592D-04
     23 -0.178063D-03 -0.311825D-02  0.735137D-03  0.293304D-04  0.155585D-03
     24 -0.131761D-04  0.157206D-02  0.524248D-03  0.104233D-02  0.329511D-04
     25 -0.690635D-04 -0.278428D-02 -0.109018D-02  0.308478D-02  0.609596D-03
     26 -0.627073D-04 -0.168061D-02 -0.109021D-03  0.854506D-03  0.255455D-03
     27 -0.643613D-05  0.365630D-02  0.254776D-02 -0.341652D-02 -0.106910D-02
     28 -0.239776D-03 -0.310749D-01 -0.257260D-02 -0.773186D-02  0.148519D-02
     29  0.722883D-03  0.225121D-01  0.110501D-03  0.783287D-03  0.690931D-03
     30  0.657437D-03 -0.148686D-01 -0.114379D-01  0.383390D-02 -0.141199D-02
     31 -0.848666D-04  0.807920D-03 -0.928102D-03  0.251724D-02 -0.265295D-03
     32 -0.123445D-04  0.740580D-03  0.509287D-03  0.462937D-03  0.905157D-04
     33 -0.320333D-04 -0.179546D-02  0.631164D-03 -0.196184D-03  0.245126D-03
     34  0.281902D-03  0.396454D-02 -0.422199D-02  0.259615D-02 -0.592867D-04
     35  0.602286D-04  0.198403D-02 -0.403767D-04  0.207187D-02 -0.805413D-04
     36  0.560399D-05  0.625468D-03 -0.784409D-03  0.371882D-03 -0.290915D-04
     37 -0.288222D-04 -0.500621D-02 -0.132015D-02  0.289655D-02 -0.859183D-04
     38 -0.117598D-03 -0.224426D-02  0.769257D-04  0.622030D-03 -0.783084D-04
     39  0.849025D-04 -0.970266D-03  0.698538D-03  0.716603D-03  0.145913D-03
     40 -0.738651D-03 -0.166344D-01 -0.509719D-02  0.112968D-01  0.870407D-03
     41  0.132846D-02  0.575603D-02  0.147049D-02  0.473645D-03  0.587558D-03
     42 -0.136987D-02 -0.179327D-02  0.199356D-01  0.218849D-01 -0.865607D-03
     43  0.667494D-03  0.761010D-02  0.111566D-01 -0.167201D-01 -0.158453D-03
     44 -0.185846D-02 -0.230340D-01 -0.129837D-01 -0.142158D-01 -0.401012D-03
     45  0.634766D-03 -0.193008D-01 -0.324423D-02 -0.439560D-01  0.289197D-03
     46 -0.345911D-03 -0.422227D-02  0.782984D-02  0.561659D-02  0.264294D-03
     47  0.913380D-03  0.388204D-01 -0.291953D-01  0.409960D-01  0.363102D-03
     48 -0.260695D-04  0.290475D-01 -0.394047D-02  0.423320D-01  0.480465D-03
               11            12            13            14            15
     11  0.116046D+00
     12 -0.133112D+00  0.220649D+00
     13 -0.744827D-02  0.980998D-02  0.541548D+00
     14  0.187861D-02  0.917766D-02  0.111787D-01  0.267742D+00
     15  0.130180D-01 -0.871671D-02  0.844014D-01 -0.129439D+00  0.551978D+00
     16  0.234040D-02 -0.274809D-02 -0.101260D+00 -0.148969D-01  0.326183D-01
     17  0.283786D-02  0.457935D-02 -0.151578D-01 -0.657689D-01  0.229374D-01
     18  0.698161D-03  0.741842D-03  0.352194D-01  0.366024D-01 -0.158373D+00
     19 -0.248547D-03 -0.191432D-03 -0.165431D-02  0.834946D-02  0.101046D-01
     20 -0.563379D-03 -0.495528D-03 -0.580938D-03  0.902680D-02  0.735733D-02
     21  0.831703D-03  0.448954D-03  0.163228D-02 -0.168147D-01 -0.239096D-01
     22 -0.794694D-04  0.562901D-04 -0.114571D-01 -0.385685D-02 -0.615345D-03
     23  0.129969D-04 -0.912584D-04 -0.655299D-02 -0.500779D-02 -0.184186D-02
     24 -0.334120D-03 -0.396302D-04  0.276783D-01  0.101116D-01  0.598707D-02
     25  0.406248D-04  0.695972D-03  0.808303D-02 -0.112636D-01  0.733135D-02
     26  0.132236D-03  0.311257D-03  0.394488D-02 -0.492793D-02  0.423174D-02
     27  0.291871D-03 -0.128047D-02 -0.163675D-01  0.183002D-01 -0.169842D-01
     28  0.557761D-03  0.207894D-02 -0.172222D+00 -0.328447D-01 -0.591772D-02
     29 -0.188067D-02 -0.140436D-02 -0.412791D-01 -0.679923D-01  0.497417D-02
     30 -0.848161D-03 -0.191701D-03 -0.137253D-01  0.813026D-02 -0.824796D-01
     31  0.670611D-03 -0.826670D-03 -0.105647D-01 -0.688294D-02  0.286086D-01
     32  0.340622D-03 -0.639252D-04 -0.316699D-02 -0.460110D-02  0.884500D-02
     33 -0.269995D-03  0.435879D-03 -0.659159D-03 -0.146150D-02  0.320776D-02
     34 -0.283970D-03 -0.459559D-03 -0.923144D-02 -0.230878D-01 -0.213039D-01
     35 -0.198871D-03 -0.138340D-03 -0.385220D-02 -0.433183D-02 -0.492864D-02
     36 -0.357804D-03 -0.293233D-03 -0.197841D-02 -0.786047D-03 -0.149673D-02
     37  0.151272D-03 -0.697927D-04 -0.193079D-01  0.191276D-01 -0.141934D-01
     38  0.957290D-05 -0.268059D-03 -0.750754D-02  0.879881D-02 -0.490993D-02
     39 -0.869288D-04  0.347382D-03 -0.120077D-02  0.356018D-03 -0.220027D-02
     40 -0.328814D-02 -0.301695D-02 -0.174279D-02  0.143358D-01  0.471482D-02
     41 -0.417715D-02 -0.423478D-02 -0.659940D-02  0.580030D-02 -0.116466D-01
     42 -0.540781D-02 -0.200903D-02 -0.142874D-01  0.314383D-01  0.888121D-03
     43  0.319703D-02  0.294547D-02  0.777564D-02 -0.183576D-01 -0.104553D-01
     44 -0.248817D-02 -0.206518D-02  0.198198D-01 -0.598528D-01 -0.103042D-01
     45  0.338603D-02  0.215244D-02  0.217389D-01 -0.909946D-01 -0.237400D-01
     46 -0.979365D-03 -0.827222D-03 -0.289348D-01  0.118553D-01  0.611598D-02
     47 -0.943102D-03 -0.100865D-02 -0.219673D-01  0.160039D-01 -0.100387D-01
     48 -0.275028D-02 -0.197557D-02 -0.207762D-01  0.591227D-01 -0.235838D-01
               16            17            18            19            20
     16  0.559594D+00
     17 -0.891828D-02  0.543037D+00
     18  0.445284D-01  0.172633D-01  0.480003D+00
     19 -0.482375D-01  0.146414D-01  0.104630D-01  0.474037D-01
     20  0.134533D-01 -0.203345D+00 -0.123072D+00 -0.148122D-01  0.219530D+00
     21  0.996410D-02 -0.124809D+00 -0.141333D+00 -0.144264D-01  0.134826D+00
     22 -0.271768D+00 -0.916884D-01 -0.367804D-01  0.357551D-02  0.134087D-02
     23 -0.905307D-01 -0.833867D-01 -0.145783D-01 -0.239978D-01 -0.942772D-02
     24 -0.394590D-01 -0.161638D-01 -0.536185D-01 -0.186238D-01 -0.614151D-02
     25 -0.131098D+00  0.104165D+00 -0.650154D-01 -0.161014D-02  0.536912D-03
     26  0.103736D+00 -0.176219D+00  0.792958D-01  0.147622D-01 -0.180155D-01
     27 -0.634958D-01  0.782517D-01 -0.936192D-01  0.121458D-01 -0.137884D-01
     28 -0.142714D-01 -0.647856D-02  0.231632D-02  0.100794D-02  0.574231D-03
     29 -0.859341D-02 -0.375708D-02 -0.405340D-03  0.124744D-02  0.731419D-03
     30  0.286118D-01  0.942040D-02  0.241901D-02  0.241628D-03  0.977890D-04
     31 -0.559533D-02 -0.168786D-02 -0.256500D-02  0.133209D-03  0.225274D-03
     32 -0.187579D-02 -0.133211D-03 -0.850564D-03 -0.244006D-03  0.119857D-03
     33 -0.939600D-04  0.240257D-03  0.953368D-03 -0.265936D-03 -0.183870D-04
     34  0.189500D-02  0.200226D-03 -0.117720D-02  0.169536D-04  0.484924D-03
     35  0.516328D-03  0.139956D-03 -0.278390D-03 -0.416319D-03 -0.841478D-05
     36 -0.995629D-04  0.779166D-03  0.863722D-03 -0.323871D-03 -0.424124D-03
     37  0.114368D-02  0.126617D-02 -0.874889D-03 -0.379809D-04 -0.834535D-04
     38  0.183128D-03  0.394396D-03 -0.449193D-03  0.314877D-04 -0.201695D-03
     39  0.498166D-03 -0.585529D-03  0.492576D-03  0.904276D-05 -0.244839D-04
     40 -0.103518D-02 -0.139150D-02 -0.543118D-03  0.204634D-03  0.407873D-04
     41  0.543754D-03 -0.273121D-02 -0.631360D-03  0.386680D-03  0.303917D-03
     42 -0.137183D-02 -0.431736D-02 -0.178155D-02  0.680724D-03  0.297176D-03
     43  0.649587D-03  0.947882D-04  0.313506D-03 -0.317720D-04  0.699544D-04
     44 -0.153532D-02  0.294145D-02  0.264354D-02 -0.581787D-04  0.200535D-03
     45 -0.710061D-03  0.425240D-02  0.526203D-02 -0.349431D-03  0.663682D-04
     46 -0.154610D-02  0.475159D-02  0.532442D-02 -0.179787D-03 -0.325550D-03
     47  0.152676D-02 -0.456561D-03 -0.296766D-02 -0.384743D-03  0.348868D-03
     48  0.593531D-02 -0.169280D-01 -0.180486D-01  0.166733D-02  0.103575D-02
               21            22            23            24            25
     21  0.158351D+00
     22 -0.223848D-04  0.295462D+00
     23 -0.353085D-02  0.100100D+00  0.864740D-01
     24 -0.326044D-02  0.396573D-01  0.155553D-01  0.585763D-01
     25 -0.260430D-03 -0.150583D-01  0.218675D-01 -0.117664D-01  0.139531D+00
     26  0.111158D-01 -0.651235D-02  0.999771D-02 -0.618485D-02 -0.114189D+00
     27  0.956608D-02 -0.247150D-02  0.275754D-02 -0.279315D-02  0.679578D-01
     28 -0.121136D-02  0.241185D-03  0.487986D-04  0.955242D-03  0.125607D-02
     29 -0.589301D-03 -0.491045D-03 -0.406661D-04  0.142086D-02 -0.592246D-03
     30  0.777903D-03  0.302199D-02  0.184859D-02 -0.536519D-02  0.814286D-04
     31 -0.209513D-03 -0.718983D-03 -0.578357D-03  0.169943D-02  0.226432D-03
     32  0.327416D-03 -0.425433D-03  0.257450D-03  0.668655D-03  0.986215D-04
     33  0.207636D-03 -0.138583D-03  0.000000D+00 -0.255421D-04 -0.131839D-03
     34  0.718264D-03  0.132054D-03  0.449820D-03 -0.116480D-03 -0.113006D-03
[...]
    Z6        5.04421   0.00000   0.00000   0.00039   0.00032   5.04453
    X7       -1.45365   0.00000   0.00000   0.00051   0.00040  -1.45325
    Y7        5.35599   0.00001   0.00000   0.00057   0.00055   5.35654
    Z7        6.34946   0.00000   0.00000   0.00022   0.00015   6.34961
    X8       -3.18896   0.00000   0.00000  -0.00029  -0.00025  -3.18921
    Y8        2.99205   0.00001   0.00000   0.00079   0.00070   2.99275
    Z8        4.75151   0.00000   0.00000   0.00077   0.00065   4.75216
    X9       -0.14848   0.00000   0.00000  -0.00024  -0.00022  -0.14870
    Y9        2.30667   0.00001   0.00000   0.00024   0.00027   2.30694
    Z9        5.96091   0.00000   0.00000   0.00041   0.00038   5.96130
   X10        2.65882   0.00000   0.00000  -0.00010  -0.00011   2.65871
   Y10        5.43246   0.00000   0.00000  -0.00042  -0.00028   5.43218
   Z10        2.71383   0.00000   0.00000  -0.00023  -0.00017   2.71366
   X11        3.40172   0.00000   0.00000  -0.00019  -0.00016   3.40156
   Y11        5.95147   0.00000   0.00000  -0.00099  -0.00081   5.95066
   Z11        0.85720   0.00000   0.00000  -0.00043  -0.00035   0.85685
   X12        2.86068   0.00000   0.00000   0.00028   0.00017   2.86085
   Y12        7.06902   0.00000   0.00000  -0.00018  -0.00002   7.06900
   Z12        3.96475   0.00000   0.00000  -0.00063  -0.00056   3.96419
   X13        3.85613   0.00000   0.00000  -0.00027  -0.00024   3.85589
   Y13        3.92403   0.00000   0.00000  -0.00046  -0.00026   3.92377
   Z13        3.46114   0.00000   0.00000  -0.00002   0.00008   3.46122
   X14       -1.44255   0.00000   0.00000   0.00082   0.00108  -1.44147
   Y14        2.41223   0.00000   0.00000   0.00052   0.00050   2.41273
   Z14       -2.10021   0.00000   0.00000  -0.00043  -0.00050  -2.10070
   X15       -0.22596   0.00000   0.00000   0.00038   0.00066  -0.22530
   Y15        0.89425  -0.00001   0.00000   0.00025   0.00028   0.89453
   Z15       -0.65664   0.00000   0.00000  -0.00034  -0.00037  -0.65701
   X16        0.06739   0.00000   0.00000  -0.00038  -0.00022   0.06717
   Y16        2.46018   0.00000   0.00000  -0.00014  -0.00010   2.46008
   Z16        1.24657   0.00001   0.00000   0.00018   0.00015   1.24672
         Item               Value     Threshold  Converged?
 Maximum Force            0.000008     0.000450     YES
 RMS     Force            0.000003     0.000300     YES
 Maximum Displacement     0.001083     0.001800     YES
 RMS     Displacement     0.000369     0.001200     YES
 Predicted change in Energy=-4.933455D-09
 Optimization completed.
    -- Stationary point found.
 GradGradGradGradGradGradGradGradGradGradGradGradGradGradGradGradGradGrad


 Test job not archived.
 1\1\GINC-NODE32\Freq\UB3LYP\CBSB7\C4H9O3(2)\NYEE\08-Jul-2014\0\\# freq
  nosymm b3lyp/cbsb7 iop(7/33=1)\\Title Card Required\\0,2\O,-2.182916,
 3.109593,0.560956\H,-2.601614,3.322714,-0.280472\C,-0.850991,3.051324,
 0.401729\H,-0.423325,3.621231,-0.415223\C,-0.047992,2.415942,1.351683\
 C,-0.686942,1.988022,2.669282\H,-0.769238,2.834267,3.35999\H,-1.687523
 ,1.583324,2.514393\H,-0.078571,1.220637,3.15438\C,1.406985,2.874733,1.
 436097\H,1.800114,3.149384,0.453611\H,1.513805,3.740765,2.098053\H,2.0
 40575,2.076505,1.831559\O,-0.763364,1.276498,-1.111381\O,-0.119572,0.4
 73215,-0.34748\H,0.035661,1.301873,0.659655\\Version=AM64L-G03RevD.01\
 HF=-383.454021\S2=0.759795\S2-1=0.\S2A=0.750056\RMSD=3.549e-09\RMSF=3.
 255e-06\ZeroPoint=0.1260535\Thermal=0.1347152\Dipole=-0.118907,1.16417
 02,0.274281\DipoleDeriv=-1.3345023,0.6653415,0.0139087,0.1365086,-0.46
 88657,-0.0051014,0.0389087,-0.0784894,-0.2635283,0.3572208,-0.0446571,
 0.0501322,-0.0683109,0.3950827,-0.0055162,0.0095518,-0.0025246,0.18808
 49,1.27765,-0.5877605,0.1819104,-0.256957,0.3113285,-0.1693965,0.09120
 46,0.1480032,0.618135,-0.0035735,-0.0258322,0.009083,-0.0167701,-0.020
 9112,0.0345204,0.0552409,0.0340501,-0.0343838,-0.1535149,0.1010212,-0.
 1401901,0.3892134,-0.2838249,0.2489797,-0.070436,0.0067017,-0.0437731,
 -0.006242,-0.0670348,-0.01626,-0.1100893,0.1824899,-0.0732959,0.000336
 1,0.0436383,0.1311559,0.0749366,-0.0114649,0.0334717,0.0151167,-0.0803
 983,-0.1177913,0.0041532,-0.0486822,-0.0964531,-0.0832486,-0.0731222,0
 .0183335,-0.0586963,0.0406774,-0.0036593,-0.0194514,-0.013538,0.056718
 3,-0.0009794,0.1016443,-0.066679,0.0808215,-0.0274416,0.0892673,-0.016
 8219,0.0358194,-0.0088578,0.170145,0.0065473,0.1039187,-0.0987593,0.17
 36381,0.0057063,0.0043393,0.0395371,0.0376824,0.0105283,-0.0184991,0.0
 396096,-0.0389035,0.0456974,0.0473535,0.0931995,0.0591194,-0.1083558,-
 0.0232642,0.0054269,-0.0288194,-0.0689432,-0.0721866,-0.1280692,-0.045
 6926,-0.1132699,-0.0223341,-0.0240507,0.0257482,-0.0538562,0.1097678,-
 0.0530518,0.070684,-0.0636789,0.0399785,0.0384816,-0.1265119,-0.387996
 2,-0.2585884,-0.1352444,0.217766,0.1029413,0.0411782,-0.5491551,-0.640
 0654,-0.2179725,0.3681273,0.2236205,0.190643,-0.9191327,-0.3958036,-0.
 0081195,0.1882133,0.006818,0.0833793,-0.0574897,-0.1095953,-0.0693969,
 0.5591329,0.2991808,-0.1139121,0.2105982,0.1406751\Polar=61.9391291,-5
 .4555454,64.2054112,5.854593,4.1706746,68.2046916\PG=C01 [X(C4H9O3)]\N
 Imag=1\\0.52175377,-0.06214332,0.07513398,0.13717326,-0.12823506,0.507
 98049,-0.11633685,0.03821277,-0.14192535,0.15029612,0.04804097,-0.0345
 5820,0.10056042,-0.05018259,0.03349743,-0.19280474,0.10427584,-0.41073
 122,0.18236056,-0.10182449,0.40315005,-0.33507397,0.01105065,0.0105600
 3,-0.03106644,0.00357726,0.00608969,0.65861597,-0.00808220,-0.05172289
 ,0.03149176,0.01519296,-0.00417559,-0.00111824,-0.02405230,0.33197201,
 0.05875212,0.02643282,-0.10811693,-0.04464780,0.00110399,0.00486700,0.
 00752653,-0.28028497,0.55147799,-0.02660237,-0.01765773,0.02635821,0.0
 0188346,-0.00032772,0.00269506,-0.09465409,-0.04814938,0.07453489,0.10
 967916,0.00555597,0.00935996,-0.00260288,-0.00052142,-0.00056625,-0.00
 118297,-0.05545192,-0.11979999,0.12872763,0.05578742,0.11604573,0.0033
 3290,0.00250421,0.00428140,0.00034577,-0.00198273,0.00121411,0.0761466
 1,0.12829277,-0.21576507,-0.08727221,-0.13311245,0.22064940,-0.0436300
 1,0.02236494,-0.03077727,-0.00481086,0.00038325,0.00250971,-0.16228122
 ,0.05642096,-0.08321799,0.00969109,-0.00744827,0.00980998,0.54154759,0
 .02141227,0.00430294,0.00184159,-0.00304527,0.00725344,-0.00093569,0.0
 2164688,-0.10832473,0.06535074,0.00632955,0.00187861,0.00917766,0.0111
 7871,0.26774249,-0.00275996,-0.00330592,0.01059531,0.00348334,0.002938
 61,0.00132109,-0.10931750,0.11211263,-0.23249352,-0.01281528,0.0130180
 1,-0.00871671,0.08440144,-0.12943906,0.55197820,-0.00111840,-0.0004573
 9,-0.00032436,0.00040939,0.00017834,0.00016052,0.01478927,0.00432958,-
 0.01401390,-0.00255043,0.00234040,-0.00274809,-0.10126029,-0.01489688,
 0.03261831,0.55959391,-0.00544620,-0.00290425,-0.00091462,-0.00106525,
 -0.00120167,0.00008070,0.00417763,-0.00944684,0.02591387,0.00253716,0.
 00283786,0.00457935,-0.01515782,-0.06576889,0.02293742,-0.00891828,0.5
 4303665,0.00281436,-0.00066648,0.00073382,0.00057860,0.00035508,0.0001
 8593,0.00674761,0.00704121,-0.02488099,-0.00134968,0.00069816,0.000741
 84,0.03521939,0.03660237,-0.15837316,0.04452844,0.01726330,0.48000316,
 0.00107047,0.00037851,0.00073281,-0.00005851,0.00018176,-0.00007073,-0
 .00148329,0.00018289,-0.00179334,-0.00011912,-0.00024855,-0.00019143,-
 0.00165431,0.00834946,0.01010455,-0.04823746,0.01464141,0.01046303,0.0
 4740366,-0.00017887,0.00053816,-0.00030271,0.00004153,-0.00016155,-0.0
 0009093,-0.00068420,0.00092405,0.00067807,-0.00010259,-0.00056338,-0.0
 0049553,-0.00058094,0.00902680,0.00735733,0.01345335,-0.20334503,-0.12
 307215,-0.01481223,0.21952967,-0.00264847,-0.00019986,0.00004461,-0.00
 008837,-0.00030295,0.00005791,0.00607415,-0.00246546,0.00229869,0.0000
 3113,0.00083170,0.00044895,0.00163228,-0.01681465,-0.02390957,0.009964
 10,-0.12480928,-0.14133344,-0.01442641,0.13482578,0.15835064,0.0005296
 7,0.00117114,-0.00142340,0.00022169,0.00012660,-0.00038238,-0.00150676
 ,0.00040129,-0.00069665,0.00001176,-0.00007947,0.00005629,-0.01145713,
 -0.00385685,-0.00061535,-0.27176813,-0.09168842,-0.03678037,0.00357551
 ,0.00134087,-0.00002238,0.29546234,0.00168008,-0.00058049,-0.00013527,
 0.00033309,0.00038475,-0.00017806,-0.00311825,0.00073514,0.00002933,0.
 00015559,0.00001300,-0.00009126,-0.00655299,-0.00500779,-0.00184186,-0
 .09053071,-0.08338672,-0.01457829,-0.02399777,-0.00942772,-0.00353085,
 0.10009959,0.08647400,-0.00150239,0.00064487,-0.00098561,-0.00021546,-
 0.00021447,-0.00001318,0.00157206,0.00052425,0.00104233,0.00003295,-0.
 00033412,-0.00003963,0.02767834,0.01011162,0.00598707,-0.03945904,-0.0
 1616376,-0.05361849,-0.01862381,-0.00614151,-0.00326044,0.03965730,0.0
 1555528,0.05857632,0.00046918,0.00013911,-0.00120593,0.00019373,0.0001
 7647,-0.00006906,-0.00278428,-0.00109018,0.00308478,0.00060960,0.00004
 062,0.00069597,0.00808303,-0.01126357,0.00733135,-0.13109815,0.1041649
 0,-0.06501542,-0.00161014,0.00053691,-0.00026043,-0.01505830,0.0218674
 9,-0.01176635,0.13953091,-0.00018024,0.00015847,-0.00056478,-0.0000146
 4,0.00009803,-0.00006271,-0.00168061,-0.00010902,0.00085451,0.00025546
 ,0.00013224,0.00031126,0.00394488,-0.00492793,0.00423174,0.10373615,-0
 .17621885,0.07929576,0.01476218,-0.01801550,0.01111579,-0.00651235,0.0
 0999771,-0.00618485,-0.11418868,0.18839803,0.00043488,-0.00009423,0.00
 045144,0.00014636,0.00010039,-0.00000644,0.00365630,0.00254776,-0.0034
 1652,-0.00106910,0.00029187,-0.00128047,-0.01636754,0.01830021,-0.0169
 8423,-0.06349581,0.07825169,-0.09361920,0.01214584,-0.01378844,0.00956
 608,-0.00247150,0.00275754,-0.00279315,0.06795779,-0.08850930,0.105909
 20,0.00382804,-0.00219337,-0.00290377,-0.00086756,0.00051982,-0.000239
 78,-0.03107485,-0.00257260,-0.00773186,0.00148519,0.00055776,0.0020789
 4,-0.17222195,-0.03284469,-0.00591772,-0.01427138,-0.00647856,0.002316
 32,0.00100794,0.00057423,-0.00121136,0.00024119,0.00004880,0.00095524,
 0.00125607,0.00065297,-0.00125729,0.46810806,-0.00007537,0.00233230,0.
 00621023,0.00194993,-0.00052816,0.00072288,0.02251208,0.00011050,0.000
 78329,0.00069093,-0.00188067,-0.00140436,-0.04127911,-0.06799229,0.004
 97417,-0.00859341,-0.00375708,-0.00040534,0.00124744,0.00073142,-0.000
 58930,-0.00049105,-0.00004067,0.00142086,-0.00059225,-0.00000315,-0.00
 021854,-0.02957728,0.54208626,-0.00429231,0.00346096,-0.00128743,-0.00
 033611,0.00041161,0.00065744,-0.01486864,-0.01143788,0.00383390,-0.001
 41199,-0.00084816,-0.00019170,-0.01372534,0.00813026,-0.08247957,0.028
 61178,0.00942040,0.00241901,0.00024163,0.00009779,0.00077790,0.0030219
 9,0.00184859,-0.00536519,0.00008143,-0.00031103,0.00110870,-0.00508797
 ,-0.01095573,0.56764832,0.00049236,0.00017362,-0.00054170,-0.00012448,
 -0.00015425,-0.00008487,0.00080792,-0.00092810,0.00251724,-0.00026530,
 0.00067061,-0.00082667,-0.01056474,-0.00688294,0.02860865,-0.00559533,
 -0.00168786,-0.00256500,0.00013321,0.00022527,-0.00020951,-0.00071898,
 -0.00057836,0.00169943,0.00022643,-0.00012869,-0.00008989,-0.07868901,
 -0.02252659,0.08053621,0.08665968,0.00020585,-0.00026428,-0.00032394,-
 0.00004223,0.00009050,-0.00001234,0.00074058,0.00050929,0.00046294,0.0
 0009052,0.00034062,-0.00006393,-0.00316699,-0.00460110,0.00884500,-0.0
 0187579,-0.00013321,-0.00085056,-0.00024401,0.00011986,0.00032742,-0.0
 0042543,0.00025745,0.00066866,0.00009862,0.00025250,-0.00041459,-0.022
 36362,-0.06221875,0.05755656,0.02662904,0.06358963,0.00041613,-0.00029
 167,0.00039807,0.00006148,-0.00000233,-0.00003203,-0.00179546,0.000631
 16,-0.00019618,0.00024513,-0.00026999,0.00043588,-0.00065916,-0.001461
 50,0.00320776,-0.00009396,0.00024026,0.00095337,-0.00026594,-0.0000183
 9,0.00020764,-0.00013858,-0.00000033,-0.00002554,-0.00013184,-0.000201
 95,0.00008161,0.08232744,0.05878649,-0.26032862,-0.08952277,-0.0648839
 7,0.28178049,-0.00264850,0.00155540,0.00059567,0.00023884,-0.00015539,
 0.00028190,0.00396454,-0.00422199,0.00259615,-0.00005929,-0.00028397,-
 0.00045956,-0.00923144,-0.02308778,-0.02130389,0.00189500,0.00020023,-
 0.00117720,0.00001695,0.00048492,0.00071826,0.00013205,0.00044982,-0.0
 0011648,-0.00011301,0.00001654,0.00025906,-0.04632068,-0.01579443,-0.0
 1158883,0.00019324,0.00951820,0.00585162,0.05393112,-0.00121429,0.0001
 6607,-0.00021802,0.00005300,-0.00022729,0.00006023,0.00198403,-0.00004
 038,0.00207187,-0.00008054,-0.00019887,-0.00013834,-0.00385220,-0.0043
 3183,-0.00492864,0.00051633,0.00013996,-0.00027839,-0.00041632,-0.0000
 0841,0.00047011,-0.00000128,0.00026519,0.00018634,0.00002020,-0.000230
 47,-0.00002128,-0.01419671,-0.20743119,-0.12200277,0.00142857,0.007668
 62,0.00543178,0.01874571,0.22343720,-0.00067862,0.00046481,0.00022509,
 0.00006200,-0.00010154,0.00000560,0.00062547,-0.00078441,0.00037188,-0
 .00002909,-0.00035780,-0.00029323,-0.00197841,-0.00078605,-0.00149673,
 -0.00009956,0.00077917,0.00086372,-0.00032387,-0.00042412,0.00040649,-
 0.00011072,0.00000904,0.00002021,0.00001214,0.00002493,0.00004653,-0.0
 1068909,-0.12117198,-0.14092110,-0.00232687,-0.02350417,-0.01685024,0.
 01424959,0.13520421,0.14941643,-0.00106911,0.00029715,-0.00191258,-0.0
 0052839,0.00002597,-0.00002882,-0.00500621,-0.00132015,0.00289655,-0.0
 0008592,0.00015127,-0.00006979,-0.01930785,0.01912758,-0.01419343,0.00
 114368,0.00126617,-0.00087489,-0.00003798,-0.00008345,0.00015007,0.000
 36726,-0.00027931,-0.00011183,0.00001150,-0.00063727,0.00081008,-0.129
 16058,0.10886591,-0.05228885,0.00713861,-0.00935372,0.00346357,0.00134
 999,-0.00147652,0.00166990,0.14478887,-0.00031222,0.00020729,-0.000722
 55,-0.00028558,0.00008961,-0.00011760,-0.00224426,0.00007693,0.0006220
 3,-0.00007831,0.00000957,-0.00026806,-0.00750754,0.00879881,-0.0049099
 3,0.00018313,0.00039440,-0.00044919,0.00003149,-0.00020170,0.00008419,
 0.00001550,0.00014555,-0.00021272,0.00036917,0.00016859,-0.00009254,0.
 11039610,-0.19052876,0.07031034,0.00343342,-0.00576106,0.00196612,0.01
 388082,-0.01927851,0.00990452,-0.11787125,0.20486804,-0.00019093,-0.00
 026546,-0.00018495,0.00001199,0.00009564,0.00008490,-0.00097027,0.0006
 9854,0.00071660,0.00014591,-0.00008693,0.00034738,-0.00120077,0.000356
 02,-0.00220027,0.00049817,-0.00058553,0.00049258,0.00000904,-0.0000244
 8,0.00005084,-0.00008202,-0.00007376,-0.00000742,-0.00014925,0.0000981
 9,0.00022677,-0.05295792,0.06926506,-0.08125221,-0.01725591,0.02175324
 ,-0.01011423,0.01210074,-0.01515074,0.00773964,0.06026408,-0.07635121,
 0.08410166,0.00923344,0.00662896,0.00383523,-0.00000539,-0.00096454,-0
 .00073865,-0.01663441,-0.00509719,0.01129677,0.00087041,-0.00328814,-0
 .00301695,-0.00174279,0.01433582,0.00471482,-0.00103518,-0.00139150,-0
 .00054312,0.00020463,0.00004079,-0.00017276,0.00009236,-0.00012436,-0.
 00004801,-0.00006666,0.00012707,-0.00005192,0.00039428,-0.00023047,-0.
 00085918,0.00016404,-0.00021257,0.00013027,0.00007605,-0.00017856,0.00
 022147,-0.00002300,0.00017382,-0.00012169,0.14533114,-0.01349503,0.001
 90376,0.00034062,0.00078501,-0.00128650,0.00132846,0.00575603,0.001470
 49,0.00047365,0.00058756,-0.00417715,-0.00423478,-0.00659940,0.0058003
 0,-0.01164657,0.00054375,-0.00273121,-0.00063136,0.00038668,0.00030392
 ,-0.00127887,-0.00004031,0.00041555,-0.00007335,0.00003636,-0.00008509
 ,0.00028750,0.00089645,-0.00277006,-0.00078894,-0.00019358,0.00035058,
 0.00011898,-0.00117229,-0.00045862,-0.00028995,0.00045144,-0.00013875,
 0.00014617,-0.15379937,0.22536164,0.01381414,-0.00798113,-0.00385030,-
 0.00030671,0.00046279,-0.00136987,-0.00179327,0.01993557,0.02188490,-0
 .00086561,-0.00540781,-0.00200903,-0.01428739,0.03143834,0.00088812,-0
 .00137183,-0.00431736,-0.00178155,0.00068072,0.00029718,-0.00103957,0.
 00018231,-0.00016935,0.00003020,-0.00025066,0.00007790,0.00020807,0.00
 187038,-0.00279664,-0.00402349,-0.00005132,-0.00027064,0.00032595,-0.0
 0119603,-0.00077220,0.00012697,0.00011513,0.00026836,-0.00011541,0.165
 31828,-0.16911974,0.23699775,-0.00979683,-0.00126977,0.00171903,0.0006
 4720,-0.00017796,0.00066749,0.00761010,0.01115660,-0.01672007,-0.00015
 845,0.00319703,0.00294547,0.00777564,-0.01835758,-0.01045532,0.0006495
 9,0.00009479,0.00031351,-0.00003177,0.00006995,-0.00046176,0.00009306,
 0.00016051,-0.00016795,0.00002050,-0.00003283,0.00012665,0.00054304,0.
 00166968,0.00157498,-0.00014410,0.00043209,-0.00009468,0.00021135,0.00
 011988,-0.00021345,0.00009603,0.00005254,0.00033735,-0.13156729,0.1623
 3418,-0.13241265,0.14184254,0.02488017,-0.00361329,-0.00266873,-0.0013
 7266,0.00163149,-0.00185846,-0.02303398,-0.01298368,-0.01421577,-0.000
 40101,-0.00248817,-0.00206518,0.01981985,-0.05985279,-0.01030424,-0.00
 153532,0.00294145,0.00264354,-0.00005818,0.00020054,0.00021284,0.00073
 712,-0.00047359,-0.00035461,-0.00011791,0.00084284,-0.00175806,0.00158
 848,0.00509361,0.00149109,-0.00014503,-0.00083236,0.00002250,0.0000823
 5,0.00049607,0.00003175,-0.00226189,0.00037882,-0.00075902,0.14373714,
 -0.21972018,0.14838040,-0.16619086,0.29313223,-0.00587369,0.00472788,0
 .00569824,0.00096305,0.00000185,0.00063477,-0.01930076,-0.00324423,-0.
 04395603,0.00028920,0.00338603,0.00215244,0.02173890,-0.09099459,-0.02
 373999,-0.00071006,0.00425240,0.00526203,-0.00034943,0.00006637,-0.000
 17644,0.00037198,0.00034580,-0.00035767,0.00009992,0.00084916,-0.00113
 792,0.00131482,0.00437670,0.00351959,-0.00055216,-0.00025781,0.0000876
 5,-0.00044317,0.00054543,-0.00059422,-0.00149422,0.00020146,-0.0002319
 0,-0.14710428,0.18979657,-0.18256499,0.13506271,-0.14444877,0.20042640
 ,-0.00110090,0.00174931,0.00004011,-0.00009196,-0.00124799,-0.00034591
 ,-0.00422227,0.00782984,0.00561659,0.00026429,-0.00097937,-0.00082722,
 -0.02893476,0.01185529,0.00611598,-0.00154610,0.00475159,0.00532442,-0
 .00017979,-0.00032555,0.00093146,-0.00021758,0.00038680,0.00041602,0.0
 0032959,-0.00011992,-0.00073391,-0.00425780,-0.01777601,-0.00960879,0.
 00028643,-0.00003054,0.00020675,-0.00363621,-0.00145130,-0.00039088,0.
 00032309,-0.00023683,-0.00043853,-0.00529163,0.00352251,-0.02944550,-0
 .01779061,0.00427175,0.01598718,0.06606619,-0.01064755,-0.00045953,-0.
 00375604,-0.00003866,-0.00034001,0.00091338,0.03882039,-0.02919529,0.0
 4099603,0.00036310,-0.00094310,-0.00100865,-0.02196734,0.01600393,-0.0
 1003869,0.00152676,-0.00045656,-0.00296766,-0.00038474,0.00034887,0.00
 212339,-0.00079695,0.00022862,0.00056750,-0.00019727,-0.00045840,0.002
 36002,-0.00500779,-0.01320331,-0.00638308,0.00066486,0.00063171,-0.000
 06716,-0.00021815,0.00003248,0.00100160,0.00309808,0.00077118,0.000884
 27,0.00024310,-0.00423866,-0.01002566,0.00674176,-0.00475298,0.0303957
 4,-0.01219959,0.03603106,-0.00598669,-0.00147158,-0.00525204,-0.000493
 36,-0.00160188,-0.00002607,0.02904746,-0.00394047,0.04233196,0.0004804
 6,-0.00275028,-0.00197557,-0.02077620,0.05912273,-0.02358380,0.0059353
 1,-0.01692800,-0.01804860,0.00166733,0.00103575,-0.00249030,-0.0005665
 1,0.00005346,0.00081021,-0.00041443,-0.00102461,0.00163953,-0.00286639
 ,-0.00899779,-0.00411554,0.00066515,0.00096816,0.00006844,-0.00036785,
 -0.00045959,0.00093294,0.00160505,-0.00023322,0.00034601,-0.03286027,-
 0.00442840,-0.06370774,0.01777868,0.02565072,0.03497806,0.00715224,-0.
 04499498,0.03809251\\0.00000112,0.00000003,0.00000175,-0.00000059,0.00
 000242,-0.00000020,0.00000006,0.00000329,0.00000551,-0.00000019,0.0000
 0355,0.00000313,0.00000006,-0.00000131,-0.00000005,-0.00000069,-0.0000
 0559,-0.00000129,-0.00000211,-0.00000722,0.00000087,-0.00000021,-0.000
 00571,-0.00000344,-0.00000048,-0.00000595,-0.00000351,-0.00000080,0.00
 000112,0.00000276,0.00000002,0.00000315,0.00000392,-0.00000195,-0.0000
 0115,0.00000480,-0.00000027,-0.00000013,0.00000121,0.00000340,0.000004
 16,-0.00000418,0.00000120,0.00000830,-0.00000476,0.00000142,0.00000102
 ,-0.00000653\\\@


 THE POLHOLDE ROLLS WITHOUT SLIPPING ON THE HERPOLHOLDE LYING IN
 THE INVARIABLE PLANE.
 H.GOLDSTEIN, "CLASSICAL MECHANICS", PG 161
 Job cpu time:  0 days  1 hours 12 minutes 53.7 seconds.
 File lengths (MBytes):  RWF=    125 Int=      0 D2E=      0 Chk=      8 Scr=      1
 Normal termination of Gaussian 03 at Tue Jul  8 23:31:57 2014.
