 Entering Gaussian System, Link 0=g03
 Input=p2freq.gjf
 Output=p2freq.log
 Initial command:
 /opt/g03/l1.exe /scratch/nyee/Gau-21797.inp -scrdir=/scratch/nyee/
 Entering Link 1 = /opt/g03/l1.exe PID=     21799.
  
 Copyright (c) 1988,1990,1992,1993,1995,1998,2003,2004, Gaussian, Inc.
                  All Rights Reserved.
  
 This is the Gaussian(R) 03 program.  It is based on the
 the Gaussian(R) 98 system (copyright 1998, Gaussian, Inc.),
 the Gaussian(R) 94 system (copyright 1995, Gaussian, Inc.),
 the Gaussian 92(TM) system (copyright 1992, Gaussian, Inc.),
 the Gaussian 90(TM) system (copyright 1990, Gaussian, Inc.),
 the Gaussian 88(TM) system (copyright 1988, Gaussian, Inc.),
 the Gaussian 86(TM) system (copyright 1986, Carnegie Mellon
 University), and the Gaussian 82(TM) system (copyright 1983,
 Carnegie Mellon University). Gaussian is a federally registered
 trademark of Gaussian, Inc.
  
 This software contains proprietary and confidential information,
 including trade secrets, belonging to Gaussian, Inc.
  
 This software is provided under written license and may be
 used, copied, transmitted, or stored only in accord with that
 written license.
  
 The following legend is applicable only to US Government
 contracts under FAR:
  
                    RESTRICTED RIGHTS LEGEND
  
 Use, reproduction and disclosure by the US Government is
 subject to restrictions as set forth in subparagraphs (a)
 and (c) of the Commercial Computer Software - Restricted
 Rights clause in FAR 52.227-19.
  
 Gaussian, Inc.
 340 Quinnipiac St., Bldg. 40, Wallingford CT 06492
  
  
 ---------------------------------------------------------------
 Warning -- This program may not be used in any manner that
 competes with the business of Gaussian, Inc. or will provide
 assistance to any competitor of Gaussian, Inc.  The licensee
 of this program is prohibited from giving any competitor of
 Gaussian, Inc. access to this program.  By using this program,
 the user acknowledges that Gaussian, Inc. is engaged in the
 business of creating and licensing software in the field of
 computational chemistry and represents and warrants to the
 licensee that it is not a competitor of Gaussian, Inc. and that
 it will not use this program in any manner prohibited above.
 ---------------------------------------------------------------
  

 Cite this work as:
 Gaussian 03, Revision D.01,
 M. J. Frisch, G. W. Trucks, H. B. Schlegel, G. E. Scuseria, 
 M. A. Robb, J. R. Cheeseman, J. A. Montgomery, Jr., T. Vreven, 
 K. N. Kudin, J. C. Burant, J. M. Millam, S. S. Iyengar, J. Tomasi, 
 V. Barone, B. Mennucci, M. Cossi, G. Scalmani, N. Rega, 
 G. A. Petersson, H. Nakatsuji, M. Hada, M. Ehara, K. Toyota, 
 R. Fukuda, J. Hasegawa, M. Ishida, T. Nakajima, Y. Honda, O. Kitao, 
 H. Nakai, M. Klene, X. Li, J. E. Knox, H. P. Hratchian, J. B. Cross, 
 V. Bakken, C. Adamo, J. Jaramillo, R. Gomperts, R. E. Stratmann, 
 O. Yazyev, A. J. Austin, R. Cammi, C. Pomelli, J. W. Ochterski, 
 P. Y. Ayala, K. Morokuma, G. A. Voth, P. Salvador, J. J. Dannenberg, 
 V. G. Zakrzewski, S. Dapprich, A. D. Daniels, M. C. Strain, 
 O. Farkas, D. K. Malick, A. D. Rabuck, K. Raghavachari, 
 J. B. Foresman, J. V. Ortiz, Q. Cui, A. G. Baboul, S. Clifford, 
 J. Cioslowski, B. B. Stefanov, G. Liu, A. Liashenko, P. Piskorz, 
 I. Komaromi, R. L. Martin, D. J. Fox, T. Keith, M. A. Al-Laham, 
 C. Y. Peng, A. Nanayakkara, M. Challacombe, P. M. W. Gill, 
 B. Johnson, W. Chen, M. W. Wong, C. Gonzalez, and J. A. Pople, 
 Gaussian, Inc., Wallingford CT, 2004.
 
 ******************************************
 Gaussian 03:  AM64L-G03RevD.01 13-Oct-2005
                10-Jun-2013 
 ******************************************
 %chk=p2freqH.chk
 %mem=1000mb
 %nproc=8
 Will use up to    8 processors via shared memory.
 -------------------------------------
 # freq nosymm b3lyp/cbsb7 iop(7/33=1)
 -------------------------------------
 1/10=4,30=1,38=1/1,3;
 2/15=1,17=6,18=5,40=1/2;
 3/5=4,6=6,7=700,11=2,16=1,25=1,30=1,74=-5/1,2,3;
 4//1;
 5/5=2,38=5/2;
 8/6=4,10=90,11=11/1;
 11/6=1,8=1,9=11,15=111,16=1,31=1/1,2,10;
 10/6=1,31=1/2;
 6/7=2,8=2,9=2,10=2,18=1,28=1/1;
 7/8=1,10=1,25=1,30=1,33=1/1,2,3,16;
 1/10=4,30=1/3;
 99//99;
 -------------------
 Title Card Required
 -------------------
 Symbolic Z-matrix:
 Charge =  0 Multiplicity = 1
 C                     0.18962  -0.03329   0.04969 
 H                     1.28097  -0.04539   0.12137 
 H                    -0.13603   1.01775   0.09332 
 C                    -0.25123  -0.61502  -1.28714 
 C                    -0.48452  -2.05966  -1.39164 
 H                    -0.29487  -2.69141  -0.52972 
 H                    -0.42336  -2.54195  -2.36379 
 C                     0.07579   0.20935  -2.50762 
 H                    -0.31793  -0.26371  -3.40846 
 H                    -0.36474   1.20727  -2.42534 
 H                     1.15838   0.32431  -2.61943 
 O                    -0.31095  -0.77001   1.14717 
 H                    -1.24733  -0.91645   0.95692 
 O                    -1.59289  -1.14649  -1.23792 
 

 GradGradGradGradGradGradGradGradGradGradGradGradGradGradGradGradGradGrad
 Berny optimization.
 Initialization pass.
 Trust Radius=3.00D-01 FncErr=1.00D-07 GrdErr=1.00D-07
 Number of steps in this run=   2 maximum allowed number of steps=   2.
 GradGradGradGradGradGradGradGradGradGradGradGradGradGradGradGradGradGrad

                          Input orientation:                          
 ---------------------------------------------------------------------
 Center     Atomic     Atomic              Coordinates (Angstroms)
 Number     Number      Type              X           Y           Z
 ---------------------------------------------------------------------
    1          6             0        0.189620   -0.033290    0.049686
    2          1             0        1.280973   -0.045386    0.121374
    3          1             0       -0.136029    1.017746    0.093324
    4          6             0       -0.251234   -0.615018   -1.287141
    5          6             0       -0.484521   -2.059665   -1.391639
    6          1             0       -0.294868   -2.691413   -0.529723
    7          1             0       -0.423363   -2.541953   -2.363786
    8          6             0        0.075788    0.209345   -2.507620
    9          1             0       -0.317930   -0.263712   -3.408460
   10          1             0       -0.364738    1.207273   -2.425337
   11          1             0        1.158379    0.324307   -2.619426
   12          8             0       -0.310945   -0.770014    1.147169
   13          1             0       -1.247331   -0.916450    0.956915
   14          8             0       -1.592891   -1.146491   -1.237918
 ---------------------------------------------------------------------
                    Distance matrix (angstroms):
                    1          2          3          4          5
     1  C    0.000000
     2  H    1.093772   0.000000
     3  H    1.101194   1.771703   0.000000
     4  C    1.523111   2.157789   2.141232   0.000000
     5  C    2.576447   3.076280   3.434679   1.467088   0.000000
     6  H    2.763342   3.147803   3.764476   2.210656   1.085345
     7  H    3.534683   3.913263   4.334906   2.214017   1.086928
     8  C    2.571312   2.903269   2.731902   1.508671   2.589936
     9  H    3.502781   3.881222   3.733325   2.151246   2.705692
    10  H    2.823482   3.280740   2.536115   2.151538   3.428668
    11  H    2.861910   2.768336   3.084698   2.155069   3.144822
    12  O    1.413434   2.027694   2.082612   2.439970   2.852871
    13  H    1.915167   2.801643   2.392048   2.473633   2.721126
    14  O    2.464647   3.364402   2.928920   1.443929   1.444299
                    6          7          8          9         10
     6  H    0.000000
     7  H    1.844624   0.000000
     8  C    3.530419   2.799907   0.000000
     9  H    3.765819   2.508554   1.091013   0.000000
    10  H    4.335665   3.750189   1.093935   1.769892   0.000000
    11  H    3.946309   3.283703   1.094404   1.774212   1.771210
    12  O    2.550294   3.934363   3.803444   4.583683   4.083547
    13  H    2.503552   3.787907   3.875701   4.510693   4.090085
    14  O    2.138501   2.140722   2.496983   2.667598   2.908355
                   11         12         13         14
    11  H    0.000000
    12  O    4.188519   0.000000
    13  H    4.485213   0.966674   0.000000
    14  O    3.411935   2.733818   2.233746   0.000000
 Symmetry turned off by external request.
 Stoichiometry    C4H8O2
 Framework group  C1[X(C4H8O2)]
 Deg. of freedom    36
 Full point group                 C1
 Rotational constants (GHZ):      5.4694235      3.2477595      2.4490354
 Standard basis: CBSB7 (5D, 7F)
 Integral buffers will be    131072 words long.
 Raffenetti 2 integral format.
 Two-electron integral symmetry is turned off.
   156 basis functions,   256 primitive gaussians,   162 cartesian basis functions
    24 alpha electrons       24 beta electrons
       nuclear repulsion energy       254.4920715297 Hartrees.
 NAtoms=   14 NActive=   14 NUniq=   14 SFac= 7.50D-01 NAtFMM=   80 NAOKFM=F Big=F
 One-electron integrals computed using PRISM.
 NBasis=   156 RedAO= T  NBF=   156
 NBsUse=   156 1.00D-06 NBFU=   156
 Harris functional with IExCor=  402 diagonalized for initial guess.
 ExpMin= 1.03D-01 ExpMax= 8.59D+03 ExpMxC= 1.30D+03 IAcc=1 IRadAn=         1 AccDes= 1.00D-06
 HarFok:  IExCor= 402 AccDes= 1.00D-06 IRadAn=         1 IDoV=1
 ScaDFX=  1.000000  1.000000  1.000000  1.000000
 Requested convergence on RMS density matrix=1.00D-08 within 128 cycles.
 Requested convergence on MAX density matrix=1.00D-06.
 Requested convergence on             energy=1.00D-06.
 No special actions if energy rises.
 Keep R1 integrals in memory in canonical form, NReq=    90380467.
 Integral accuracy reduced to 1.0D-05 until final iterations.
 Initial convergence to 1.0D-05 achieved.  Increase integral accuracy.
 SCF Done:  E(RB+HF-LYP) =  -307.729927433     A.U. after   13 cycles
             Convg  =    0.7700D-08             -V/T =  2.0036
             S**2   =   0.0000
 Range of M.O.s used for correlation:     1   156
 NBasis=   156 NAE=    24 NBE=    24 NFC=     0 NFV=     0
 NROrb=    156 NOA=    24 NOB=    24 NVA=   132 NVB=   132
 Symmetrizing basis deriv contribution to polar:
 IMax=3 JMax=2 DiffMx= 0.00D+00
 G2DrvN: will do   15 centers at a time, making    1 passes doing MaxLOS=2.
 FoFDir/FoFCou used for L=0 through L=2.
 DoAtom=TTTTTTTTTTTTTT
          Differentiating once with respect to electric field.
                with respect to dipole field.
          Differentiating once with respect to nuclear coordinates.
          Store integrals in memory, NReq=    87990479.
          There are  45 degrees of freedom in the 1st order CPHF.
    42 vectors were produced by pass  0.
 AX will form  42 AO Fock derivatives at one time.
    42 vectors were produced by pass  1.
    42 vectors were produced by pass  2.
    42 vectors were produced by pass  3.
    42 vectors were produced by pass  4.
    27 vectors were produced by pass  5.
     3 vectors were produced by pass  6.
     2 vectors were produced by pass  7.
 Inv2:  IOpt= 1 Iter= 1 AM= 2.10D-15 Conv= 1.00D-12.
 Inverted reduced A of dimension  242 with in-core refinement.
 Isotropic polarizability for W=    0.000000       50.40 Bohr**3.
 End of Minotr Frequency-dependent properties file   721 does not exist.

 **********************************************************************

            Population analysis using the SCF density.

 **********************************************************************

 Alpha  occ. eigenvalues --  -19.13495 -19.11379 -10.23774 -10.22249 -10.22226
 Alpha  occ. eigenvalues --  -10.17708  -1.08062  -1.02057  -0.77347  -0.69314
 Alpha  occ. eigenvalues --   -0.67010  -0.57990  -0.52640  -0.49984  -0.46176
 Alpha  occ. eigenvalues --   -0.45199  -0.42292  -0.41456  -0.39964  -0.37891
 Alpha  occ. eigenvalues --   -0.33765  -0.31277  -0.28830  -0.27161
 Alpha virt. eigenvalues --    0.04105   0.05775   0.06987   0.07170   0.09370
 Alpha virt. eigenvalues --    0.10282   0.11332   0.12479   0.13692   0.15596
 Alpha virt. eigenvalues --    0.18166   0.19988   0.24738   0.26907   0.30148
 Alpha virt. eigenvalues --    0.31265   0.34371   0.38682   0.39438   0.41853
 Alpha virt. eigenvalues --    0.42615   0.46148   0.49118   0.51311   0.52826
 Alpha virt. eigenvalues --    0.53753   0.55072   0.56748   0.57407   0.58202
 Alpha virt. eigenvalues --    0.60602   0.61546   0.63993   0.64993   0.67721
 Alpha virt. eigenvalues --    0.73615   0.79178   0.84253   0.86620   0.87059
 Alpha virt. eigenvalues --    0.92066   0.99118   1.01383   1.05917   1.08490
 Alpha virt. eigenvalues --    1.15183   1.18997   1.25043   1.31988   1.34387
 Alpha virt. eigenvalues --    1.36379   1.38592   1.40407   1.44505   1.44843
 Alpha virt. eigenvalues --    1.45625   1.49637   1.51487   1.53095   1.55001
 Alpha virt. eigenvalues --    1.57415   1.58623   1.62120   1.64366   1.66138
 Alpha virt. eigenvalues --    1.67057   1.68682   1.72905   1.75658   1.82791
 Alpha virt. eigenvalues --    1.84266   1.88105   1.94537   1.95834   1.98848
 Alpha virt. eigenvalues --    2.02226   2.04162   2.06971   2.13027   2.16662
 Alpha virt. eigenvalues --    2.21199   2.30719   2.34119   2.34922   2.38979
 Alpha virt. eigenvalues --    2.44492   2.46420   2.47617   2.49834   2.51439
 Alpha virt. eigenvalues --    2.53089   2.54851   2.60343   2.61858   2.65512
 Alpha virt. eigenvalues --    2.72152   2.74832   2.78846   2.81574   2.90833
 Alpha virt. eigenvalues --    2.92058   3.05856   3.06701   3.09457   3.13863
 Alpha virt. eigenvalues --    3.17126   3.21357   3.24930   3.34333   3.44929
 Alpha virt. eigenvalues --    3.64757   3.67730   3.72195   3.79553   3.80940
 Alpha virt. eigenvalues --    3.85324   3.92677   3.94927   4.22340   4.47729
 Alpha virt. eigenvalues --    4.88786   4.97144   5.27472   5.40697   5.45286
 Alpha virt. eigenvalues --    5.63533  23.71613  23.78000  23.87050  23.92829
 Alpha virt. eigenvalues --   49.87410  49.88952
          Condensed to atoms (all electrons):
              1          2          3          4          5          6
     1  C    4.668938   0.393050   0.399932   0.332802  -0.056289  -0.000124
     2  H    0.393050   0.601550  -0.045875  -0.036215  -0.010586  -0.002178
     3  H    0.399932  -0.045875   0.635373  -0.059994   0.013736   0.001707
     4  C    0.332802  -0.036215  -0.059994   5.390372   0.234284  -0.031487
     5  C   -0.056289  -0.010586   0.013736   0.234284   4.913010   0.398722
     6  H   -0.000124  -0.002178   0.001707  -0.031487   0.398722   0.564273
     7  H    0.000530   0.000488  -0.000210  -0.024153   0.395831  -0.043431
     8  C   -0.039427   0.000850  -0.003869   0.333215  -0.046482   0.002747
     9  H    0.005867  -0.000505  -0.000337  -0.024523  -0.004866   0.000404
    10  H   -0.006742  -0.000528   0.007320  -0.038147   0.009424  -0.000255
    11  H    0.000837   0.001818  -0.001033  -0.039820  -0.005255   0.000551
    12  O    0.302014  -0.028607  -0.033339  -0.040033   0.004565   0.021446
    13  H   -0.054511   0.010990  -0.006033  -0.008815  -0.004115  -0.007493
    14  O   -0.044326   0.004483  -0.003296   0.148951   0.173930  -0.026823
              7          8          9         10         11         12
     1  C    0.000530  -0.039427   0.005867  -0.006742   0.000837   0.302014
     2  H    0.000488   0.000850  -0.000505  -0.000528   0.001818  -0.028607
     3  H   -0.000210  -0.003869  -0.000337   0.007320  -0.001033  -0.033339
     4  C   -0.024153   0.333215  -0.024523  -0.038147  -0.039820  -0.040033
     5  C    0.395831  -0.046482  -0.004866   0.009424  -0.005255   0.004565
     6  H   -0.043431   0.002747   0.000404  -0.000255   0.000551   0.021446
     7  H    0.582015   0.001272  -0.001271   0.000270  -0.000786   0.000352
     8  C    0.001272   4.806847   0.396545   0.402727   0.395107   0.004040
     9  H   -0.001271   0.396545   0.560585  -0.027201  -0.022935  -0.000193
    10  H    0.000270   0.402727  -0.027201   0.572134  -0.030933  -0.000049
    11  H   -0.000786   0.395107  -0.022935  -0.030933   0.585112  -0.000063
    12  O    0.000352   0.004040  -0.000193  -0.000049  -0.000063   7.865084
    13  H    0.000833   0.000399  -0.000083   0.000139  -0.000138   0.313589
    14  O   -0.023763  -0.028306   0.004389  -0.002998   0.004644  -0.009536
             13         14
     1  C   -0.054511  -0.044326
     2  H    0.010990   0.004483
     3  H   -0.006033  -0.003296
     4  C   -0.008815   0.148951
     5  C   -0.004115   0.173930
     6  H   -0.007493  -0.026823
     7  H    0.000833  -0.023763
     8  C    0.000399  -0.028306
     9  H   -0.000083   0.004389
    10  H    0.000139  -0.002998
    11  H   -0.000138   0.004644
    12  O    0.313589  -0.009536
    13  H    0.483906   0.031434
    14  O    0.031434   8.114285
 Mulliken atomic charges:
              1
     1  C    0.097448
     2  H    0.111265
     3  H    0.095917
     4  C   -0.136438
     5  C   -0.015909
     6  H    0.121941
     7  H    0.112023
     8  C   -0.225663
     9  H    0.114124
    10  H    0.114839
    11  H    0.112893
    12  O   -0.399270
    13  H    0.239897
    14  O   -0.343067
 Sum of Mulliken charges=   0.00000
 Atomic charges with hydrogens summed into heavy atoms:
              1
     1  C    0.304630
     2  H    0.000000
     3  H    0.000000
     4  C   -0.136438
     5  C    0.218056
     6  H    0.000000
     7  H    0.000000
     8  C    0.116192
     9  H    0.000000
    10  H    0.000000
    11  H    0.000000
    12  O   -0.159373
    13  H    0.000000
    14  O   -0.343067
 Sum of Mulliken charges=   0.00000
 APT atomic charges:
              1
     1  C    0.450900
     2  H   -0.026972
     3  H   -0.079880
     4  C    0.333720
     5  C    0.226345
     6  H    0.012284
     7  H   -0.011476
     8  C    0.024024
     9  H   -0.001868
    10  H   -0.012157
    11  H   -0.006435
    12  O   -0.596250
    13  H    0.285232
    14  O   -0.597468
 Sum of APT charges=   0.00000
 APT Atomic charges with hydrogens summed into heavy atoms:
              1
     1  C    0.344048
     2  H    0.000000
     3  H    0.000000
     4  C    0.333720
     5  C    0.227154
     6  H    0.000000
     7  H    0.000000
     8  C    0.003565
     9  H    0.000000
    10  H    0.000000
    11  H    0.000000
    12  O   -0.311019
    13  H    0.000000
    14  O   -0.597468
 Sum of APT charges=   0.00000
 Electronic spatial extent (au):  <R**2>=   803.2003
 Charge=     0.0000 electrons
 Dipole moment (field-independent basis, Debye):
    X=     1.1209    Y=     0.2693    Z=    -1.6493  Tot=     2.0122
 Quadrupole moment (field-independent basis, Debye-Ang):
   XX=   -38.8939   YY=   -34.5241   ZZ=   -37.1789
   XY=    -0.7519   XZ=    -3.2895   YZ=     1.5127
 Traceless Quadrupole moment (field-independent basis, Debye-Ang):
   XX=    -2.0283   YY=     2.3416   ZZ=    -0.3132
   XY=    -0.7519   XZ=    -3.2895   YZ=     1.5127
 Octapole moment (field-independent basis, Debye-Ang**2):
  XXX=    45.0549  YYY=    68.7961  ZZZ=    91.7263  XYY=    11.5057
  XXY=    28.8800  XXZ=    42.9753  XZZ=    13.8260  YZZ=    23.6410
  YYZ=    29.7343  XYZ=     3.2575
 Hexadecapole moment (field-independent basis, Debye-Ang**3):
 XXXX=  -160.3777 YYYY=  -291.4477 ZZZZ=  -555.0400 XXXY=   -63.6208
 XXXZ=   -53.4466 YYYX=   -54.8243 YYYZ=   -52.2503 ZZZX=   -36.3487
 ZZZY=   -48.3791 XXYY=   -81.7548 XXZZ=  -125.9653 YYZZ=  -138.8564
 XXYZ=   -31.1353 YYXZ=   -13.1181 ZZXY=   -18.4468
 N-N= 2.544920715297D+02 E-N=-1.229307284290D+03  KE= 3.066404010608D+02
  Exact polarizability:  44.251   3.692  55.238  -0.824  -0.410  51.698
 Approx polarizability:  68.989   3.091  75.247  -0.768  -0.208  65.775
 Use density number 0.
 Entering OneElI...
 Calculate overlap and kinetic energy integrals
    NBasis = 162  MinDer = 2  MaxDer = 2
 Requested accuracy = 0.1000D-12
 PrsmSu:  NPrtUS=   1 ThrOK=F
 PRISM was handed   130831503 working-precision words and  1953 shell-pairs
 Entering OneElI...
 Calculate potential energy integrals
    NBasis = 162  MinDer = 2  MaxDer = 2
 Requested accuracy = 0.1000D-12
 PrsmSu:  NPrtUS=   8 ThrOK=T
 PRISM was handed    16317826 working-precision words and  1875 shell-pairs
 PRISM was handed    16317826 working-precision words and  1875 shell-pairs
 PRISM was handed    16317826 working-precision words and  1875 shell-pairs
 PRISM was handed    16317826 working-precision words and  1875 shell-pairs
 PRISM was handed    16317826 working-precision words and  1875 shell-pairs
 PRISM was handed    16317826 working-precision words and  1875 shell-pairs
 PRISM was handed    16317826 working-precision words and  1875 shell-pairs
 PRISM was handed    16317826 working-precision words and  1875 shell-pairs
 Polarizability after L701:
                1             2             3
      1  0.442514D+02
      2  0.369226D+01  0.552375D+02
      3 -0.824488D+00 -0.410449D+00  0.516976D+02
 Dipole Derivatives after L701:
               1            2            3            4            5
      1 0.360219D+00 0.647891D-02-0.132596D+00-0.145535D+00 0.173749D-01
      2 0.560728D-01 0.466957D+00-0.135398D+00-0.336705D-01 0.407366D-01
      3-0.106083D+00-0.104909D+00 0.525525D+00-0.220921D-02 0.165519D-01
               6            7            8            9           10
      1-0.346081D-02 0.842647D-02 0.174810D-01 0.142581D-02 0.357118D+00
      2-0.112347D-01 0.807690D-01-0.228316D+00 0.137259D-01 0.160058D+00
      3 0.238815D-01 0.104118D-01 0.125686D-01-0.197515D-01-0.444399D-01
              11           12           13           14           15
      1 0.622534D-01 0.168124D-02 0.235000D+00-0.681625D-01 0.582009D-03
      2 0.271433D+00-0.502624D-01-0.179300D+00 0.192336D+00 0.244400D-01
      3-0.936990D-01 0.372611D+00-0.403910D-01 0.428589D-01 0.251700D+00
              16           17           18           19           20
      1 0.679518D-01 0.369521D-01-0.160620D-01 0.719731D-01 0.289243D-01
      2 0.248069D-01-0.125656D-01 0.996869D-01 0.300935D-01-0.663516D-02
      3 0.143627D-01 0.467139D-01-0.185331D-01-0.798781D-02-0.545556D-01
              21           22           23           24           25
      1 0.128356D-01 0.110937D+00-0.534222D-01 0.320093D-01 0.502920D-01
      2-0.100267D+00-0.236024D-01 0.525027D-01 0.384266D-01-0.332332D-01
      3-0.997662D-01-0.219251D-01 0.312610D-01-0.913674D-01-0.686764D-01
              26           27           28           29           30
      1-0.440032D-01-0.300821D-01 0.359985D-01 0.482498D-01 0.424018D-01
      2 0.187715D-01-0.336772D-01 0.856458D-01-0.121637D+00-0.218776D-01
      3-0.776968D-01-0.746663D-01 0.111246D-01 0.160713D-01 0.491687D-01
              31           32           33           34           35
      1-0.131726D+00-0.101950D-01-0.291002D-02-0.362345D+00-0.765323D-01
      2-0.394868D-01 0.514532D-01 0.290816D-01-0.105822D+00-0.564010D+00
      3 0.337115D-01 0.215751D-01 0.609683D-01 0.195652D+00 0.751900D-01
              36           37           38           39           40
      1 0.165862D+00 0.195643D+00 0.727477D-02-0.104234D+00-0.853951D+00
      2 0.102156D+00 0.924647D-03 0.271220D+00 0.529380D-01-0.232563D-01
      3-0.862395D+00-0.432865D-01 0.785717D-01 0.388832D+00 0.697364D-01
              41           42
      1 0.273261D-01 0.325468D-01
      2-0.432247D+00-0.773862D-02
      3-0.105020D-01-0.506206D+00
 Hessian after L701:
                1             2             3             4             5
      1  0.179138D+02
      2 -0.200996D+01  0.166060D+02
      3  0.527809D+00  0.128651D+01  0.112238D+02
      4 -0.129083D+01  0.352444D-01  0.319831D-01  0.800704D+00
      5  0.161011D+00 -0.429291D+01 -0.424478D-02 -0.299481D+00  0.437817D+01
      6  0.108311D+00 -0.355578D-02 -0.430445D+01 -0.136377D+00 -0.127324D+00
      7 -0.411177D+01 -0.665767D+00 -0.133031D-01 -0.103869D+00  0.198272D+00
      8 -0.786098D+00 -0.132648D+01 -0.201665D-01  0.224538D+00  0.180567D-01
      9 -0.512419D-01  0.122785D+00 -0.431520D+01  0.361394D-02  0.734052D-03
     10 -0.567439D+01  0.649535D+00  0.155931D+01  0.327257D-01 -0.169329D-02
     11  0.647183D+00 -0.562269D+01  0.184205D+01  0.389725D-01  0.111568D+00
     12  0.167160D+01  0.192705D+01 -0.140861D+01 -0.215990D-01  0.255713D-01
     13  0.559489D-01  0.139416D+00  0.117525D+00 -0.177325D-01 -0.357454D-01
     14  0.224120D-01  0.726462D-01  0.151195D+00 -0.393531D-01 -0.103291D-01
     15  0.434358D-01  0.154820D+00  0.124361D+00 -0.391968D-01 -0.361329D-01
     16 -0.243713D-01  0.211704D-01  0.205806D-02 -0.229168D-02 -0.654362D-02
     17  0.250816D-01  0.627697D-01  0.199966D-01  0.352539D-02 -0.613656D-02
     18  0.963168D-03 -0.139777D-01 -0.414732D-01 -0.107784D-01 -0.612879D-02
     19 -0.188317D-01  0.191359D-02  0.605606D-02  0.355654D-03  0.389632D-02
     20  0.102451D-01  0.211322D-01  0.488721D-01  0.123477D-01  0.483713D-02
     21  0.845505D-02  0.470658D-01  0.305910D-01  0.164745D-01  0.875025D-02
     22 -0.117044D+00 -0.737800D-02  0.577222D-01  0.127377D-01 -0.640559D-02
     23 -0.103003D-02 -0.123682D+00  0.529260D-01 -0.689641D-02 -0.354325D-01
     24  0.246279D-01 -0.213519D-01  0.230674D+00  0.820069D-01 -0.960390D-02
     25 -0.382753D-01 -0.851492D-03  0.348934D-01  0.368695D-02  0.839360D-04
     26 -0.656484D-03 -0.453055D-01  0.178677D-01  0.396982D-02 -0.537982D-03
     27  0.332938D-01  0.104462D-01  0.174040D+00  0.955408D-02  0.103214D-03
     28 -0.732849D-02 -0.135520D-01  0.190409D-01  0.645111D-02 -0.210350D-02
     29 -0.696315D-03  0.678775D-02 -0.145201D-01 -0.134463D-01  0.734033D-03
     30 -0.425477D-03  0.553877D-02 -0.225655D-01  0.484584D-02 -0.160612D-02
     31 -0.111296D-03  0.197136D-01 -0.755382D-01 -0.207083D-01  0.966320D-03
     32  0.762897D-02 -0.341692D-01 -0.156845D-01 -0.277924D-02 -0.959320D-02
     33 -0.421154D-01 -0.178314D-01  0.549919D-01  0.131552D-01 -0.447893D-02
     34 -0.659280D+01  0.179583D+01 -0.263871D+01  0.244246D+00 -0.129278D+00
     35  0.183273D+01 -0.545424D+01 -0.364435D+01 -0.972417D-01 -0.105951D+00
     36 -0.283095D+01 -0.376978D+01 -0.218447D+01  0.253061D-01  0.153729D+00
     37  0.504110D-01 -0.211686D-01 -0.169699D-01  0.171646D+00  0.622375D-01
     38 -0.591556D-01  0.169138D+00 -0.258606D-01  0.698391D-01 -0.225658D-01
     39  0.146626D+00  0.331498D-01  0.161013D+00 -0.654655D-01 -0.199873D-01
     40 -0.144360D+00  0.558559D-01  0.388128D+00  0.162877D+00  0.547839D-01
     41  0.151303D+00 -0.390229D-01  0.305401D+00  0.707613D-01 -0.299169D-01
     42  0.359606D+00  0.239132D+00  0.277245D+00  0.864768D-01  0.206193D-01
                6             7             8             9            10
      6  0.420136D+01
      7 -0.121078D-01  0.409506D+01
      8  0.146852D-01  0.668690D+00  0.864194D+00
      9  0.163968D+00 -0.860777D-01 -0.218890D+00  0.417896D+01
     10 -0.789910D-01  0.185593D+00  0.292144D-01  0.326081D-01  0.175350D+02
     11  0.345531D-01 -0.120899D-01 -0.109290D+00 -0.230996D+00 -0.496856D+01
     12  0.691802D-01  0.406053D-02 -0.196364D+00  0.522466D-01 -0.495135D+00
     13 -0.439617D-01 -0.727531D-01  0.164810D-01  0.654553D-02 -0.614716D+01
     14 -0.427591D-01  0.557544D-02  0.228745D+00  0.143189D+00  0.129505D+01
     15 -0.292119D-01  0.230108D-02  0.159460D+00 -0.594635D-02  0.931079D-01
     16 -0.189047D-02 -0.662457D-02 -0.863226D-03 -0.644616D-05  0.473739D-01
     17 -0.307674D-02 -0.357657D-03  0.458810D-01  0.847970D-02 -0.132508D+00
     18  0.111844D-03  0.144655D-02 -0.182358D-02 -0.757387D-02  0.578151D-01
     19  0.437884D-02 -0.994576D-03 -0.151488D-02 -0.138599D-02  0.103786D-01
     20  0.824787D-02 -0.186438D-02  0.481985D-02 -0.346954D-03 -0.112090D+00
     21  0.611248D-02 -0.169503D-02  0.931435D-02  0.129297D-02 -0.741759D-01
     22  0.533645D-01 -0.211215D-01 -0.129538D-01 -0.251457D-01 -0.562119D+01
     23 -0.961100D-02 -0.125237D-01 -0.442304D-03  0.227191D-01  0.771890D+00
     24  0.400190D-01 -0.328411D-01  0.440380D-01  0.589831D-02 -0.114205D+01
     25  0.749512D-03 -0.214369D-02  0.266069D-02  0.126705D-02  0.960505D-02
     26  0.133241D-02 -0.103782D-02  0.402295D-02  0.269726D-02  0.214358D-01
     27 -0.174766D-03 -0.209640D-02  0.112183D-01  0.371873D-02 -0.433982D-01
     28  0.401597D-02 -0.271591D-01  0.467731D-02  0.126170D-01  0.723300D-01
     29 -0.554505D-02  0.112094D-02 -0.372616D-01 -0.222070D-01 -0.141154D-01
     30  0.354830D-03  0.530590D-02  0.933624D-02  0.614825D-01 -0.119762D-01
     31 -0.801459D-02  0.418484D-02 -0.107232D-01 -0.455618D-02  0.555128D-01
     32 -0.622515D-02 -0.679719D-04 -0.988208D-03  0.343471D-04 -0.486023D-01
     33  0.270928D-01 -0.177744D-02  0.438081D-02 -0.194745D-02  0.669727D-01
     34  0.964252D-01  0.640141D-01 -0.167847D+00  0.872942D-01 -0.252982D+00
     35  0.136908D+00 -0.162513D+00  0.315560D+00  0.141755D+00 -0.111991D+00
     36 -0.115926D+00  0.111945D+00  0.123980D+00 -0.125494D+00  0.190099D+00
     37 -0.537483D-01 -0.140928D-02 -0.125492D-01  0.122730D-01  0.281540D-02
     38 -0.173296D-01 -0.303170D-01 -0.270333D-01  0.215053D-01 -0.370733D-01
     39 -0.312983D-01  0.161913D-01  0.320554D-01  0.509425D-02  0.400884D-01
     40  0.678454D-01 -0.999541D-03  0.462880D-01  0.121951D-01 -0.255593D+00
     41  0.196998D-01  0.128805D-01  0.202180D-01  0.854037D-02  0.265950D+01
     42 -0.271431D-01  0.864780D-02  0.287755D-01 -0.165020D-01 -0.194274D+00
               11            12            13            14            15
     11  0.153794D+02
     12  0.325982D-01  0.152699D+02
     13  0.944540D+00  0.527893D-01  0.164906D+02
     14 -0.496803D+00  0.293613D+00  0.274470D+01  0.993511D+01
     15  0.380337D+00 -0.582152D+01  0.217902D+00 -0.805712D+00  0.162351D+02
     16 -0.104298D+00  0.583781D-01 -0.414582D+01 -0.429326D+00  0.586273D+00
     17  0.757009D-01  0.426512D-01 -0.493845D+00 -0.323015D+01 -0.163430D+01
     18 -0.474949D-01  0.627882D-01  0.539263D+00 -0.129565D+01 -0.258297D+01
     19 -0.822621D-01 -0.636140D-01 -0.409660D+01 -0.180178D+00 -0.346725D+00
     20  0.906569D-01 -0.179723D-01 -0.201839D+00 -0.347827D+01  0.136419D+01
     21  0.594590D-01  0.506179D-01 -0.336258D+00  0.116508D+01 -0.195917D+01
     22  0.793157D+00 -0.116035D+01 -0.406638D-01  0.775901D-01 -0.905578D-01
     23 -0.427285D+01 -0.245698D+01  0.156756D+00  0.124031D+00 -0.254309D+00
     24 -0.244504D+01 -0.249749D+01 -0.973208D-01 -0.144104D+00  0.431207D-01
     25  0.116535D-01  0.125084D-01 -0.189299D-01  0.558735D-02  0.479020D-03
     26  0.207783D-01  0.503508D-01  0.162228D-01 -0.127744D-01  0.428057D-02
     27 -0.226535D-01  0.162854D+00 -0.261449D-01 -0.250720D-01  0.170272D-01
     28 -0.459661D-01  0.130586D-01 -0.550184D-01 -0.272706D-01  0.925036D-02
     29  0.106975D+00 -0.924543D-02 -0.126274D-01  0.187602D+00 -0.709032D-01
     30  0.600318D-01  0.403247D-01  0.381016D-02 -0.697636D-01 -0.379317D-01
     31 -0.158691D-01  0.548059D-02  0.304187D-02  0.497964D-02 -0.357741D-02
     32  0.570896D-01  0.697282D-02 -0.177770D-02 -0.247792D-03  0.225411D-02
     33  0.141435D-01  0.670565D-01  0.902859D-02  0.106068D-01 -0.158013D-01
     34 -0.100933D+00  0.172535D+00 -0.358901D+00  0.423579D-01  0.168895D+00
     35 -0.232877D+00  0.329907D+00  0.309039D-01 -0.312735D+00  0.239516D+00
     36  0.331527D+00  0.628721D+00  0.130426D+00  0.133798D+00  0.498229D+00
     37 -0.466987D-01 -0.255722D-01  0.417710D-02 -0.132383D-01 -0.492051D-01
     38 -0.144701D-01  0.821713D-01 -0.413869D-02 -0.734011D-02 -0.533598D-02
     39  0.108225D+00 -0.415389D-01 -0.385336D-02 -0.126668D-01 -0.434238D-01
     40  0.294117D+01 -0.224140D+00 -0.160020D+01 -0.350889D+01 -0.592382D+00
     41 -0.509319D+01 -0.110320D+00 -0.329905D+01 -0.299949D+01  0.501838D+00
     42 -0.116741D+00 -0.663458D+01 -0.569752D+00  0.498241D+00 -0.642181D+01
               16            17            18            19            20
     16  0.426568D+01
     17  0.446141D+00  0.271422D+01
     18 -0.700833D+00  0.159919D+01  0.257124D+01
     19  0.144353D+00  0.596352D-04 -0.289721D-01  0.415335D+01
     20 -0.282343D-02  0.161496D+00  0.190170D-01  0.128644D+00  0.311637D+01
     21 -0.303302D-01  0.557643D-01 -0.261543D+00  0.477374D+00 -0.161934D+01
     22 -0.281279D-01  0.134004D-01 -0.951071D-02 -0.279478D-01  0.428176D-01
     23 -0.381932D-02  0.588102D-01 -0.673087D-01  0.339083D-01  0.613197D-01
     24 -0.216550D-02 -0.628893D-01  0.160518D-01 -0.313126D-02 -0.873787D-02
     25 -0.305233D-02 -0.244278D-02  0.320282D-02 -0.464473D-02 -0.445529D-02
     26 -0.113288D-03  0.131261D-02 -0.497840D-02  0.755330D-03  0.436631D-02
     27  0.268496D-02 -0.174209D-01  0.169711D-01  0.680490D-03 -0.198555D-01
     28 -0.455421D-03 -0.311468D-02  0.260617D-02 -0.261858D-02 -0.273550D-02
     29 -0.326071D-02  0.431017D-02 -0.742794D-02 -0.720268D-03  0.199007D-01
     30  0.910125D-03  0.203795D-02 -0.258807D-03 -0.241287D-04 -0.118557D-03
     31 -0.154285D-02  0.139740D-01 -0.126789D-01  0.460935D-03  0.950594D-02
     32  0.403792D-02  0.100861D-01 -0.103738D-01  0.538293D-03  0.200040D-02
     33 -0.301129D-02 -0.993969D-02  0.420957D-02 -0.707294D-04 -0.329756D-03
     34 -0.147848D+00  0.211186D-01 -0.153983D-03 -0.223920D-01  0.930372D-02
     35 -0.103326D-01  0.496351D-01  0.947490D-01 -0.233117D-02  0.191043D-02
     36 -0.922007D-02  0.229855D+00 -0.228738D-01 -0.203145D-02  0.457168D-01
     37  0.123892D-01  0.261295D-02  0.183243D-01 -0.166567D-02 -0.886152D-02
     38  0.148244D-01 -0.152112D-01 -0.226477D-01 -0.161100D-02 -0.869738D-03
     39  0.134164D-01 -0.303161D-01 -0.706105D-02 -0.533595D-02  0.105872D-01
     40 -0.109664D+00  0.106354D+00  0.139306D+00 -0.133195D+00  0.121805D+00
     41  0.752068D-01  0.672783D-01 -0.235145D+00  0.989020D-01 -0.966776D-02
     42  0.837368D-01 -0.200025D+00  0.252381D+00 -0.371984D-01  0.170074D+00
               21            22            23            24            25
     21  0.176268D+01
     22  0.719133D-02  0.145111D+02
     23  0.295725D-01 -0.930976D+00  0.132293D+02
     24 -0.352439D-01  0.114149D+01  0.212790D+01  0.116359D+02
     25 -0.238442D-02 -0.360517D+01  0.384115D+00  0.735494D+00  0.365532D+01
     26 -0.238352D-02  0.368205D+00 -0.350440D+01  0.839520D+00 -0.395562D+00
     27 -0.115955D-01  0.884452D+00  0.104529D+01 -0.207297D+01 -0.705310D+00
     28 -0.264910D-02 -0.353852D+01 -0.924425D+00 -0.675091D-01  0.675971D-01
     29  0.115667D-01 -0.103067D+01 -0.162084D+01  0.205567D+00  0.156560D-01
     30 -0.277357D-02  0.714406D-02  0.195828D-01 -0.396595D+01  0.195314D-01
     31  0.993960D-02 -0.127328D+01  0.265249D+00 -0.257932D+00 -0.265551D-01
     32  0.471872D-02  0.354526D+00 -0.381626D+01 -0.276434D-01 -0.497050D-01
     33 -0.262343D-02 -0.417652D+00 -0.336921D-01 -0.382928D+01 -0.662019D-01
     34  0.191792D-01 -0.173986D+00  0.119094D-01 -0.287797D-01 -0.888723D-02
     35  0.367078D-01  0.183521D-01 -0.123402D+00 -0.149983D+00 -0.477829D-03
     36  0.696568D-01 -0.651099D-01 -0.152718D+00  0.350344D+00  0.103698D-01
     37 -0.170432D-01 -0.180960D-02  0.807676D-02 -0.389281D-01 -0.264558D-02
     38  0.699432D-02  0.520818D-02 -0.102902D-01 -0.173149D-01 -0.352334D-03
     39  0.152739D-01 -0.153647D-01 -0.125028D-01  0.274173D-01  0.316217D-03
     40 -0.740779D-01 -0.750151D-01  0.247765D+00 -0.312963D+00 -0.259062D-01
     41  0.186734D+00  0.315130D+00  0.341373D-01 -0.330353D+00  0.340905D-01
     42  0.336732D+00 -0.367668D+00 -0.310862D+00  0.515216D-01 -0.449152D-01
               26            27            28            29            30
     26  0.357163D+01
     27 -0.819562D+00  0.152881D+01
     28 -0.168085D-01 -0.248183D-02  0.357046D+01
     29 -0.178769D-01 -0.550353D-01  0.926098D+00  0.125347D+01
     30 -0.662456D-01  0.329746D-01 -0.169711D-01  0.874486D-01  0.380580D+01
     31 -0.207341D-01 -0.433564D-01 -0.600697D-01  0.815392D-01  0.546198D-02
     32  0.427740D-01 -0.186438D-01  0.102150D+00  0.473476D-01 -0.780821D-02
     33 -0.126010D-01  0.419365D-01  0.293604D-01 -0.189818D-01  0.803725D-01
     34  0.270740D-02  0.964682D-02 -0.139529D-01 -0.110381D-01  0.399740D-02
     35 -0.102263D-01 -0.305976D-02 -0.743136D-02  0.110808D-01 -0.215425D-01
     36  0.116430D-01  0.414621D-01  0.138828D-01 -0.528739D-01  0.189099D-01
     37 -0.258143D-02 -0.101526D-01 -0.400392D-02  0.106375D-01 -0.406925D-02
     38 -0.138280D-02 -0.230268D-02 -0.388311D-03  0.297173D-02 -0.320136D-02
     39  0.568235D-03  0.862464D-03 -0.482926D-03 -0.452286D-02  0.250699D-02
     40  0.241971D-01 -0.107372D+00 -0.771107D-02  0.515268D-01 -0.175408D-01
     41 -0.523818D-01 -0.834503D-01  0.108700D-01  0.348040D-01 -0.136902D-01
     42 -0.224898D-01  0.640825D-01 -0.137383D-01 -0.433198D-01 -0.132532D-01
               31            32            33            34            35
     31  0.117384D+01
     32 -0.444933D+00  0.373000D+01
     33  0.497019D+00  0.108420D+00  0.357641D+01
     34 -0.518504D-02  0.400126D-02 -0.137262D-01  0.867724D+01
     35  0.102540D-01 -0.114888D-01 -0.105114D-01 -0.263561D+01  0.125496D+02
     36 -0.444247D-01 -0.133834D-01  0.256962D-01  0.114319D+01  0.268585D+01
     37  0.895206D-02  0.163363D-02 -0.348873D-02 -0.132661D+01  0.105552D+01
     38  0.214155D-02 -0.518667D-03 -0.670504D-03  0.106592D+01 -0.626568D+01
     39 -0.946821D-03 -0.284473D-03 -0.472944D-03  0.398148D+00  0.122698D-01
     40  0.141464D+00  0.733487D-01 -0.674918D-01 -0.819663D-01  0.801677D-01
     41  0.839361D-01 -0.160383D-01 -0.285146D-01  0.915617D-01 -0.411201D+00
     42 -0.668759D-01 -0.223534D-01 -0.276440D-01  0.582061D+00  0.151783D+00
               36            37            38            39            40
     36  0.683905D+01
     37  0.875702D+00  0.132351D+01
     38  0.127207D+00 -0.103532D+01  0.642390D+01
     39 -0.639169D+01 -0.678056D+00 -0.176422D+00  0.600717D+01
     40  0.450814D+00 -0.235758D+00  0.104226D-01  0.154718D+00  0.236603D+01
     41  0.145454D+00 -0.302984D-03 -0.230646D+00  0.598467D-01 -0.304793D+00
     42  0.368394D+00 -0.906638D-02  0.332073D-01  0.296148D+00  0.182960D+00
               41            42
     41  0.872512D+01
     42 -0.426041D+00  0.114944D+02
 ReadGW:  IGet=0 IStart=         102 Next=        6304 LGW=        6202.
 ICntrl=12127.
 Symmetry not used in FoFDir.
 MinBra= 0 MaxBra= 2 Meth= 1.
 IRaf=       0 NMat=   1 IRICut=       1 DoRegI=T DoRafI=F ISym2E= 0 JSym2E=0.
 PrsmSu:  NPrtUS=   8 ThrOK=T
 PRISM was handed    16311182 working-precision words and  1926 shell-pairs
 PRISM was handed    16311182 working-precision words and  1926 shell-pairs
 PRISM was handed    16311182 working-precision words and  1926 shell-pairs
 PRISM was handed    16311182 working-precision words and  1926 shell-pairs
 PRISM was handed    16311182 working-precision words and  1926 shell-pairs
 PRISM was handed    16311182 working-precision words and  1926 shell-pairs
 PRISM was handed    16311182 working-precision words and  1926 shell-pairs
 PRISM was handed    16311182 working-precision words and  1926 shell-pairs
 Pruned (  75, 302) grid will be used in CalDFT.
 CkSvGd:  ISavGI=        -1 IRadAn=       4 IRASav=       4 ISavGd=        -1.
 CalDSu:  NPrtUS=   8 ThrOK=T
 IPart= 0 IRanGd=          0 ScrnBf=T ScrnGd=T RCrit=4.00D+00 DoMicB=T.
 IPart= 2 IRanGd=          0 ScrnBf=T ScrnGd=T RCrit=4.00D+00 DoMicB=T.
 IPart= 1 IRanGd=          0 ScrnBf=T ScrnGd=T RCrit=4.00D+00 DoMicB=T.
 IPart= 4 IRanGd=          0 ScrnBf=T ScrnGd=T RCrit=4.00D+00 DoMicB=T.
 IPart= 6 IRanGd=          0 ScrnBf=T ScrnGd=T RCrit=4.00D+00 DoMicB=T.
 IPart= 3 IRanGd=          0 ScrnBf=T ScrnGd=T RCrit=4.00D+00 DoMicB=T.
 IPart= 7 IRanGd=          0 ScrnBf=T ScrnGd=T RCrit=4.00D+00 DoMicB=T.
 CutRad = 1000.00    CtRdIn =    0.00    XCrit =  15.00   ICut = 0
 IPart= 5 IRanGd=          0 ScrnBf=T ScrnGd=T RCrit=4.00D+00 DoMicB=T.
 CutRad = 1000.00    CtRdIn =    0.00    XCrit =  15.00   ICut = 0
 CutRad = 1000.00    CtRdIn =    0.00    XCrit =  15.00   ICut = 0
 CutRad = 1000.00    CtRdIn =    0.00    XCrit =  15.00   ICut = 0
 CutRad = 1000.00    CtRdIn =    0.00    XCrit =  15.00   ICut = 0
 CutRad = 1000.00    CtRdIn =    0.00    XCrit =  15.00   ICut = 0
 CutRad = 1000.00    CtRdIn =    0.00    XCrit =  15.00   ICut = 0
 CutRad = 1000.00    CtRdIn =    0.00    XCrit =  15.00   ICut = 0
 IPart= 3        12445 of        14014 points in      28 batches and       87 microbatches, Max-NSigAt=      14 Max-NSgAt2=      14
 IPart= 0        13148 of        15000 points in      31 batches and       96 microbatches, Max-NSigAt=      14 Max-NSgAt2=      14
 IPart= 2        12046 of        13774 points in      29 batches and       83 microbatches, Max-NSigAt=      14 Max-NSgAt2=      14
 IPart= 6        11739 of        13464 points in      28 batches and       81 microbatches, Max-NSigAt=      14 Max-NSgAt2=      14
 IPart= 5        13021 of        15298 points in      31 batches and       86 microbatches, Max-NSigAt=      14 Max-NSgAt2=      14
 IPart= 4        11936 of        13338 points in      28 batches and       89 microbatches, Max-NSigAt=      14 Max-NSgAt2=      14
 IPart= 7        12431 of        13802 points in      28 batches and       73 microbatches, Max-NSigAt=      14 Max-NSgAt2=      14
 IPart= 1        11691 of        12886 points in      25 batches and       86 microbatches, Max-NSigAt=      14 Max-NSgAt2=      14
 Polarizability after L703:
                1             2             3
      1  0.442514D+02
      2  0.369226D+01  0.552375D+02
      3 -0.824488D+00 -0.410449D+00  0.516976D+02
 Dipole Derivatives after L703:
               1            2            3            4            5
      1 0.360219D+00 0.647891D-02-0.132596D+00-0.145535D+00 0.173749D-01
      2 0.560728D-01 0.466957D+00-0.135398D+00-0.336705D-01 0.407366D-01
      3-0.106083D+00-0.104909D+00 0.525525D+00-0.220921D-02 0.165519D-01
               6            7            8            9           10
      1-0.346081D-02 0.842647D-02 0.174810D-01 0.142581D-02 0.357118D+00
      2-0.112347D-01 0.807690D-01-0.228316D+00 0.137259D-01 0.160058D+00
      3 0.238815D-01 0.104118D-01 0.125686D-01-0.197515D-01-0.444399D-01
              11           12           13           14           15
      1 0.622534D-01 0.168124D-02 0.235000D+00-0.681625D-01 0.582009D-03
      2 0.271433D+00-0.502624D-01-0.179300D+00 0.192336D+00 0.244400D-01
      3-0.936990D-01 0.372611D+00-0.403910D-01 0.428589D-01 0.251700D+00
              16           17           18           19           20
      1 0.679518D-01 0.369521D-01-0.160620D-01 0.719731D-01 0.289243D-01
      2 0.248069D-01-0.125656D-01 0.996869D-01 0.300935D-01-0.663516D-02
      3 0.143627D-01 0.467139D-01-0.185331D-01-0.798781D-02-0.545556D-01
              21           22           23           24           25
      1 0.128356D-01 0.110937D+00-0.534222D-01 0.320093D-01 0.502920D-01
      2-0.100267D+00-0.236024D-01 0.525027D-01 0.384266D-01-0.332332D-01
      3-0.997662D-01-0.219251D-01 0.312610D-01-0.913674D-01-0.686764D-01
              26           27           28           29           30
      1-0.440032D-01-0.300821D-01 0.359985D-01 0.482498D-01 0.424018D-01
      2 0.187715D-01-0.336772D-01 0.856458D-01-0.121637D+00-0.218776D-01
      3-0.776968D-01-0.746663D-01 0.111246D-01 0.160713D-01 0.491687D-01
              31           32           33           34           35
      1-0.131726D+00-0.101950D-01-0.291002D-02-0.362345D+00-0.765323D-01
      2-0.394868D-01 0.514532D-01 0.290816D-01-0.105822D+00-0.564010D+00
      3 0.337115D-01 0.215751D-01 0.609683D-01 0.195652D+00 0.751900D-01
              36           37           38           39           40
      1 0.165862D+00 0.195643D+00 0.727477D-02-0.104234D+00-0.853951D+00
      2 0.102156D+00 0.924647D-03 0.271220D+00 0.529380D-01-0.232563D-01
      3-0.862395D+00-0.432865D-01 0.785717D-01 0.388832D+00 0.697364D-01
              41           42
      1 0.273261D-01 0.325468D-01
      2-0.432247D+00-0.773862D-02
      3-0.105020D-01-0.506206D+00
 Hessian after L703:
                1             2             3             4             5
      1  0.611946D+00
      2 -0.134727D-01  0.542117D+00
      3  0.312363D-02 -0.700411D-02  0.440808D+00
      4 -0.302029D+00  0.947148D-02 -0.218316D-01  0.331139D+00
      5  0.166081D-01 -0.501323D-01  0.687374D-03 -0.440914D-02  0.534448D-01
      6 -0.308130D-01 -0.987593D-03 -0.515008D-01  0.190085D-01 -0.530935D-02
      7 -0.808259D-01  0.743277D-01  0.525115D-02 -0.980968D-02  0.304496D-01
      8  0.728976D-01 -0.254770D+00 -0.209349D-01  0.194808D-02 -0.250207D-03
      9  0.550622D-02 -0.201820D-01 -0.489313D-01 -0.194590D-02  0.278998D-02
     10 -0.756032D-01 -0.120531D-01 -0.331140D-01 -0.884186D-02 -0.139279D-01
     11 -0.644855D-02 -0.101688D+00 -0.412424D-01  0.681225D-03 -0.123213D-03
     12 -0.160468D-01 -0.366577D-01 -0.153695D+00 -0.105705D-02 -0.238340D-02
     13 -0.141159D-02 -0.113251D-01 -0.354587D-02 -0.182413D-03  0.903099D-04
     14  0.285619D-02 -0.131504D-01 -0.623172D-02 -0.451592D-03  0.138978D-02
     15  0.111745D-01 -0.303313D-01  0.654179D-03  0.109544D-03  0.143675D-02
     16  0.436327D-03  0.867914D-03 -0.157811D-03 -0.137271D-03 -0.135540D-03
     17 -0.154942D-02 -0.838116D-03  0.257314D-02 -0.134616D-03 -0.223602D-03
     18 -0.961680D-03 -0.293850D-03 -0.108044D-03  0.419489D-05  0.126072D-03
     19  0.186523D-02 -0.296697D-02  0.728747D-03  0.456259D-04  0.862067D-04
     20  0.162728D-02 -0.265086D-02  0.178674D-02 -0.161259D-03  0.916802D-04
     21  0.372304D-03  0.150148D-02 -0.483786D-03 -0.887774D-05 -0.557841D-04
     22  0.789314D-02  0.687067D-02 -0.294164D-02 -0.479018D-03  0.252581D-03
     23  0.485885D-02  0.829534D-02 -0.484993D-02 -0.333848D-03 -0.137734D-03
     24  0.603575D-02  0.159409D-01 -0.220753D-01 -0.106065D-03  0.202208D-03
     25 -0.451768D-03 -0.749887D-03  0.895863D-03  0.294970D-03  0.300011D-04
     26 -0.148541D-02 -0.265485D-02  0.981925D-03 -0.132872D-04 -0.874606D-04
     27  0.260080D-02  0.436706D-02 -0.481049D-03 -0.262400D-03  0.615910D-05
     28 -0.282129D-03  0.615587D-03 -0.239163D-03  0.341982D-04  0.102790D-03
     29 -0.399642D-03 -0.508590D-03 -0.114351D-02 -0.631520D-04  0.127049D-03
     30 -0.255037D-03  0.155302D-02  0.989475D-03  0.109525D-03 -0.555700D-04
     31 -0.625064D-03 -0.254130D-03 -0.307570D-03  0.570531D-03  0.500409D-04
     32  0.432450D-04  0.254495D-03 -0.158470D-03  0.186245D-03  0.300505D-03
     33 -0.233639D-03 -0.313634D-03  0.610857D-04 -0.306143D-03  0.413115D-04
     34 -0.111032D+00 -0.403767D-01  0.537217D-01 -0.131093D-01 -0.238041D-01
     35 -0.210476D-01 -0.115001D+00  0.765331D-01 -0.646865D-02 -0.163116D-02
     36  0.109945D-01  0.607074D-01 -0.162694D+00  0.536528D-02  0.224999D-02
     37 -0.202471D-01 -0.419876D-02  0.141714D-02  0.831864D-03 -0.282674D-02
     38 -0.274656D-01 -0.641429D-02  0.111715D-02  0.534035D-05 -0.137742D-02
     39  0.388753D-01  0.874267D-02  0.194533D-02  0.252125D-02  0.320925D-02
     40 -0.296319D-01 -0.675595D-02 -0.300067D-02  0.167283D-02 -0.256632D-02
     41 -0.270223D-01 -0.285771D-02 -0.211431D-02 -0.256824D-03 -0.139069D-02
     42 -0.303729D-01  0.295766D-02 -0.448837D-02 -0.160031D-02 -0.294498D-02
                6             7             8             9            10
      6  0.590666D-01
      7  0.322576D-02  0.770342D-01
      8 -0.122717D-02 -0.758222D-01  0.287460D+00
      9  0.206191D-02 -0.771485D-02  0.118083D-01  0.617307D-01
     10 -0.267872D-01  0.326352D-02  0.570394D-02  0.957921D-02  0.335567D+00
     11  0.232166D-02 -0.107713D-01 -0.165271D-01 -0.303150D-01  0.128449D+00
     12  0.182179D-02 -0.392078D-02 -0.418661D-02 -0.399536D-02  0.114338D-01
     13 -0.158665D-03  0.185852D-03  0.991956D-03 -0.162008D-04  0.196870D-02
     14  0.884219D-03 -0.138559D-02  0.128021D-02 -0.840512D-03 -0.768043D-01
     15  0.168020D-02 -0.216023D-02 -0.216057D-02 -0.573471D-02 -0.105639D-01
     16  0.917372D-04 -0.616126D-04 -0.380407D-04  0.258171D-03 -0.130894D-02
     17 -0.526525D-03  0.794015D-04  0.421654D-03 -0.750802D-04  0.821365D-02
     18 -0.131384D-03  0.175694D-03  0.277580D-03 -0.438842D-04  0.100062D-02
     19  0.259949D-03 -0.271053D-03 -0.562975D-03 -0.116737D-02 -0.381609D-02
     20 -0.157441D-03 -0.365058D-03 -0.264490D-03 -0.100662D-02  0.507498D-02
     21 -0.342130D-04  0.108282D-03 -0.895438D-05  0.256967D-03  0.113105D-02
     22  0.675194D-03  0.191356D-04 -0.776863D-04  0.123893D-03 -0.722170D-01
     23  0.214270D-03 -0.802556D-04  0.251264D-04 -0.969970D-03 -0.135837D-01
     24  0.457942D-03  0.403322D-03  0.608666D-03  0.136224D-02  0.165895D-01
     25  0.261488D-03 -0.100513D-03 -0.275793D-03 -0.108300D-03  0.621626D-03
     26 -0.128303D-03 -0.683442D-04  0.469002D-03  0.203866D-03  0.782898D-02
     27  0.188417D-03  0.121629D-03 -0.588962D-04  0.317700D-03 -0.109627D-01
     28 -0.138008D-04  0.212828D-03 -0.114621D-03 -0.252085D-03  0.249979D-02
     29 -0.114840D-03  0.117793D-03  0.931581D-03  0.488456D-03  0.660963D-02
     30 -0.661392D-04  0.170566D-03 -0.600968D-03 -0.585607D-03 -0.121344D-01
     31  0.220081D-03 -0.569365D-04 -0.390918D-04  0.226256D-04 -0.688602D-02
     32  0.220552D-03  0.151285D-03  0.493718D-04  0.361486D-04 -0.183529D-01
     33 -0.800922D-03 -0.123820D-04 -0.677762D-05 -0.191089D-04  0.262435D-01
     34  0.351985D-01  0.763830D-02 -0.435479D-02 -0.210563D-02 -0.187889D-02
     35  0.658815D-02 -0.169730D-01 -0.195748D-01  0.362619D-01 -0.476607D-03
     36 -0.256734D-02  0.338467D-02  0.153230D-01 -0.876118D-02  0.152006D-01
     37  0.221543D-02  0.874860D-03  0.113936D-02 -0.126570D-02  0.129828D-02
     38  0.192257D-02 -0.116584D-02 -0.457822D-03 -0.389411D-03  0.774259D-03
     39 -0.528517D-02 -0.366443D-03  0.577927D-03  0.111976D-04  0.628517D-02
     40 -0.338394D-02  0.189706D-02 -0.139567D-02 -0.914086D-03 -0.174667D+00
     41 -0.370021D-02  0.150581D-02  0.120715D-02  0.218994D-02 -0.274556D-01
     42 -0.489093D-02  0.133363D-02  0.589445D-03  0.233045D-02  0.609862D-02
               11            12            13            14            15
     11  0.590929D+00
     12 -0.150573D-01  0.517018D+00
     13 -0.237403D-01 -0.592105D-02  0.231214D+00
     14 -0.277599D+00 -0.105256D-01 -0.608099D-01  0.625958D+00
     15 -0.184726D-01 -0.633110D-01  0.250081D-01  0.218536D-02  0.654115D+00
     16 -0.506125D-02  0.188639D-01 -0.465460D-01  0.187452D-01 -0.315193D-01
     17 -0.105418D-01  0.181192D-01  0.241896D-01 -0.135796D+00  0.124485D+00
     18 -0.211100D-02  0.303676D-02 -0.347089D-01  0.129654D+00 -0.240195D+00
     19 -0.220089D-02 -0.187259D-01 -0.399721D-01 -0.966606D-03  0.176912D-02
     20 -0.860803D-02 -0.216421D-01  0.557648D-02 -0.961402D-01 -0.998050D-01
     21  0.289284D-02  0.138464D-02  0.445397D-02 -0.101970D+00 -0.282044D+00
     22 -0.609994D-02  0.931785D-02 -0.422587D-02  0.476080D-02 -0.110382D-01
     23 -0.117274D+00  0.544128D-01 -0.734726D-02 -0.171387D-01  0.261374D-01
     24  0.558127D-01 -0.173532D+00  0.972402D-03 -0.538378D-03  0.385969D-02
     25  0.314530D-02  0.713779D-02  0.877327D-03 -0.285499D-03 -0.126584D-03
     26  0.738213D-02  0.176927D-01  0.768138D-03  0.107681D-02  0.128677D-02
     27 -0.128946D-01 -0.252777D-01 -0.119013D-02 -0.106295D-02  0.318310D-03
     28 -0.826447D-02 -0.730255D-03  0.248276D-03 -0.239891D-02  0.180248D-02
     29 -0.201749D-01 -0.563968D-03  0.164447D-02 -0.146274D-03  0.368708D-02
     30  0.276598D-01  0.237166D-02 -0.531641D-03  0.133163D-02 -0.464808D-02
     31 -0.301079D-03 -0.334745D-03 -0.644807D-03 -0.470954D-03  0.366801D-03
     32 -0.179398D-02 -0.123650D-02 -0.569331D-03  0.112478D-02 -0.119694D-02
     33 -0.145579D-03  0.415791D-03  0.177193D-03 -0.558390D-03  0.947634D-03
     34  0.149003D-02  0.112131D-02 -0.253276D-02 -0.188262D-03  0.822919D-04
     35  0.449834D-02 -0.561198D-04  0.634923D-03 -0.307724D-02  0.688810D-03
     36  0.236941D-01 -0.441797D-01  0.108343D-02  0.122991D-02 -0.115168D-02
     37  0.281312D-03 -0.209728D-02  0.140313D-02 -0.994497D-04  0.843673D-03
     38  0.194373D-02  0.811585D-03  0.665181D-03  0.143846D-03 -0.253705D-02
     39  0.866781D-03 -0.216360D-02  0.352461D-02 -0.180660D-02 -0.136268D-02
     40 -0.711587D-01  0.959177D-03 -0.140382D+00  0.117499D+00  0.142516D-01
     41 -0.504236D-01  0.127303D-02  0.692309D-01 -0.879258D-01 -0.540339D-02
     42  0.699060D-02 -0.598936D-01  0.108528D-01 -0.117515D-01 -0.631272D-01
               16            17            18            19            20
     16  0.511722D-01
     17 -0.352686D-01  0.151502D+00
     18  0.370430D-01 -0.136395D+00  0.244400D+00
     19  0.283314D-02 -0.345796D-02 -0.313434D-02  0.425694D-01
     20 -0.215066D-02  0.976513D-02  0.146256D-01 -0.133505D-01  0.107976D+00
     21  0.192944D-03 -0.112839D-01 -0.151129D-01 -0.984687D-02  0.113879D+00
     22  0.217694D-02  0.155945D-02 -0.197053D-03  0.163728D-03 -0.101341D-02
     23 -0.302257D-02 -0.194291D-02 -0.155340D-03  0.142424D-02  0.132969D-02
     24 -0.117157D-02 -0.162974D-02 -0.410856D-03  0.165461D-03 -0.117851D-02
     25 -0.885599D-04  0.115559D-03  0.987007D-04  0.128878D-03  0.262614D-03
     26  0.278938D-04  0.239047D-05 -0.159121D-03  0.112835D-03 -0.399574D-03
     27 -0.195570D-03  0.417967D-04  0.285853D-03  0.387699D-03  0.858988D-03
     28 -0.410119D-03 -0.330496D-03  0.107607D-03  0.581881D-04  0.214885D-03
     29 -0.113604D-02 -0.542131D-03 -0.126811D-03  0.297765D-03  0.434881D-03
     30  0.839096D-03  0.912473D-03  0.253444D-03 -0.162702D-04  0.202057D-03
     31  0.375215D-04 -0.216203D-03 -0.536198D-04 -0.170361D-04 -0.109272D-03
     32  0.130867D-03  0.210784D-04 -0.259660D-05 -0.347045D-04 -0.227275D-03
     33 -0.124201D-03  0.138215D-03  0.259307D-04 -0.203410D-03  0.293896D-03
     34 -0.373560D-03  0.684464D-04  0.111204D-03  0.519682D-03 -0.151217D-03
     35 -0.327709D-03  0.268862D-02 -0.124737D-02 -0.210408D-03  0.151727D-02
     36 -0.458343D-03 -0.127451D-03 -0.891010D-03  0.212095D-03  0.136299D-03
     37 -0.330200D-03  0.100396D-02  0.572677D-03 -0.549604D-03  0.199962D-03
     38  0.796361D-03 -0.794292D-03 -0.444087D-03  0.196690D-03 -0.419497D-03
     39 -0.197376D-03 -0.165001D-03 -0.224247D-03 -0.761029D-03  0.308748D-03
     40 -0.739982D-02  0.572727D-02 -0.580870D-04 -0.355795D-02  0.434521D-02
     41  0.265722D-01 -0.137229D-01 -0.374832D-02  0.216333D-01 -0.124051D-01
     42 -0.234647D-01  0.393298D-02  0.911499D-02  0.303321D-01 -0.830115D-02
               21            22            23            24            25
     21  0.290293D+00
     22  0.177729D-03  0.555466D+00
     23  0.500656D-03 -0.322492D-02  0.537711D+00
     24  0.419000D-03  0.225936D-01  0.447474D-01  0.521157D+00
     25 -0.231636D-04 -0.809186D-01 -0.431838D-01 -0.817852D-01  0.836924D-01
     26 -0.363128D-04 -0.439994D-01 -0.993929D-01 -0.990056D-01  0.480200D-01
     27  0.384941D-03 -0.791495D-01 -0.960401D-01 -0.225559D+00  0.873446D-01
     28  0.544591D-04 -0.899694D-01  0.967445D-01  0.862518D-02  0.497180D-02
     29 -0.152500D-05  0.960795D-01 -0.260107D+00 -0.207658D-01  0.573329D-02
     30  0.126050D-03  0.947693D-02 -0.211453D-01 -0.502747D-01  0.122548D-01
     31  0.299158D-04 -0.299820D+00 -0.253571D-01  0.246844D-01 -0.100606D-01
     32 -0.353066D-04 -0.247570D-01 -0.486897D-01  0.322375D-02 -0.139644D-01
     33  0.482374D-04  0.242068D-01  0.309625D-02 -0.510338D-01 -0.265038D-01
     34 -0.250702D-03  0.851032D-03 -0.514403D-04 -0.551533D-03  0.361621D-03
     35 -0.150793D-02  0.312470D-04  0.495127D-03 -0.498090D-03 -0.169152D-03
     36 -0.303598D-03 -0.480671D-02 -0.588417D-02 -0.564540D-02  0.692320D-03
     37 -0.225157D-03 -0.123518D-02 -0.604507D-03 -0.637335D-03  0.166990D-03
     38  0.404408D-03 -0.503457D-03 -0.173762D-03 -0.439999D-03  0.711271D-04
     39  0.425291D-03 -0.669491D-03  0.191592D-03  0.968396D-05 -0.204707D-04
     40  0.383412D-02 -0.177048D-01 -0.623823D-02  0.418211D-02  0.504345D-03
     41 -0.427868D-02 -0.298785D-01 -0.300052D-02  0.352063D-02  0.125059D-02
     42  0.464075D-02  0.322307D-01 -0.255507D-03  0.126490D-02 -0.118056D-03
               26            27            28            29            30
     26  0.106427D+00
     27  0.104032D+00  0.246427D+00
     28 -0.116485D-01 -0.166904D-03  0.931780D-01
     29 -0.120207D-01 -0.840007D-03 -0.105784D+00  0.285068D+00
     30 -0.235757D-01 -0.161010D-02 -0.108918D-01  0.197924D-01  0.526055D-01
     31 -0.373429D-03  0.124738D-02 -0.122330D-01 -0.134272D-02  0.746245D-03
     32 -0.209498D-02  0.266612D-02  0.298457D-01  0.446748D-02 -0.280538D-02
     33 -0.142961D-02  0.426547D-02  0.288175D-02  0.144140D-03 -0.126803D-02
     34 -0.193465D-03  0.479084D-04 -0.888472D-04 -0.151657D-03  0.576832D-04
     35  0.392780D-03  0.120327D-03 -0.363349D-03  0.775719D-03 -0.743013D-03
     36  0.175522D-02 -0.233829D-02 -0.185433D-04  0.124333D-03  0.232378D-03
     37  0.197845D-03 -0.382742D-03  0.807689D-04  0.589387D-04  0.296955D-04
     38  0.335286D-04 -0.166866D-03  0.158732D-04 -0.260644D-03  0.165126D-03
     39  0.171488D-05 -0.619588D-04  0.118101D-03 -0.177270D-03  0.889064D-04
     40  0.826155D-03  0.559900D-03  0.169962D-02 -0.166426D-02  0.144647D-03
     41  0.866714D-03 -0.102917D-02  0.136501D-02  0.195514D-02 -0.269049D-02
     42 -0.161963D-02  0.313945D-02 -0.127703D-02 -0.502594D-03  0.178526D-02
               31            32            33            34            35
     31  0.327290D+00
     32  0.291106D-01  0.497976D-01
     33 -0.282259D-01 -0.519996D-02  0.509990D-01
     34  0.446201D-03  0.306039D-03 -0.657513D-03  0.577989D+00
     35  0.139362D-03  0.173227D-04 -0.309122D-03  0.121405D+00  0.153867D+00
     36  0.391967D-03 -0.105559D-03  0.513860D-03  0.433296D-01 -0.108324D+00
     37  0.366514D-04 -0.911970D-04  0.259750D-03 -0.464232D+00 -0.767123D-01
     38 -0.443235D-04 -0.139585D-03  0.162061D-03 -0.539051D-01 -0.265600D-01
     39 -0.335466D-03 -0.291284D-03  0.435012D-03 -0.121644D+00 -0.282949D-02
     40  0.196245D-02 -0.200443D-02  0.249799D-02  0.544144D-02  0.538239D-03
     41 -0.791699D-03 -0.308705D-02  0.408719D-02 -0.927995D-04  0.159211D-02
     42  0.154796D-02  0.488543D-02 -0.459017D-02 -0.846134D-02 -0.467740D-02
               36            37            38            39            40
     36  0.285184D+00
     37 -0.770121D-01  0.484092D+00
     38  0.782593D-02  0.803984D-01  0.363307D-01
     39 -0.570376D-01  0.768662D-01 -0.929142D-02  0.587458D-01
     40  0.164119D-02 -0.219034D-02  0.161072D-03 -0.419677D-02  0.362355D+00
     41  0.139472D-02  0.125317D-02 -0.185448D-02  0.662372D-03 -0.373133D-01
     42 -0.360080D-03 -0.584272D-03  0.860007D-03  0.447404D-02 -0.165172D-01
               41            42
     41  0.171047D+00
     42  0.983666D-02  0.110601D+00
 FrcOut:
 IF    =  1026 IFX   =  1068 IFXYZ =  1110
 IFFX  =  1152 IFFFX =  2055 IFLen =    42
 IFFLen=   903 IFFFLn=     0 IEDerv=  2055
 LEDerv=  2069 IFroze=  4128 ICStrt= 53261
 DipoleDeriv   = 3.60218684D-01 5.60727888D-02-1.06083300D-01
                 6.47890592D-03 4.66957016D-01-1.04909109D-01
                -1.32595677D-01-1.35398085D-01 5.25524852D-01
                -1.45535386D-01-3.36704634D-02-2.20921337D-03
                 1.73748522D-02 4.07366047D-02 1.65518942D-02
                -3.46080888D-03-1.12347489D-02 2.38815246D-02
                 8.42647329D-03 8.07690426D-02 1.04117812D-02
                 1.74809920D-02-2.28315589D-01 1.25686420D-02
                 1.42581310D-03 1.37258899D-02-1.97514949D-02
                 3.57117639D-01 1.60058435D-01-4.44399158D-02
                 6.22533949D-02 2.71433119D-01-9.36990025D-02
                 1.68124429D-03-5.02624178D-02 3.72610657D-01
                 2.35000446D-01-1.79300067D-01-4.03910238D-02
                -6.81625019D-02 1.92335880D-01 4.28589070D-02
                 5.82009421D-04 2.44399506D-02 2.51699537D-01
                 6.79518383D-02 2.48069041D-02 1.43626884D-02
                 3.69520804D-02-1.25655789D-02 4.67138752D-02
                -1.60619719D-02 9.96869001D-02-1.85330765D-02
                 7.19731144D-02 3.00934885D-02-7.98781042D-03
                 2.89243346D-02-6.63515889D-03-5.45555976D-02
                 1.28355625D-02-1.00266559D-01-9.97662079D-02
                 1.10936802D-01-2.36023611D-02-2.19250584D-02
                -5.34222470D-02 5.25027314D-02 3.12609915D-02
                 3.20092705D-02 3.84266497D-02-9.13673893D-02
                 5.02920009D-02-3.32332254D-02-6.86764145D-02
                -4.40031704D-02 1.87714687D-02-7.76967663D-02
                -3.00820639D-02-3.36772020D-02-7.46662535D-02
                 3.59985135D-02 8.56457910D-02 1.11245861D-02
                 4.82497577D-02-1.21637095D-01 1.60713064D-02
                 4.24018167D-02-2.18775538D-02 4.91686936D-02
                -1.31726256D-01-3.94867804D-02 3.37115217D-02
                -1.01950211D-02 5.14532326D-02 2.15751141D-02
                -2.91001576D-03 2.90816240D-02 6.09683421D-02
                -3.62345386D-01-1.05821852D-01 1.95652204D-01
                -7.65322607D-02-5.64010007D-01 7.51899995D-02
                 1.65861768D-01 1.02156181D-01-8.62394988D-01
                 1.95642513D-01 9.24647412D-04-4.32864592D-02
                 7.27477013D-03 2.71220033D-01 7.85717453D-02
                -1.04233782D-01 5.29379869D-02 3.88831999D-01
                -8.53950994D-01-2.32563489D-02 6.97364136D-02
                 2.73261132D-02-4.32246658D-01-1.05020002D-02
                 3.25468348D-02-7.73861597D-03-5.06206195D-01
 Full mass-weighted force constant matrix:
 Low frequencies ---  -15.6584   -6.3801   -0.0008    0.0008    0.0010   13.5258
 Low frequencies ---  141.6603  182.5285  254.9359
 Dipole derivatives wrt mode   1:  1.14513D+00 -7.02011D-01 -2.67962D+00
 Vibrational polarizability contributions from mode   1       1.7588018       0.6609930       9.6306353
 Vibrational hyperpolarizability contributions from mode   1       0.0000000       0.0000000       0.0000000
 Dipole derivatives wrt mode   2: -6.06508D-01  2.00143D-01  1.32825D+00
 Vibrational polarizability contributions from mode   2       0.2971652       0.0323600       1.4252216
 Vibrational hyperpolarizability contributions from mode   2       0.0000000       0.0000000       0.0000000
 Dipole derivatives wrt mode   3: -6.76037D-01 -4.87124D-01  1.29053D+00
 Vibrational polarizability contributions from mode   3       0.1892435       0.0982562       0.6896280
 Vibrational hyperpolarizability contributions from mode   3       0.0000000       0.0000000       0.0000000
 Dipole derivatives wrt mode   4: -7.12020D-01  2.05795D+00  4.65213D+00
 Vibrational polarizability contributions from mode   4       0.1091178       0.9115531       4.6581661
 Vibrational hyperpolarizability contributions from mode   4       0.0000000       0.0000000       0.0000000
 Dipole derivatives wrt mode   5:  3.42271D-01  1.39215D+00  1.69020D+00
 Vibrational polarizability contributions from mode   5       0.0243920       0.4035318       0.5948145
 Vibrational hyperpolarizability contributions from mode   5       0.0000000       0.0000000       0.0000000
 Dipole derivatives wrt mode   6: -1.79322D+00 -1.63587D+00  3.66790D-01
 Vibrational polarizability contributions from mode   6       0.5387998       0.4483919       0.0225423
 Vibrational hyperpolarizability contributions from mode   6       0.0000000       0.0000000       0.0000000
 Dipole derivatives wrt mode   7: -3.35365D+00  6.78275D+00  5.82781D+00
 Vibrational polarizability contributions from mode   7       1.1720172       4.7941340       3.5392406
 Vibrational hyperpolarizability contributions from mode   7       0.0000000       0.0000000       0.0000000
 Dipole derivatives wrt mode   8: -5.21375D-01  3.85736D+00  5.47077D+00
 Vibrational polarizability contributions from mode   8       0.0238440       1.3051487       2.6252895
 Vibrational hyperpolarizability contributions from mode   8       0.0000000       0.0000000       0.0000000
 Dipole derivatives wrt mode   9: -6.32906D-01 -4.12219D+00 -1.11219D+00
 Vibrational polarizability contributions from mode   9       0.0219528       0.9312510       0.0677904
 Vibrational hyperpolarizability contributions from mode   9       0.0000000       0.0000000       0.0000000
 Dipole derivatives wrt mode  10:  5.23485D+00  1.44612D+00 -5.82920D-01
 Vibrational polarizability contributions from mode  10       1.1146233       0.0850603       0.0138209
 Vibrational hyperpolarizability contributions from mode  10       0.0000000       0.0000000       0.0000000
 Dipole derivatives wrt mode  11:  3.14671D+00  7.79742D-01 -8.75044D-01
 Vibrational polarizability contributions from mode  11       0.3365091       0.0206626       0.0260221
 Vibrational hyperpolarizability contributions from mode  11       0.0000000       0.0000000       0.0000000
 Dipole derivatives wrt mode  12:  2.97811D+00 -9.69854D-01 -7.64884D-01
 Vibrational polarizability contributions from mode  12       0.2783074       0.0295159       0.0183584
 Vibrational hyperpolarizability contributions from mode  12       0.0000000       0.0000000       0.0000000
 Dipole derivatives wrt mode  13:  1.37514D+00 -1.17755D+00 -1.28003D+00
 Vibrational polarizability contributions from mode  13       0.0512983       0.0376157       0.0444477
 Vibrational hyperpolarizability contributions from mode  13       0.0000000       0.0000000       0.0000000
 Dipole derivatives wrt mode  14:  6.25531D-01 -2.47103D+00  1.43249D+00
 Vibrational polarizability contributions from mode  14       0.0102841       0.1604820       0.0539327
 Vibrational hyperpolarizability contributions from mode  14       0.0000000       0.0000000       0.0000000
 Dipole derivatives wrt mode  15: -1.87507D+00 -4.38057D+00  8.14733D+00
 Vibrational polarizability contributions from mode  15       0.0803458       0.4385196       1.5169050
 Vibrational hyperpolarizability contributions from mode  15       0.0000000       0.0000000       0.0000000
 Dipole derivatives wrt mode  16:  2.87224D+00  5.54959D-01 -1.95376D+00
 Vibrational polarizability contributions from mode  16       0.1768328       0.0066015       0.0818205
 Vibrational hyperpolarizability contributions from mode  16       0.0000000       0.0000000       0.0000000
 Dipole derivatives wrt mode  17:  1.48252D+00 -6.61429D-01  9.98067D-01
 Vibrational polarizability contributions from mode  17       0.0462067       0.0091975       0.0209421
 Vibrational hyperpolarizability contributions from mode  17       0.0000000       0.0000000       0.0000000
 Dipole derivatives wrt mode  18:  1.11620D+00  1.56437D-01  8.89662D-01
 Vibrational polarizability contributions from mode  18       0.0246412       0.0004840       0.0156540
 Vibrational hyperpolarizability contributions from mode  18       0.0000000       0.0000000       0.0000000
 Dipole derivatives wrt mode  19: -2.07016D+00 -1.28014D+00  3.39209D+00
 Vibrational polarizability contributions from mode  19       0.0758706       0.0290121       0.2037052
 Vibrational hyperpolarizability contributions from mode  19       0.0000000       0.0000000       0.0000000
 Dipole derivatives wrt mode  20: -6.37727D-01 -7.80937D-03  3.57547D+00
 Vibrational polarizability contributions from mode  20       0.0069220       0.0000010       0.2175853
 Vibrational hyperpolarizability contributions from mode  20       0.0000000       0.0000000       0.0000000
 Dipole derivatives wrt mode  21:  1.52734D+00  7.33579D-02  2.97895D+00
 Vibrational polarizability contributions from mode  21       0.0339737       0.0000784       0.1292403
 Vibrational hyperpolarizability contributions from mode  21       0.0000000       0.0000000       0.0000000
 Dipole derivatives wrt mode  22:  1.63511D+00  9.17329D-01  3.32061D-02
 Vibrational polarizability contributions from mode  22       0.0364933       0.0114860       0.0000151
 Vibrational hyperpolarizability contributions from mode  22       0.0000000       0.0000000       0.0000000
 Dipole derivatives wrt mode  23:  2.10166D+00  1.97032D+00 -3.83375D+00
 Vibrational polarizability contributions from mode  23       0.0585855       0.0514919       0.1949454
 Vibrational hyperpolarizability contributions from mode  23       0.0000000       0.0000000       0.0000000
 Dipole derivatives wrt mode  24:  1.70852D+00  1.86504D+00 -5.94738D+00
 Vibrational polarizability contributions from mode  24       0.0378639       0.0451193       0.4588132
 Vibrational hyperpolarizability contributions from mode  24       0.0000000       0.0000000       0.0000000
 Dipole derivatives wrt mode  25:  1.81280D+00 -1.64614D+00 -1.61294D+00
 Vibrational polarizability contributions from mode  25       0.0400800       0.0330493       0.0317295
 Vibrational hyperpolarizability contributions from mode  25       0.0000000       0.0000000       0.0000000
 Dipole derivatives wrt mode  26:  1.54965D+00  2.42341D-01  1.56048D+00
 Vibrational polarizability contributions from mode  26       0.0288538       0.0007057       0.0292587
 Vibrational hyperpolarizability contributions from mode  26       0.0000000       0.0000000       0.0000000
 Dipole derivatives wrt mode  27:  5.41072D-01  8.44919D-01  1.45261D+00
 Vibrational polarizability contributions from mode  27       0.0034658       0.0084514       0.0249802
 Vibrational hyperpolarizability contributions from mode  27       0.0000000       0.0000000       0.0000000
 Dipole derivatives wrt mode  28:  1.51446D+00  9.03171D-01 -2.55813D-01
 Vibrational polarizability contributions from mode  28       0.0265510       0.0094429       0.0007575
 Vibrational hyperpolarizability contributions from mode  28       0.0000000       0.0000000       0.0000000
 Dipole derivatives wrt mode  29: -2.15965D-01 -8.15776D+00  1.35852D-01
 Vibrational polarizability contributions from mode  29       0.0001427       0.2036699       0.0000565
 Vibrational hyperpolarizability contributions from mode  29       0.0000000       0.0000000       0.0000000
 Dipole derivatives wrt mode  30: -1.40172D+00 -3.55535D+00  2.27973D+00
 Vibrational polarizability contributions from mode  30       0.0057637       0.0370804       0.0152456
 Vibrational hyperpolarizability contributions from mode  30       0.0000000       0.0000000       0.0000000
 Dipole derivatives wrt mode  31: -4.87535D+00 -4.10981D-01  4.32940D-02
 Vibrational polarizability contributions from mode  31       0.0680383       0.0004835       0.0000054
 Vibrational hyperpolarizability contributions from mode  31       0.0000000       0.0000000       0.0000000
 Dipole derivatives wrt mode  32: -4.36476D+00  2.47023D+00  2.27667D-01
 Vibrational polarizability contributions from mode  32       0.0538048       0.0172335       0.0001464
 Vibrational hyperpolarizability contributions from mode  32       0.0000000       0.0000000       0.0000000
 Dipole derivatives wrt mode  33:  1.54272D+00 -4.27179D+00 -2.09721D+00
 Vibrational polarizability contributions from mode  33       0.0066968       0.0513471       0.0123759
 Vibrational hyperpolarizability contributions from mode  33       0.0000000       0.0000000       0.0000000
 Dipole derivatives wrt mode  34: -1.67453D+00 -2.89878D+00 -2.79231D+00
 Vibrational polarizability contributions from mode  34       0.0077763       0.0233032       0.0216227
 Vibrational hyperpolarizability contributions from mode  34       0.0000000       0.0000000       0.0000000
 Dipole derivatives wrt mode  35: -2.87727D-01  4.83425D-01 -3.73962D+00
 Vibrational polarizability contributions from mode  35       0.0002195       0.0006196       0.0370747
 Vibrational hyperpolarizability contributions from mode  35       0.0000000       0.0000000       0.0000000
 Dipole derivatives wrt mode  36:  5.81663D+00  1.86923D+00  9.74790D-01
 Vibrational polarizability contributions from mode  36       0.0641937       0.0066294       0.0018029
 Vibrational hyperpolarizability contributions from mode  36       0.0000000       0.0000000       0.0000000
 Diagonal vibrational polarizability:
        6.8096785      10.9029633      26.4245924
 Harmonic frequencies (cm**-1), IR intensities (KM/Mole), Raman scattering
 activities (A**4/AMU), depolarization ratios for plane and unpolarized
 incident light, reduced masses (AMU), force constants (mDyne/A),
 and normal coordinates:
                           1         2         3         4         5
                           A         A         A         A         A
       Frequencies ---   141.6486  182.5172  254.9331  353.5989  359.5118
    Reduced masses ---     2.3945    1.1058    4.1063    2.5970    2.4064
   Force constants ---     0.0283    0.0217    0.1572    0.1913    0.1833
    IR Intensities ---     8.9845    2.1721    2.3598   26.3845    4.9120
 Coord Atom Element:
   1     1     6          0.16721  -0.00695  -0.00205   0.05542   0.02315
   2     1     6         -0.10495   0.00164  -0.03562  -0.05719  -0.02855
   3     1     6         -0.00562  -0.00892  -0.03437   0.07916  -0.10657
   1     2     1          0.16023  -0.00534   0.00645   0.05630   0.02848
   2     2     1         -0.46861   0.03341  -0.07562  -0.27116  -0.15786
   3     2     1          0.05895  -0.03414  -0.15072   0.03426  -0.18547
   1     3     1          0.51869  -0.03579   0.07620   0.25867   0.14778
   2     3     1          0.00671  -0.00733  -0.00477  -0.00267   0.00710
   3     3     1         -0.06751  -0.00253  -0.17173   0.18041  -0.05484
   1     4     6          0.04808  -0.00697  -0.07101  -0.00028  -0.06515
   2     4     6         -0.02890  -0.01080  -0.10063   0.04513  -0.01298
   3     4     6         -0.00755  -0.00151   0.01262   0.02152  -0.05387
   1     5     6          0.03192  -0.03937  -0.05595   0.05168   0.00126
   2     5     6         -0.02410  -0.00915  -0.09153   0.03755  -0.04371
   3     5     6         -0.04841   0.01726  -0.19028   0.09483   0.21091
   1     6     1          0.08997  -0.08152  -0.11953  -0.13062   0.01508
   2     6     1         -0.05891   0.00161  -0.22099   0.16387   0.20950
   3     6     1         -0.08491   0.03425  -0.26679   0.22658   0.39472
   1     7     1         -0.05546  -0.02003   0.03203   0.29138   0.04387
   2     7     1          0.00917  -0.02764   0.04001  -0.08372  -0.30351
   3     7     1         -0.07000   0.02775  -0.25252   0.17138   0.34480
   1     8     6         -0.10200   0.01538   0.04160  -0.12036   0.04514
   2     8     6          0.06068  -0.00002   0.06556  -0.03149   0.14154
   3     8     6          0.01550   0.01196   0.15358  -0.06776   0.08856
   1     9     1          0.03520   0.51937   0.00689  -0.30655   0.05447
   2     9     1         -0.00124  -0.24511   0.28945  -0.14292   0.39901
   3     9     1         -0.01195  -0.07921   0.05190   0.07132  -0.04979
   1    10     1         -0.33687  -0.45579   0.16936  -0.16553   0.14850
   2    10     1         -0.04538  -0.18944   0.10687  -0.04844   0.17018
   3    10     1          0.03828  -0.21042   0.33487  -0.08443   0.31005
   1    11     1         -0.12570  -0.00010   0.05942  -0.15175   0.06375
   2    11     1          0.31902   0.47494  -0.04578   0.00786   0.07187
   3    11     1          0.04946   0.35076   0.20737  -0.31263   0.19487
   1    12     8         -0.16681   0.04981   0.11187   0.01704   0.01786
   2    12     8          0.10409  -0.01279   0.22452  -0.03701  -0.01940
   3    12     8         -0.02200   0.00793   0.18159   0.10301  -0.11913
   1    13     1         -0.13331   0.03334   0.07074  -0.07870  -0.02577
   2    13     1          0.16216   0.01135   0.24054   0.31662   0.15000
   3    13     1         -0.24425   0.07428   0.39135   0.32187  -0.03098
   1    14     8          0.04825  -0.01848  -0.06529   0.00742  -0.05116
   2    14     8         -0.02627   0.02327  -0.12359   0.04532  -0.05726
   3    14     8          0.07748  -0.03216  -0.14679  -0.23720  -0.04335
                           6         7         8         9        10
                           A         A         A         A         A
       Frequencies ---   400.7613  508.1795  553.8941  700.7465  813.4054
    Reduced masses ---     2.3193    1.2881    2.7703    4.9020    3.5843
   Force constants ---     0.2195    0.1960    0.5008    1.4182    1.3972
    IR Intensities ---     6.0262   91.2160   45.0804   18.6300   29.8348
 Coord Atom Element:
   1     1     6         -0.03529  -0.05015   0.05039  -0.15267  -0.00065
   2     1     6          0.02279  -0.02993   0.11673  -0.20769  -0.12866
   3     1     6         -0.01098  -0.01260  -0.00847  -0.20740  -0.07278
   1     2     1         -0.04520  -0.05828   0.05093  -0.14699  -0.00548
   2     2     1          0.34918   0.03401   0.11569  -0.21586   0.15730
   3     2     1          0.15674   0.06147  -0.01884  -0.34458   0.10209
   1     3     1         -0.35231  -0.10907   0.04788  -0.12877  -0.24182
   2     3     1         -0.06674  -0.04843   0.11996  -0.19707  -0.19610
   3     3     1         -0.17863  -0.01712   0.01000  -0.31201  -0.28960
   1     4     6          0.18819   0.01358  -0.00052  -0.13992   0.24034
   2     4     6         -0.13269  -0.00825  -0.00809  -0.05144  -0.06292
   3     4     6         -0.01455  -0.05453   0.15093  -0.02772  -0.01744
   1     5     6         -0.09166   0.00559   0.01687   0.25229   0.01398
   2     5     6         -0.11807  -0.01259   0.01842   0.02898   0.25146
   3     5     6          0.03158  -0.02091  -0.03856  -0.01917   0.02158
   1     6     1         -0.24102   0.09907  -0.16062   0.25643   0.28318
   2     6     1         -0.11146   0.01490  -0.16655   0.15779   0.30307
   3     6     1          0.07151  -0.02212  -0.14199   0.05729   0.00382
   1     7     1         -0.16372  -0.11331   0.20669   0.09242   0.26228
   2     7     1         -0.19316  -0.02489   0.24941   0.01931   0.25359
   3     7     1          0.06355  -0.02360  -0.14418  -0.00328   0.03561
   1     8     6         -0.07086   0.02503  -0.05655  -0.06442   0.05664
   2     8     6          0.04611   0.03843  -0.12844  -0.11851  -0.03885
   3     8     6          0.04214  -0.05908   0.19448   0.14793   0.03558
   1     9     1         -0.27545   0.04863  -0.09807  -0.03763  -0.13088
   2     9     1          0.18203   0.06103  -0.17931  -0.08754  -0.07366
   3     9     1          0.06056  -0.08215   0.24206   0.12226   0.13855
[...]
     39 -0.510338D-01  0.426547D-02 -0.126803D-02  0.509990D-01
     40 -0.564540D-02 -0.233829D-02  0.232378D-03  0.513860D-03  0.285184D+00
     41  0.968396D-05 -0.619588D-04  0.889064D-04  0.435012D-03 -0.570376D-01
     42  0.126490D-02  0.313945D-02  0.178526D-02 -0.459017D-02 -0.360080D-03
               41            42
     41  0.587458D-01
     42  0.447404D-02  0.110601D+00
 Final forces over variables, Energy=-3.07729927D+02:
  3.80458236D-05-1.69107551D-05-1.07590231D-05 2.92336158D-05
  1.10803654D-04 2.18874235D-05-2.92280211D-05 6.87409739D-06
 -8.49479061D-07-9.12805924D-07-6.52981183D-06 1.15656903D-05
 -3.50608409D-05-1.18159567D-04-2.07310914D-05 1.06397644D-05
  1.81972715D-05-2.80202124D-05-7.15231591D-06 8.96765759D-06
 -6.33233606D-06-2.62061825D-05-2.21464065D-06-3.01671027D-06
 -1.85310587D-06-4.11667898D-06 6.84399872D-06 5.49945819D-05
  2.61240809D-05-4.71209535D-06 4.99256037D-06 2.94112167D-05
  1.26497318D-05-2.96290287D-06-2.24699813D-05-2.02526925D-05
 -1.90720845D-06-3.91380726D-07 2.84203798D-06-2.83549765D-05
 -1.11863865D-05 1.62179965D-05

 GradGradGradGradGradGradGradGradGradGradGradGradGradGradGradGradGradGrad
 Berny optimization.
 Search for a local minimum.
 Step number   1 out of a maximum of   2
 All quantities printed in internal units (Hartrees-Bohrs-Radians)
 Second derivative matrix not updated -- analytic derivatives used.
     Eigenvalues ---    0.00124   0.00253   0.00813   0.01107   0.01263
     Eigenvalues ---    0.01622   0.02166   0.03703   0.04995   0.05837
     Eigenvalues ---    0.05978   0.06413   0.08963   0.09594   0.10491
     Eigenvalues ---    0.10749   0.11384   0.12919   0.14691   0.17985
     Eigenvalues ---    0.20109   0.21108   0.23707   0.28646   0.44699
     Eigenvalues ---    0.46623   0.49504   0.63418   0.70539   0.73903
     Eigenvalues ---    0.75459   0.78821   0.81404   0.91853   1.00482
     Eigenvalues ---    1.03858
 Angle between quadratic step and forces=  72.12 degrees.
 Linear search not attempted -- first point.
 TrRot= -0.000040  0.000013  0.000082  0.000005 -0.000014  0.000005
 Variable       Old X    -DE/DX   Delta X   Delta X   Delta X     New X
                                 (Linear)    (Quad)   (Total)
    X1        0.35833   0.00004   0.00000   0.00034   0.00030   0.35863
    Y1       -0.06291  -0.00002   0.00000  -0.00011  -0.00010  -0.06301
    Z1        0.09389   0.00003   0.00000   0.00026   0.00035   0.09424
    X2        2.42069  -0.00002   0.00000   0.00025   0.00021   2.42089
    Y2       -0.08577   0.00001   0.00000  -0.00054  -0.00050  -0.08627
    Z2        0.22936   0.00000   0.00000   0.00079   0.00091   0.23027
    X3       -0.25706  -0.00001   0.00000   0.00068   0.00062  -0.25644
    Y3        1.92326   0.00002   0.00000   0.00006   0.00007   1.92333
    Z3        0.17636   0.00000   0.00000   0.00034   0.00041   0.17677
    X4       -0.47476   0.00003   0.00000   0.00028   0.00029  -0.47448
    Y4       -1.16222  -0.00003   0.00000   0.00015   0.00015  -1.16206
    Z4       -2.43234   0.00003   0.00000   0.00011   0.00018  -2.43216
    X5       -0.91561   0.00011   0.00000   0.00064   0.00067  -0.91495
    Y5       -3.89220  -0.00001   0.00000   0.00026   0.00027  -3.89193
    Z5       -2.62982   0.00001   0.00000   0.00005   0.00012  -2.62970
    X6       -0.55722   0.00002   0.00000   0.00159   0.00161  -0.55561
    Y6       -5.08603   0.00001   0.00000   0.00030   0.00031  -5.08573
    Z6       -1.00103   0.00000   0.00000  -0.00017  -0.00009  -1.00113
    X7       -0.80004  -0.00003   0.00000  -0.00081  -0.00075  -0.80079
    Y7       -4.80360  -0.00001   0.00000   0.00040   0.00040  -4.80319
    Z7       -4.46691  -0.00002   0.00000  -0.00015  -0.00008  -4.46699
    X8        0.14322   0.00001   0.00000  -0.00024  -0.00022   0.14300
    Y8        0.39560  -0.00003   0.00000  -0.00016  -0.00015   0.39546
    Z8       -4.73872  -0.00002   0.00000  -0.00022  -0.00014  -4.73885
    X9       -0.60080   0.00000   0.00000  -0.00067  -0.00061  -0.60141
    Y9       -0.49834   0.00000   0.00000  -0.00037  -0.00036  -0.49871
    Z9       -6.44106   0.00000   0.00000   0.00007   0.00015  -6.44091
   X10       -0.68925   0.00000   0.00000  -0.00008  -0.00008  -0.68933
   Y10        2.28142   0.00000   0.00000  -0.00009  -0.00008   2.28133
   Z10       -4.58322   0.00000   0.00000  -0.00030  -0.00023  -4.58345
   X11        2.18902  -0.00001   0.00000  -0.00028  -0.00026   2.18876
   Y11        0.61285   0.00000   0.00000  -0.00033  -0.00029   0.61256
   Z11       -4.95000   0.00000   0.00000  -0.00065  -0.00054  -4.95054
   X12       -0.58760   0.00001   0.00000  -0.00091  -0.00097  -0.58857
   Y12       -1.45512   0.00000   0.00000  -0.00025  -0.00024  -1.45535
   Z12        2.16784  -0.00003   0.00000  -0.00048  -0.00040   2.16743
   X13       -2.35711  -0.00004   0.00000  -0.00086  -0.00090  -2.35802
   Y13       -1.73184   0.00001   0.00000   0.00033   0.00033  -1.73151
   Z13        1.80831  -0.00001   0.00000  -0.00164  -0.00159   1.80672
   X14       -3.01013  -0.00012   0.00000   0.00009   0.00010  -3.01003
   Y14       -2.16655   0.00005   0.00000   0.00022   0.00020  -2.16635
   Z14       -2.33933   0.00002   0.00000   0.00091   0.00095  -2.33837
         Item               Value     Threshold  Converged?
 Maximum Force            0.000118     0.000450     YES
 RMS     Force            0.000031     0.000300     YES
 Maximum Displacement     0.001609     0.001800     YES
 RMS     Displacement     0.000550     0.001200     YES
 Predicted change in Energy=-1.116021D-07
 Optimization completed.
    -- Stationary point found.
 GradGradGradGradGradGradGradGradGradGradGradGradGradGradGradGradGradGrad


 Test job not archived.
 1\1\GINC-NODE04\Freq\RB3LYP\CBSB7\C4H8O2\NYEE\10-Jun-2013\0\\# freq no
 symm b3lyp/cbsb7 iop(7/33=1)\\Title Card Required\\0,1\C,0.18962,-0.03
 329,0.049686\H,1.280973,-0.045386,0.121374\H,-0.136029,1.017746,0.0933
 24\C,-0.251234,-0.615018,-1.287141\C,-0.484521,-2.059665,-1.391639\H,-
 0.294868,-2.691413,-0.529723\H,-0.423363,-2.541953,-2.363786\C,0.07578
 8,0.209345,-2.50762\H,-0.31793,-0.263712,-3.40846\H,-0.364738,1.207273
 ,-2.425337\H,1.158379,0.324307,-2.619426\O,-0.310945,-0.770014,1.14716
 9\H,-1.247331,-0.91645,0.956915\O,-1.592891,-1.146491,-1.237918\\Versi
 on=AM64L-G03RevD.01\HF=-307.7299274\RMSD=7.700e-09\RMSF=3.133e-05\Zero
 Point=0.1185482\Thermal=0.1250609\Dipole=0.4409838,0.1059619,-0.648892
 1\DipoleDeriv=0.3602187,0.0560728,-0.1060833,0.0064789,0.466957,-0.104
 9091,-0.1325957,-0.1353981,0.5255249,-0.1455354,-0.0336705,-0.0022092,
 0.0173749,0.0407366,0.0165519,-0.0034608,-0.0112347,0.0238815,0.008426
 5,0.080769,0.0104118,0.017481,-0.2283156,0.0125686,0.0014258,0.0137259
 ,-0.0197515,0.3571176,0.1600584,-0.0444399,0.0622534,0.2714331,-0.0936
 99,0.0016812,-0.0502624,0.3726107,0.2350004,-0.1793001,-0.040391,-0.06
 81625,0.1923359,0.0428589,0.000582,0.02444,0.2516995,0.0679518,0.02480
 69,0.0143627,0.0369521,-0.0125656,0.0467139,-0.016062,0.0996869,-0.018
 5331,0.0719731,0.0300935,-0.0079878,0.0289243,-0.0066352,-0.0545556,0.
 0128356,-0.1002666,-0.0997662,0.1109368,-0.0236024,-0.0219251,-0.05342
 22,0.0525027,0.031261,0.0320093,0.0384266,-0.0913674,0.050292,-0.03323
 32,-0.0686764,-0.0440032,0.0187715,-0.0776968,-0.0300821,-0.0336772,-0
 .0746663,0.0359985,0.0856458,0.0111246,0.0482498,-0.1216371,0.0160713,
 0.0424018,-0.0218776,0.0491687,-0.1317263,-0.0394868,0.0337115,-0.0101
 95,0.0514532,0.0215751,-0.00291,0.0290816,0.0609683,-0.3623454,-0.1058
 219,0.1956522,-0.0765323,-0.56401,0.07519,0.1658618,0.1021562,-0.86239
 5,0.1956425,0.0009246,-0.0432865,0.0072748,0.27122,0.0785717,-0.104233
 8,0.052938,0.388832,-0.853951,-0.0232563,0.0697364,0.0273261,-0.432246
 7,-0.010502,0.0325468,-0.0077386,-0.5062062\Polar=44.2513592,3.6922587
 ,55.2375188,-0.8244883,-0.4104492,51.6975934\PG=C01 [X(C4H8O2)]\NImag=
 0\\0.61194551,-0.01347274,0.54211674,0.00312363,-0.00700411,0.44080804
 ,-0.30202947,0.00947148,-0.02183156,0.33113898,0.01660814,-0.05013234,
 0.00068737,-0.00440914,0.05344481,-0.03081304,-0.00098759,-0.05150075,
 0.01900851,-0.00530935,0.05906660,-0.08082593,0.07432768,0.00525115,-0
 .00980968,0.03044961,0.00322576,0.07703417,0.07289755,-0.25477003,-0.0
 2093494,0.00194808,-0.00025021,-0.00122717,-0.07582221,0.28746032,0.00
 550622,-0.02018198,-0.04893135,-0.00194590,0.00278998,0.00206191,-0.00
 771485,0.01180827,0.06173074,-0.07560320,-0.01205308,-0.03311398,-0.00
 884186,-0.01392789,-0.02678723,0.00326352,0.00570394,0.00957921,0.3355
 6682,-0.00644855,-0.10168798,-0.04124240,0.00068122,-0.00012321,0.0023
 2166,-0.01077134,-0.01652708,-0.03031501,0.12844865,0.59092933,-0.0160
 4678,-0.03665774,-0.15369514,-0.00105705,-0.00238340,0.00182179,-0.003
 92078,-0.00418661,-0.00399536,0.01143379,-0.01505726,0.51701764,-0.001
 41159,-0.01132510,-0.00354587,-0.00018241,0.00009031,-0.00015866,0.000
 18585,0.00099196,-0.00001620,0.00196870,-0.02374030,-0.00592105,0.2312
 1395,0.00285619,-0.01315037,-0.00623172,-0.00045159,0.00138978,0.00088
 422,-0.00138559,0.00128021,-0.00084051,-0.07680427,-0.27759933,-0.0105
 2561,-0.06080990,0.62595805,0.01117452,-0.03033131,0.00065418,0.000109
 54,0.00143675,0.00168020,-0.00216023,-0.00216057,-0.00573471,-0.010563
 85,-0.01847264,-0.06331104,0.02500809,0.00218536,0.65411452,0.00043633
 ,0.00086791,-0.00015781,-0.00013727,-0.00013554,0.00009174,-0.00006161
 ,-0.00003804,0.00025817,-0.00130894,-0.00506125,0.01886387,-0.04654602
 ,0.01874516,-0.03151929,0.05117217,-0.00154942,-0.00083812,0.00257314,
 -0.00013462,-0.00022360,-0.00052652,0.00007940,0.00042165,-0.00007508,
 0.00821365,-0.01054175,0.01811922,0.02418957,-0.13579554,0.12448470,-0
 .03526862,0.15150232,-0.00096168,-0.00029385,-0.00010804,0.00000419,0.
 00012607,-0.00013138,0.00017569,0.00027758,-0.00004388,0.00100062,-0.0
 0211100,0.00303676,-0.03470895,0.12965414,-0.24019503,0.03704303,-0.13
 639486,0.24440033,0.00186523,-0.00296697,0.00072875,0.00004563,0.00008
 621,0.00025995,-0.00027105,-0.00056298,-0.00116737,-0.00381609,-0.0022
 0089,-0.01872585,-0.03997213,-0.00096661,0.00176912,0.00283314,-0.0034
 5796,-0.00313434,0.04256940,0.00162728,-0.00265086,0.00178674,-0.00016
 126,0.00009168,-0.00015744,-0.00036506,-0.00026449,-0.00100662,0.00507
 498,-0.00860803,-0.02164214,0.00557648,-0.09614024,-0.09980498,-0.0021
 5066,0.00976513,0.01462557,-0.01335053,0.10797645,0.00037230,0.0015014
 8,-0.00048379,-0.00000888,-0.00005578,-0.00003421,0.00010828,-0.000008
 95,0.00025697,0.00113105,0.00289284,0.00138464,0.00445397,-0.10196958,
 -0.28204414,0.00019294,-0.01128386,-0.01511286,-0.00984687,0.11387855,
 0.29029273,0.00789314,0.00687067,-0.00294164,-0.00047902,0.00025258,0.
 00067519,0.00001914,-0.00007769,0.00012389,-0.07221701,-0.00609994,0.0
 0931785,-0.00422587,0.00476080,-0.01103817,0.00217694,0.00155945,-0.00
 019705,0.00016373,-0.00101341,0.00017773,0.55546554,0.00485885,0.00829
 534,-0.00484993,-0.00033385,-0.00013773,0.00021427,-0.00008026,0.00002
 513,-0.00096997,-0.01358367,-0.11727363,0.05441278,-0.00734726,-0.0171
 3868,0.02613741,-0.00302257,-0.00194291,-0.00015534,0.00142424,0.00132
 969,0.00050066,-0.00322492,0.53771125,0.00603575,0.01594089,-0.0220753
 0,-0.00010606,0.00020221,0.00045794,0.00040332,0.00060867,0.00136224,0
 .01658955,0.05581268,-0.17353204,0.00097240,-0.00053838,0.00385969,-0.
 00117157,-0.00162974,-0.00041086,0.00016546,-0.00117851,0.00041900,0.0
 2259355,0.04474738,0.52115718,-0.00045177,-0.00074989,0.00089586,0.000
 29497,0.00003000,0.00026149,-0.00010051,-0.00027579,-0.00010830,0.0006
 2163,0.00314530,0.00713779,0.00087733,-0.00028550,-0.00012658,-0.00008
 856,0.00011556,0.00009870,0.00012888,0.00026261,-0.00002316,-0.0809185
 6,-0.04318376,-0.08178518,0.08369239,-0.00148541,-0.00265485,0.0009819
 2,-0.00001329,-0.00008746,-0.00012830,-0.00006834,0.00046900,0.0002038
 7,0.00782898,0.00738213,0.01769272,0.00076814,0.00107681,0.00128677,0.
 00002789,0.00000239,-0.00015912,0.00011283,-0.00039957,-0.00003631,-0.
 04399939,-0.09939288,-0.09900564,0.04802003,0.10642712,0.00260080,0.00
 436706,-0.00048105,-0.00026240,0.00000616,0.00018842,0.00012163,-0.000
 05890,0.00031770,-0.01096266,-0.01289457,-0.02527772,-0.00119013,-0.00
 106295,0.00031831,-0.00019557,0.00004180,0.00028585,0.00038770,0.00085
 899,0.00038494,-0.07914951,-0.09604007,-0.22555852,0.08734460,0.104032
 07,0.24642748,-0.00028213,0.00061559,-0.00023916,0.00003420,0.00010279
 ,-0.00001380,0.00021283,-0.00011462,-0.00025209,0.00249979,-0.00826447
 ,-0.00073026,0.00024828,-0.00239891,0.00180248,-0.00041012,-0.00033050
 ,0.00010761,0.00005819,0.00021488,0.00005446,-0.08996938,0.09674448,0.
 00862518,0.00497180,-0.01164855,-0.00016690,0.09317800,-0.00039964,-0.
 00050859,-0.00114351,-0.00006315,0.00012705,-0.00011484,0.00011779,0.0
 0093158,0.00048846,0.00660963,-0.02017495,-0.00056397,0.00164447,-0.00
 014627,0.00368708,-0.00113604,-0.00054213,-0.00012681,0.00029777,0.000
 43488,-0.00000153,0.09607954,-0.26010669,-0.02076584,0.00573329,-0.012
 02073,-0.00084001,-0.10578395,0.28506815,-0.00025504,0.00155302,0.0009
 8947,0.00010952,-0.00005557,-0.00006614,0.00017057,-0.00060097,-0.0005
 8561,-0.01213441,0.02765977,0.00237166,-0.00053164,0.00133163,-0.00464
 808,0.00083910,0.00091247,0.00025344,-0.00001627,0.00020206,0.00012605
 ,0.00947693,-0.02114535,-0.05027470,0.01225476,-0.02357568,-0.00161010
 ,-0.01089179,0.01979236,0.05260548,-0.00062506,-0.00025413,-0.00030757
 ,0.00057053,0.00005004,0.00022008,-0.00005694,-0.00003909,0.00002263,-
 0.00688602,-0.00030108,-0.00033474,-0.00064481,-0.00047095,0.00036680,
 0.00003752,-0.00021620,-0.00005362,-0.00001704,-0.00010927,0.00002992,
 -0.29981971,-0.02535711,0.02468436,-0.01006055,-0.00037343,0.00124738,
 -0.01223299,-0.00134272,0.00074624,0.32728974,0.00004324,0.00025449,-0
 .00015847,0.00018624,0.00030050,0.00022055,0.00015129,0.00004937,0.000
 03615,-0.01835294,-0.00179398,-0.00123650,-0.00056933,0.00112478,-0.00
 119694,0.00013087,0.00002108,-0.00000260,-0.00003470,-0.00022727,-0.00
 003531,-0.02475701,-0.04868973,0.00322375,-0.01396441,-0.00209498,0.00
 266612,0.02984573,0.00446748,-0.00280538,0.02911060,0.04979756,-0.0002
 3364,-0.00031363,0.00006109,-0.00030614,0.00004131,-0.00080092,-0.0000
 1238,-0.00000678,-0.00001911,0.02624354,-0.00014558,0.00041579,0.00017
 719,-0.00055839,0.00094763,-0.00012420,0.00013821,0.00002593,-0.000203
 41,0.00029390,0.00004824,0.02420677,0.00309625,-0.05103380,-0.02650377
 ,-0.00142961,0.00426547,0.00288175,0.00014414,-0.00126803,-0.02822593,
 -0.00519996,0.05099902,-0.11103206,-0.04037672,0.05372174,-0.01310929,
 -0.02380406,0.03519852,0.00763830,-0.00435479,-0.00210563,-0.00187889,
 0.00149003,0.00112131,-0.00253276,-0.00018826,0.00008229,-0.00037356,0
 .00006845,0.00011120,0.00051968,-0.00015122,-0.00025070,0.00085103,-0.
 00005144,-0.00055153,0.00036162,-0.00019346,0.00004791,-0.00008885,-0.
 00015166,0.00005768,0.00044620,0.00030604,-0.00065751,0.57798945,-0.02
 104759,-0.11500145,0.07653308,-0.00646865,-0.00163116,0.00658815,-0.01
 697296,-0.01957479,0.03626193,-0.00047661,0.00449834,-0.00005612,0.000
 63492,-0.00307724,0.00068881,-0.00032771,0.00268862,-0.00124737,-0.000
 21041,0.00151727,-0.00150793,0.00003125,0.00049513,-0.00049809,-0.0001
 6915,0.00039278,0.00012033,-0.00036335,0.00077572,-0.00074301,0.000139
 36,0.00001732,-0.00030912,0.12140496,0.15386732,0.01099450,0.06070742,
 -0.16269431,0.00536528,0.00224999,-0.00256734,0.00338467,0.01532300,-0
 .00876118,0.01520057,0.02369412,-0.04417973,0.00108343,0.00122991,-0.0
 0115168,-0.00045834,-0.00012745,-0.00089101,0.00021210,0.00013630,-0.0
 0030360,-0.00480671,-0.00588417,-0.00564540,0.00069232,0.00175522,-0.0
 0233829,-0.00001854,0.00012433,0.00023238,0.00039197,-0.00010556,0.000
 51386,0.04332963,-0.10832376,0.28518396,-0.02024708,-0.00419876,0.0014
 1714,0.00083186,-0.00282674,0.00221543,0.00087486,0.00113936,-0.001265
 70,0.00129828,0.00028131,-0.00209728,0.00140313,-0.00009945,0.00084367
 ,-0.00033020,0.00100396,0.00057268,-0.00054960,0.00019996,-0.00022516,
 -0.00123518,-0.00060451,-0.00063734,0.00016699,0.00019785,-0.00038274,
 0.00008077,0.00005894,0.00002970,0.00003665,-0.00009120,0.00025975,-0.
 46423231,-0.07671231,-0.07701205,0.48409218,-0.02746564,-0.00641429,0.
 00111715,0.00000534,-0.00137742,0.00192257,-0.00116584,-0.00045782,-0.
 00038941,0.00077426,0.00194373,0.00081159,0.00066518,0.00014385,-0.002
 53705,0.00079636,-0.00079429,-0.00044409,0.00019669,-0.00041950,0.0004
 0441,-0.00050346,-0.00017376,-0.00044000,0.00007113,0.00003353,-0.0001
 6687,0.00001587,-0.00026064,0.00016513,-0.00004432,-0.00013958,0.00016
 206,-0.05390506,-0.02655997,0.00782593,0.08039841,0.03633067,0.0388753
 2,0.00874267,0.00194533,0.00252125,0.00320925,-0.00528517,-0.00036644,
 0.00057793,0.00001120,0.00628517,0.00086678,-0.00216360,0.00352461,-0.
 00180660,-0.00136268,-0.00019738,-0.00016500,-0.00022425,-0.00076103,0
 .00030875,0.00042529,-0.00066949,0.00019159,0.00000968,-0.00002047,0.0
 0000171,-0.00006196,0.00011810,-0.00017727,0.00008891,-0.00033547,-0.0
 0029128,0.00043501,-0.12164357,-0.00282949,-0.05703758,0.07686616,-0.0
 0929142,0.05874577,-0.02963191,-0.00675595,-0.00300067,0.00167283,-0.0
 0256632,-0.00338394,0.00189706,-0.00139567,-0.00091409,-0.17466674,-0.
 07115869,0.00095918,-0.14038163,0.11749889,0.01425160,-0.00739982,0.00
 572727,-0.00005809,-0.00355795,0.00434521,0.00383412,-0.01770479,-0.00
 623823,0.00418211,0.00050434,0.00082615,0.00055990,0.00169962,-0.00166
 426,0.00014465,0.00196245,-0.00200443,0.00249799,0.00544144,0.00053824
 ,0.00164119,-0.00219034,0.00016107,-0.00419677,0.36235545,-0.02702226,
 -0.00285771,-0.00211431,-0.00025682,-0.00139069,-0.00370021,0.00150581
 ,0.00120715,0.00218994,-0.02745564,-0.05042360,0.00127303,0.06923085,-
 0.08792580,-0.00540339,0.02657223,-0.01372286,-0.00374832,0.02163331,-
 0.01240514,-0.00427868,-0.02987847,-0.00300052,0.00352063,0.00125059,0
 .00086671,-0.00102917,0.00136501,0.00195514,-0.00269049,-0.00079170,-0
 .00308705,0.00408719,-0.00009280,0.00159211,0.00139472,0.00125317,-0.0
 0185448,0.00066237,-0.03731329,0.17104674,-0.03037287,0.00295766,-0.00
 448837,-0.00160031,-0.00294498,-0.00489093,0.00133363,0.00058945,0.002
 33045,0.00609862,0.00699060,-0.05989364,0.01085281,-0.01175153,-0.0631
 2718,-0.02346469,0.00393298,0.00911499,0.03033208,-0.00830115,0.004640
 75,0.03223065,-0.00025551,0.00126490,-0.00011806,-0.00161963,0.0031394
 5,-0.00127703,-0.00050259,0.00178526,0.00154796,0.00488543,-0.00459017
 ,-0.00846134,-0.00467740,-0.00036008,-0.00058427,0.00086001,0.00447404
 ,-0.01651718,0.00983666,0.11060054\\-0.00003805,0.00002073,-0.00002612
 ,0.00001691,-0.00001064,0.00000471,0.00001076,-0.00001820,-0.00000499,
 -0.00002923,0.00002802,-0.00002941,-0.00011080,0.00000715,-0.00001265,
 -0.00002189,-0.00000897,0.00000296,0.00002923,0.00000633,0.00002247,-0
 .00000687,0.00002621,0.00002025,0.00000085,0.00000221,0.00000191,0.000
 00091,0.00000302,0.00000039,0.00000653,0.00000185,-0.00000284,-0.00001
 157,0.00000412,0.00002835,0.00003506,-0.00000684,0.00001119,0.00011816
 ,-0.00005499,-0.00001622\\\@


      THE ONE-EYED VIEW OF OUR UNIVERSE SAYS YOU MUST NOT LOOK
      FAR AFIELD FOR PROBLEMS.  SUCH PROBLEMS MAY NEVER ARRIVE. 
      INSTEAD, TEND TO THE WOLF WITHIN YOUR FENCES.
      THE PACKS RANGING OUTSIDE MAY NOT EVEN EXIST.

                              -- THE AZHAR BOOK SHAMRA I:4
                                 CHILDREN OF DUNE, BY FRANK HERBERT
 Job cpu time:  0 days  0 hours 28 minutes 31.7 seconds.
 File lengths (MBytes):  RWF=     39 Int=      0 D2E=      0 Chk=      7 Scr=      1
 Normal termination of Gaussian 03 at Mon Jun 10 10:08:32 2013.
