 Entering Gaussian System, Link 0=g03
 Input=rotor.gjf
 Output=rotor.log
 Initial command:
 /opt/g03/l1.exe /scratch/goldmanm/Gau-7534.inp -scrdir=/scratch/goldmanm/
 Entering Link 1 = /opt/g03/l1.exe PID=      7536.
  
 Copyright (c) 1988,1990,1992,1993,1995,1998,2003,2004, Gaussian, Inc.
                  All Rights Reserved.
  
 This is the Gaussian(R) 03 program.  It is based on the
 the Gaussian(R) 98 system (copyright 1998, Gaussian, Inc.),
 the Gaussian(R) 94 system (copyright 1995, Gaussian, Inc.),
 the Gaussian 92(TM) system (copyright 1992, Gaussian, Inc.),
 the Gaussian 90(TM) system (copyright 1990, Gaussian, Inc.),
 the Gaussian 88(TM) system (copyright 1988, Gaussian, Inc.),
 the Gaussian 86(TM) system (copyright 1986, Carnegie Mellon
 University), and the Gaussian 82(TM) system (copyright 1983,
 Carnegie Mellon University). Gaussian is a federally registered
 trademark of Gaussian, Inc.
  
 This software contains proprietary and confidential information,
 including trade secrets, belonging to Gaussian, Inc.
  
 This software is provided under written license and may be
 used, copied, transmitted, or stored only in accord with that
 written license.
  
 The following legend is applicable only to US Government
 contracts under FAR:
  
                    RESTRICTED RIGHTS LEGEND
  
 Use, reproduction and disclosure by the US Government is
 subject to restrictions as set forth in subparagraphs (a)
 and (c) of the Commercial Computer Software - Restricted
 Rights clause in FAR 52.227-19.
  
 Gaussian, Inc.
 340 Quinnipiac St., Bldg. 40, Wallingford CT 06492
  
  
 ---------------------------------------------------------------
 Warning -- This program may not be used in any manner that
 competes with the business of Gaussian, Inc. or will provide
 assistance to any competitor of Gaussian, Inc.  The licensee
 of this program is prohibited from giving any competitor of
 Gaussian, Inc. access to this program.  By using this program,
 the user acknowledges that Gaussian, Inc. is engaged in the
 business of creating and licensing software in the field of
 computational chemistry and represents and warrants to the
 licensee that it is not a competitor of Gaussian, Inc. and that
 it will not use this program in any manner prohibited above.
 ---------------------------------------------------------------
  

 Cite this work as:
 Gaussian 03, Revision D.01,
 M. J. Frisch, G. W. Trucks, H. B. Schlegel, G. E. Scuseria, 
 M. A. Robb, J. R. Cheeseman, J. A. Montgomery, Jr., T. Vreven, 
 K. N. Kudin, J. C. Burant, J. M. Millam, S. S. Iyengar, J. Tomasi, 
 V. Barone, B. Mennucci, M. Cossi, G. Scalmani, N. Rega, 
 G. A. Petersson, H. Nakatsuji, M. Hada, M. Ehara, K. Toyota, 
 R. Fukuda, J. Hasegawa, M. Ishida, T. Nakajima, Y. Honda, O. Kitao, 
 H. Nakai, M. Klene, X. Li, J. E. Knox, H. P. Hratchian, J. B. Cross, 
 V. Bakken, C. Adamo, J. Jaramillo, R. Gomperts, R. E. Stratmann, 
 O. Yazyev, A. J. Austin, R. Cammi, C. Pomelli, J. W. Ochterski, 
 P. Y. Ayala, K. Morokuma, G. A. Voth, P. Salvador, J. J. Dannenberg, 
 V. G. Zakrzewski, S. Dapprich, A. D. Daniels, M. C. Strain, 
 O. Farkas, D. K. Malick, A. D. Rabuck, K. Raghavachari, 
 J. B. Foresman, J. V. Ortiz, Q. Cui, A. G. Baboul, S. Clifford, 
 J. Cioslowski, B. B. Stefanov, G. Liu, A. Liashenko, P. Piskorz, 
 I. Komaromi, R. L. Martin, D. J. Fox, T. Keith, M. A. Al-Laham, 
 C. Y. Peng, A. Nanayakkara, M. Challacombe, P. M. W. Gill, 
 B. Johnson, W. Chen, M. W. Wong, C. Gonzalez, and J. A. Pople, 
 Gaussian, Inc., Wallingford CT, 2004.
 
 ******************************************
 Gaussian 03:  AM64L-G03RevD.01 13-Oct-2005
                18-Jul-2019 
 ******************************************
 %chk=input.chk
 %mem=3000mb
 %nproc=8
 Will use up to    8 processors via shared memory.
 ----------------------------------------------------------
 # opt=(ts,noeigentest,addred,calcfc) b3lyp/6-31g(d) nosymm
 ----------------------------------------------------------
 1/5=1,10=4,11=1,14=-1,18=120,26=3,38=1/1,3;
 2/9=110,15=1,17=6,18=5,40=1/2;
 3/5=1,6=6,7=1,11=2,16=1,25=1,30=1,74=-5/1,2,3;
 4//1;
 5/5=2,38=5/2;
 8/6=4,10=90,11=11/1;
 11/6=1,8=1,9=11,15=111,16=1,31=1/1,2,10;
 10/6=1,7=6,31=1/2;
 6/7=2,8=2,9=2,10=2,28=1/1;
 7/10=1,18=20,25=1,30=1/1,2,3,16;
 1/5=1,10=4,11=1,14=-1,18=20/3(3);
 2/9=110,15=1/2;
 6/7=2,8=2,9=2,10=2,19=2,28=1/1;
 99//99;
 2/9=110,15=1/2;
 3/5=1,6=6,7=1,11=2,16=1,25=1,30=1,74=-5/1,2,3;
 4/5=5,16=3/1;
 5/5=2,38=5/2;
 7/30=1/1,2,3,16;
 1/5=1,11=1,14=-1,18=20/3(-5);
 2/9=110,15=1/2;
 6/7=2,8=2,9=2,10=2,19=2,28=1/1;
 99/9=1/99;
 -------------
 83gAlkoxyIsom
 -------------
 Symbolic Z-matrix:
 Charge =  0 Multiplicity = 2
 C                    -0.48338   0.07157   0.14566 
 H                    -1.42862  -0.37361  -0.18608 
 H                     0.21979  -0.72593   0.39984 
 C                    -0.68648   1.00546   1.34413 
 H                     0.29257   1.42565   1.60139 
 C                    -1.2248    0.20288   2.53559 
 H                    -0.55316  -0.61799   2.79939 
 H                    -1.33171   0.8408    3.41707 
 H                    -2.20717  -0.2275    2.31585 
 C                    -1.62442   2.19158   1.04088 
 H                    -2.6368    1.83464   0.78625 
 H                    -1.74434   2.80547   1.94947 
 O                    -1.15777   3.07336   0.07034 
 O                     0.13379   0.72172  -0.97582 
 O                    -0.83244   1.51414  -1.61703 
 H                    -0.84193   2.4092   -1.0257 
 
 The following ModRedundant input section has been read:
 D    1    4    6    7 S  36 10.000                                            
 B   13   16 F                                                                 

 GradGradGradGradGradGradGradGradGradGradGradGradGradGradGradGradGradGrad
 Berny optimization.
 Initialization pass.
                           ----------------------------
                           !    Initial Parameters    !
                           ! (Angstroms and Degrees)  !
 --------------------------                            --------------------------
 ! Name  Definition              Value          Derivative Info.                !
 --------------------------------------------------------------------------------
 ! R1    R(1,2)                  1.0962         calculate D2E/DX2 analytically  !
 ! R2    R(1,3)                  1.0932         calculate D2E/DX2 analytically  !
 ! R3    R(1,4)                  1.5329         calculate D2E/DX2 analytically  !
 ! R4    R(1,14)                 1.4357         calculate D2E/DX2 analytically  !
 ! R5    R(4,5)                  1.096          calculate D2E/DX2 analytically  !
 ! R6    R(4,6)                  1.5341         calculate D2E/DX2 analytically  !
 ! R7    R(4,10)                 1.5423         calculate D2E/DX2 analytically  !
 ! R8    R(6,7)                  1.0929         calculate D2E/DX2 analytically  !
 ! R9    R(6,8)                  1.0933         calculate D2E/DX2 analytically  !
 ! R10   R(6,9)                  1.0948         calculate D2E/DX2 analytically  !
 ! R11   R(10,11)                1.1032         calculate D2E/DX2 analytically  !
 ! R12   R(10,12)                1.1031         calculate D2E/DX2 analytically  !
 ! R13   R(10,13)                1.3918         calculate D2E/DX2 analytically  !
 ! R14   R(13,16)                1.3199         frozen, calculate D2E/DX2 analyt!
 ! R15   R(14,15)                1.4045         calculate D2E/DX2 analytically  !
 ! R16   R(15,16)                1.0728         calculate D2E/DX2 analytically  !
 ! A1    A(2,1,3)              109.1923         calculate D2E/DX2 analytically  !
 ! A2    A(2,1,4)              111.7011         calculate D2E/DX2 analytically  !
 ! A3    A(2,1,14)             108.5523         calculate D2E/DX2 analytically  !
 ! A4    A(3,1,4)              110.3578         calculate D2E/DX2 analytically  !
 ! A5    A(3,1,14)             103.62           calculate D2E/DX2 analytically  !
 ! A6    A(4,1,14)             113.0655         calculate D2E/DX2 analytically  !
 ! A7    A(1,4,5)              107.3814         calculate D2E/DX2 analytically  !
 ! A8    A(1,4,6)              109.5713         calculate D2E/DX2 analytically  !
 ! A9    A(1,4,10)             113.2907         calculate D2E/DX2 analytically  !
 ! A10   A(5,4,6)              109.3735         calculate D2E/DX2 analytically  !
 ! A11   A(5,4,10)             107.1306         calculate D2E/DX2 analytically  !
 ! A12   A(6,4,10)             109.9775         calculate D2E/DX2 analytically  !
 ! A13   A(4,6,7)              111.3914         calculate D2E/DX2 analytically  !
 ! A14   A(4,6,8)              110.8071         calculate D2E/DX2 analytically  !
 ! A15   A(4,6,9)              111.3859         calculate D2E/DX2 analytically  !
 ! A16   A(7,6,8)              107.6813         calculate D2E/DX2 analytically  !
 ! A17   A(7,6,9)              107.7345         calculate D2E/DX2 analytically  !
 ! A18   A(8,6,9)              107.665          calculate D2E/DX2 analytically  !
 ! A19   A(4,10,11)            110.7701         calculate D2E/DX2 analytically  !
 ! A20   A(4,10,12)            109.4001         calculate D2E/DX2 analytically  !
 ! A21   A(4,10,13)            114.8628         calculate D2E/DX2 analytically  !
 ! A22   A(11,10,12)           105.6883         calculate D2E/DX2 analytically  !
 ! A23   A(11,10,13)           110.591          calculate D2E/DX2 analytically  !
 ! A24   A(12,10,13)           104.9654         calculate D2E/DX2 analytically  !
 ! A25   A(1,14,15)            108.4439         calculate D2E/DX2 analytically  !
 ! A26   A(14,15,16)           103.0129         calculate D2E/DX2 analytically  !
 ! D1    D(2,1,4,5)           -178.7743         calculate D2E/DX2 analytically  !
 ! D2    D(2,1,4,6)             62.5275         calculate D2E/DX2 analytically  !
 ! D3    D(2,1,4,10)           -60.6895         calculate D2E/DX2 analytically  !
 ! D4    D(3,1,4,5)             59.5535         calculate D2E/DX2 analytically  !
 ! D5    D(3,1,4,6)            -59.1447         calculate D2E/DX2 analytically  !
 ! D6    D(3,1,4,10)           177.6382         calculate D2E/DX2 analytically  !
 ! D7    D(14,1,4,5)           -55.9775         calculate D2E/DX2 analytically  !
 ! D8    D(14,1,4,6)          -174.6757         calculate D2E/DX2 analytically  !
 ! D9    D(14,1,4,10)           62.1073         calculate D2E/DX2 analytically  !
 ! D10   D(2,1,14,15)           47.9045         calculate D2E/DX2 analytically  !
 ! D11   D(3,1,14,15)          163.8878         calculate D2E/DX2 analytically  !
 ! D12   D(4,1,14,15)          -76.6253         calculate D2E/DX2 analytically  !
 ! D13   D(1,4,6,7)             57.4154         Scan                            !
 ! D14   D(1,4,6,8)            177.2705         calculate D2E/DX2 analytically  !
 ! D15   D(1,4,6,9)            -62.8986         calculate D2E/DX2 analytically  !
 ! D16   D(5,4,6,7)            -60.0422         calculate D2E/DX2 analytically  !
 ! D17   D(5,4,6,8)             59.8129         calculate D2E/DX2 analytically  !
 ! D18   D(5,4,6,9)            179.6438         calculate D2E/DX2 analytically  !
 ! D19   D(10,4,6,7)          -177.4325         calculate D2E/DX2 analytically  !
 ! D20   D(10,4,6,8)           -57.5774         calculate D2E/DX2 analytically  !
 ! D21   D(10,4,6,9)            62.2535         calculate D2E/DX2 analytically  !
 ! D22   D(1,4,10,11)           62.5272         calculate D2E/DX2 analytically  !
 ! D23   D(1,4,10,12)          178.6419         calculate D2E/DX2 analytically  !
 ! D24   D(1,4,10,13)          -63.652          calculate D2E/DX2 analytically  !
 ! D25   D(5,4,10,11)         -179.2425         calculate D2E/DX2 analytically  !
 ! D26   D(5,4,10,12)          -63.1278         calculate D2E/DX2 analytically  !
 ! D27   D(5,4,10,13)           54.5783         calculate D2E/DX2 analytically  !
 ! D28   D(6,4,10,11)          -60.4658         calculate D2E/DX2 analytically  !
 ! D29   D(6,4,10,12)           55.6489         calculate D2E/DX2 analytically  !
 ! D30   D(6,4,10,13)          173.355          calculate D2E/DX2 analytically  !
 ! D31   D(1,14,15,16)          82.0533         calculate D2E/DX2 analytically  !
 --------------------------------------------------------------------------------
 Trust Radius=3.00D-01 FncErr=1.00D-07 GrdErr=1.00D-06
 Number of optimizations in scan=  37
 Number of steps in this run=  83 maximum allowed number of steps= 100.
 Search for a saddle point of order  1.
 GradGradGradGradGradGradGradGradGradGradGradGradGradGradGradGradGradGrad

                          Input orientation:                          
 ---------------------------------------------------------------------
 Center     Atomic     Atomic              Coordinates (Angstroms)
 Number     Number      Type              X           Y           Z
 ---------------------------------------------------------------------
    1          6             0       -0.483378    0.071565    0.145659
    2          1             0       -1.428615   -0.373610   -0.186077
    3          1             0        0.219785   -0.725932    0.399843
    4          6             0       -0.686475    1.005458    1.344132
    5          1             0        0.292566    1.425652    1.601390
    6          6             0       -1.224801    0.202880    2.535593
    7          1             0       -0.553164   -0.617990    2.799385
    8          1             0       -1.331711    0.840803    3.417068
    9          1             0       -2.207165   -0.227500    2.315854
   10          6             0       -1.624420    2.191584    1.040877
   11          1             0       -2.636795    1.834638    0.786251
   12          1             0       -1.744341    2.805474    1.949474
   13          8             0       -1.157774    3.073364    0.070336
   14          8             0        0.133785    0.721715   -0.975823
   15          8             0       -0.832441    1.514135   -1.617027
   16          1             0       -0.841933    2.409201   -1.025702
 ---------------------------------------------------------------------
                    Distance matrix (angstroms):
                    1          2          3          4          5
     1  C    0.000000
     2  H    1.096222   0.000000
     3  H    1.093183   1.784560   0.000000
     4  C    1.532887   2.189552   2.170415   0.000000
     5  H    2.134196   3.065101   2.465426   1.096023   0.000000
     6  C    2.505741   2.789510   2.740611   1.534114   2.161090
     7  H    2.742739   3.120756   2.523272   2.184289   2.515338
     8  H    3.466051   3.803530   3.737037   2.177270   2.505396
     9  H    2.787585   2.624337   3.132031   2.185618   3.080913
    10  C    2.568632   2.850259   3.510544   1.542271   2.139080
    11  H    2.855869   2.698422   3.855630   2.191465   3.068041
    12  H    3.509706   3.842764   4.327814   2.173839   2.484766
    13  O    3.077545   3.467093   4.054737   2.474048   2.676297
    14  O    1.435725   2.065074   1.998883   2.477000   2.676334
    15  O    2.304325   2.442667   3.192623   3.008076   3.410525
    16  H    2.639165   2.965334   3.603954   2.758763   3.025900
                    6          7          8          9         10
     6  C    0.000000
     7  H    1.092936   0.000000
     8  H    1.093331   1.765147   0.000000
     9  H    1.094784   1.766919   1.766455   0.000000
    10  C    2.519685   3.483338   2.748922   2.795912   0.000000
    11  H    2.777869   3.795999   3.100347   2.603206   1.103244
    12  H    2.717895   3.723084   2.486771   3.089882   1.103082
    13  O    3.784397   4.630265   4.026810   4.127866   1.391849
    14  O    3.800656   4.064345   4.632424   4.149240   3.052684
    15  O    4.372367   4.912092   5.103407   4.515608   2.854929
    16  H    4.206811   4.886570   4.736872   4.470128   2.220449
                   11         12         13         14         15
    11  H    0.000000
    12  H    1.758432   0.000000
    13  O    2.057785   1.986702   0.000000
    14  O    3.466932   4.052995   2.879727   0.000000
    15  O    3.022277   3.901160   2.320394   1.404516   0.000000
    16  H    2.614350   3.134174   1.319912   1.949903   1.072799
                   16
    16  H    0.000000
 Symmetry turned off by external request.
 Stoichiometry    C4H9O3(2)
 Framework group  C1[X(C4H9O3)]
 Deg. of freedom    42
 Full point group                 C1
 Rotational constants (GHZ):      3.6809826      2.2614478      1.5276428
 Standard basis: 6-31G(d) (6D, 7F)
 Integral buffers will be    131072 words long.
 Raffenetti 2 integral format.
 Two-electron integral symmetry is turned off.
   123 basis functions,   232 primitive gaussians,   123 cartesian basis functions
    29 alpha electrons       28 beta electrons
       nuclear repulsion energy       335.7326224353 Hartrees.
 NAtoms=   16 NActive=   16 NUniq=   16 SFac= 7.50D-01 NAtFMM=   80 NAOKFM=F Big=F
 One-electron integrals computed using PRISM.
 NBasis=   123 RedAO= T  NBF=   123
 NBsUse=   123 1.00D-06 NBFU=   123
 Harris functional with IExCor=  402 diagonalized for initial guess.
 ExpMin= 1.61D-01 ExpMax= 5.48D+03 ExpMxC= 8.25D+02 IAcc=1 IRadAn=         1 AccDes= 1.00D-06
 HarFok:  IExCor= 402 AccDes= 1.00D-06 IRadAn=         1 IDoV=1
 ScaDFX=  1.000000  1.000000  1.000000  1.000000
 <S**2> of initial guess= 0.7500
 Requested convergence on RMS density matrix=1.00D-08 within 128 cycles.
 Requested convergence on MAX density matrix=1.00D-06.
 Requested convergence on             energy=1.00D-06.
 No special actions if energy rises.
 Keep R1 and R2 integrals in memory in canonical form, NReq=    60141279.
 Integral accuracy reduced to 1.0D-05 until final iterations.
 EnCoef did     3 forward-backward iterations
 EnCoef did     2 forward-backward iterations
 Initial convergence to 1.0D-05 achieved.  Increase integral accuracy.
 SCF Done:  E(UB+HF-LYP) =  -383.333272043     A.U. after   29 cycles
             Convg  =    0.4781D-08             -V/T =  2.0088
             S**2   =   0.7560
 Annihilation of the first spin contaminant:
 S**2 before annihilation     0.7560,   after     0.7500
 Range of M.O.s used for correlation:     1   123
 NBasis=   123 NAE=    29 NBE=    28 NFC=     0 NFV=     0
 NROrb=    123 NOA=    29 NOB=    28 NVA=    94 NVB=    95
 Symmetrizing basis deriv contribution to polar:
 IMax=3 JMax=2 DiffMx= 0.00D+00
 G2DrvN: will do   17 centers at a time, making    1 passes doing MaxLOS=2.
 FoFDir/FoFCou used for L=0 through L=2.
 DoAtom=TTTTTTTTTTTTTTTT
          Differentiating once with respect to electric field.
                with respect to dipole field.
          Differentiating once with respect to nuclear coordinates.
          Store integrals in memory, NReq=    58988043.
          There are  51 degrees of freedom in the 1st order CPHF.
    48 vectors were produced by pass  0.
 AX will form  48 AO Fock derivatives at one time.
    48 vectors were produced by pass  1.
    48 vectors were produced by pass  2.
    48 vectors were produced by pass  3.
    41 vectors were produced by pass  4.
     5 vectors were produced by pass  5.
     3 vectors were produced by pass  6.
     1 vectors were produced by pass  7.
 Inv2:  IOpt= 1 Iter= 1 AM= 3.23D-15 Conv= 1.00D-12.
 Inverted reduced A of dimension  242 with in-core refinement.
 Isotropic polarizability for W=    0.000000       63.88 Bohr**3.
 End of Minotr Frequency-dependent properties file   721 does not exist.

 **********************************************************************

            Population analysis using the SCF density.

 **********************************************************************

 Alpha  occ. eigenvalues --  -19.22620 -19.21494 -19.18571 -10.24727 -10.24720
 Alpha  occ. eigenvalues --  -10.20766 -10.19671  -1.14565  -1.02725  -0.90749
 Alpha  occ. eigenvalues --   -0.80582  -0.69033  -0.68132  -0.59100  -0.55419
 Alpha  occ. eigenvalues --   -0.51736  -0.48408  -0.46918  -0.44906  -0.43585
 Alpha  occ. eigenvalues --   -0.43080  -0.40191  -0.38472  -0.38064  -0.35969
 Alpha  occ. eigenvalues --   -0.31999  -0.29335  -0.28471  -0.27628
 Alpha virt. eigenvalues --    0.04698   0.07611   0.10647   0.11439   0.11759
 Alpha virt. eigenvalues --    0.15011   0.16030   0.16534   0.17661   0.19694
 Alpha virt. eigenvalues --    0.20384   0.22468   0.23144   0.25948   0.27729
 Alpha virt. eigenvalues --    0.49925   0.51468   0.52025   0.53382   0.54853
 Alpha virt. eigenvalues --    0.62002   0.63579   0.64721   0.66468   0.67666
 Alpha virt. eigenvalues --    0.70588   0.71487   0.79619   0.81256   0.82303
 Alpha virt. eigenvalues --    0.83386   0.86324   0.87693   0.89110   0.89462
 Alpha virt. eigenvalues --    0.90503   0.91223   0.95091   0.96106   0.99870
 Alpha virt. eigenvalues --    1.02448   1.05387   1.07892   1.11990   1.16927
 Alpha virt. eigenvalues --    1.23991   1.27657   1.30111   1.39243   1.41164
 Alpha virt. eigenvalues --    1.45527   1.49795   1.54099   1.58601   1.62269
 Alpha virt. eigenvalues --    1.65152   1.66975   1.72676   1.77536   1.82001
 Alpha virt. eigenvalues --    1.86921   1.87422   1.89947   1.92462   1.94690
 Alpha virt. eigenvalues --    1.96389   1.98882   2.03352   2.07645   2.09290
 Alpha virt. eigenvalues --    2.14035   2.20369   2.22206   2.26438   2.29552
 Alpha virt. eigenvalues --    2.34725   2.38797   2.45040   2.49435   2.56364
 Alpha virt. eigenvalues --    2.58678   2.64981   2.69084   2.77883   2.81680
 Alpha virt. eigenvalues --    2.89756   3.04151   3.69068   3.79154   3.91446
 Alpha virt. eigenvalues --    4.16101   4.28844   4.36259   4.59387
  Beta  occ. eigenvalues --  -19.22349 -19.20697 -19.16921 -10.24755 -10.24733
  Beta  occ. eigenvalues --  -10.20742 -10.19667  -1.13443  -0.99130  -0.89471
  Beta  occ. eigenvalues --   -0.80136  -0.68645  -0.67497  -0.58779  -0.53657
  Beta  occ. eigenvalues --   -0.50706  -0.48043  -0.46174  -0.43149  -0.42931
  Beta  occ. eigenvalues --   -0.41565  -0.39886  -0.37822  -0.36836  -0.35614
  Beta  occ. eigenvalues --   -0.28806  -0.27354  -0.26739
  Beta virt. eigenvalues --   -0.16299   0.05404   0.07694   0.10879   0.11514
  Beta virt. eigenvalues --    0.11917   0.15148   0.16187   0.16587   0.17959
  Beta virt. eigenvalues --    0.20103   0.20620   0.22569   0.23359   0.26022
  Beta virt. eigenvalues --    0.28890   0.50071   0.51607   0.52251   0.53475
  Beta virt. eigenvalues --    0.55015   0.62122   0.63741   0.65884   0.66734
  Beta virt. eigenvalues --    0.67893   0.70716   0.71970   0.80176   0.81859
  Beta virt. eigenvalues --    0.82939   0.84007   0.86645   0.88128   0.89291
  Beta virt. eigenvalues --    0.89620   0.90829   0.91319   0.95503   0.96305
  Beta virt. eigenvalues --    1.00567   1.03118   1.06262   1.08746   1.12859
  Beta virt. eigenvalues --    1.17425   1.25694   1.28322   1.30708   1.39581
  Beta virt. eigenvalues --    1.41840   1.46280   1.50367   1.54399   1.59458
  Beta virt. eigenvalues --    1.62799   1.65807   1.67456   1.74049   1.79173
  Beta virt. eigenvalues --    1.82915   1.87168   1.88793   1.91077   1.93945
  Beta virt. eigenvalues --    1.95120   1.96608   1.99556   2.03667   2.08138
  Beta virt. eigenvalues --    2.09684   2.14517   2.20515   2.22704   2.26707
  Beta virt. eigenvalues --    2.29834   2.36089   2.39562   2.45426   2.49546
  Beta virt. eigenvalues --    2.56670   2.59102   2.65716   2.69375   2.78051
  Beta virt. eigenvalues --    2.81959   2.90934   3.04632   3.70007   3.80839
  Beta virt. eigenvalues --    3.92549   4.16186   4.28863   4.36349   4.59431
          Condensed to atoms (all electrons):
              1          2          3          4          5          6
     1  C    4.914111   0.350143   0.367392   0.369277  -0.046423  -0.043486
     2  H    0.350143   0.596072  -0.029276  -0.052214   0.006442   0.000394
     3  H    0.367392  -0.029276   0.569352  -0.042779  -0.004894  -0.001724
     4  C    0.369277  -0.052214  -0.042779   5.107630   0.362040   0.308061
     5  H   -0.046423   0.006442  -0.004894   0.362040   0.600356  -0.031312
     6  C   -0.043486   0.000394  -0.001724   0.308061  -0.031312   5.148311
     7  H   -0.003108  -0.000218   0.004521  -0.027070  -0.003727   0.371572
     8  H    0.004162  -0.000166  -0.000111  -0.028108  -0.003867   0.371448
     9  H   -0.006177   0.004687  -0.000390  -0.034553   0.005364   0.374641
    10  C   -0.036905  -0.006304   0.004974   0.345646  -0.044647  -0.037517
    11  H   -0.008022   0.005688  -0.000108  -0.059141   0.006689   0.002705
    12  H    0.004784  -0.000130  -0.000111  -0.039085  -0.005461  -0.004284
    13  O   -0.002679  -0.000377  -0.000008  -0.043831   0.003791   0.003163
    14  O    0.197879  -0.031382  -0.029239  -0.036290   0.003733   0.002747
    15  O   -0.041596   0.005303   0.004713  -0.010093  -0.000455   0.000121
    16  H    0.001491  -0.000320  -0.000635   0.003579   0.000324  -0.000192
              7          8          9         10         11         12
     1  C   -0.003108   0.004162  -0.006177  -0.036905  -0.008022   0.004784
     2  H   -0.000218  -0.000166   0.004687  -0.006304   0.005688  -0.000130
     3  H    0.004521  -0.000111  -0.000390   0.004974  -0.000108  -0.000111
     4  C   -0.027070  -0.028108  -0.034553   0.345646  -0.059141  -0.039085
     5  H   -0.003727  -0.003867   0.005364  -0.044647   0.006689  -0.005461
     6  C    0.371572   0.371448   0.374641  -0.037517   0.002705  -0.004284
     7  H    0.558309  -0.028543  -0.031064   0.003791  -0.000240  -0.000106
     8  H   -0.028543   0.558407  -0.030854  -0.003511  -0.000435   0.005930
     9  H   -0.031064  -0.030854   0.566929  -0.005924   0.005329  -0.000463
    10  C    0.003791  -0.003511  -0.005924   4.877028   0.351671   0.362742
    11  H   -0.000240  -0.000435   0.005329   0.351671   0.627172  -0.039396
    12  H   -0.000106   0.005930  -0.000463   0.362742  -0.039396   0.580683
    13  O   -0.000061   0.000000   0.000006   0.226749  -0.035767  -0.032360
    14  O    0.000014  -0.000060   0.000007  -0.004709   0.000135  -0.000175
    15  O    0.000000   0.000001  -0.000011   0.021819  -0.000795   0.000295
    16  H    0.000002   0.000005   0.000010  -0.026244   0.000676   0.001931
             13         14         15         16
     1  C   -0.002679   0.197879  -0.041596   0.001491
     2  H   -0.000377  -0.031382   0.005303  -0.000320
     3  H   -0.000008  -0.029239   0.004713  -0.000635
     4  C   -0.043831  -0.036290  -0.010093   0.003579
     5  H    0.003791   0.003733  -0.000455   0.000324
     6  C    0.003163   0.002747   0.000121  -0.000192
     7  H   -0.000061   0.000014   0.000000   0.000002
     8  H    0.000000  -0.000060   0.000001   0.000005
     9  H    0.000006   0.000007  -0.000011   0.000010
    10  C    0.226749  -0.004709   0.021819  -0.026244
    11  H   -0.035767   0.000135  -0.000795   0.000676
    12  H   -0.032360  -0.000175   0.000295   0.001931
    13  O    8.292836   0.000837  -0.055646   0.104260
    14  O    0.000837   8.091601   0.071538  -0.020184
    15  O   -0.055646   0.071538   8.222732   0.142251
    16  H    0.104260  -0.020184   0.142251   0.323453
 Mulliken atomic charges:
              1
     1  C   -0.020842
     2  H    0.151659
     3  H    0.158323
     4  C   -0.123068
     5  H    0.152047
     6  C   -0.464647
     7  H    0.155930
     8  H    0.155702
     9  H    0.152463
    10  C   -0.028659
    11  H    0.143838
    12  H    0.165205
    13  O   -0.460914
    14  O   -0.246453
    15  O   -0.360178
    16  H    0.469593
 Sum of Mulliken charges=   0.00000
 Atomic charges with hydrogens summed into heavy atoms:
              1
     1  C    0.289141
     2  H    0.000000
     3  H    0.000000
     4  C    0.028979
     5  H    0.000000
     6  C   -0.000552
     7  H    0.000000
     8  H    0.000000
     9  H    0.000000
    10  C    0.280384
    11  H    0.000000
    12  H    0.000000
    13  O   -0.460914
    14  O   -0.246453
    15  O    0.109415
    16  H    0.000000
 Sum of Mulliken charges=   0.00000
          Atomic-Atomic Spin Densities.
              1          2          3          4          5          6
     1  C    0.002032   0.004309  -0.000461  -0.012729  -0.000911   0.003511
     2  H    0.004309   0.002304  -0.000473  -0.003291  -0.000201   0.000718
     3  H   -0.000461  -0.000473  -0.001502   0.001467   0.000123  -0.000330
     4  C   -0.012729  -0.003291   0.001467   0.021165   0.003358  -0.005096
     5  H   -0.000911  -0.000201   0.000123   0.003358  -0.000925  -0.001412
     6  C    0.003511   0.000718  -0.000330  -0.005096  -0.001412   0.005567
     7  H   -0.000154  -0.000029   0.000004   0.000279   0.000019   0.000101
     8  H   -0.000057   0.000005   0.000003   0.000223   0.000157   0.000552
     9  H    0.000026  -0.000051   0.000002   0.000086  -0.000029   0.000022
    10  C   -0.002069  -0.000023  -0.000008   0.009733   0.000566   0.000132
    11  H   -0.001352  -0.000930   0.000029   0.006254   0.000098  -0.001784
    12  H    0.000720   0.000102  -0.000013  -0.002895  -0.000652   0.001599
    13  O    0.003045   0.000484  -0.000030  -0.005378  -0.000471   0.000105
    14  O    0.002227  -0.000240   0.000505  -0.003567  -0.001125   0.000153
    15  O   -0.003254  -0.000797  -0.000015   0.003920   0.000231  -0.000110
    16  H    0.000437   0.000397  -0.000009  -0.000186   0.000148   0.000049
              7          8          9         10         11         12
     1  C   -0.000154  -0.000057   0.000026  -0.002069  -0.001352   0.000720
     2  H   -0.000029   0.000005  -0.000051  -0.000023  -0.000930   0.000102
     3  H    0.000004   0.000003   0.000002  -0.000008   0.000029  -0.000013
     4  C    0.000279   0.000223   0.000086   0.009733   0.006254  -0.002895
     5  H    0.000019   0.000157  -0.000029   0.000566   0.000098  -0.000652
     6  C    0.000101   0.000552   0.000022   0.000132  -0.001784   0.001599
     7  H   -0.000785   0.000078   0.000017  -0.000009   0.000006  -0.000014
     8  H    0.000078  -0.000567   0.000088  -0.000168   0.000106  -0.000382
     9  H    0.000017   0.000088  -0.000229   0.000001  -0.000049   0.000005
    10  C   -0.000009  -0.000168   0.000001  -0.029876   0.006875   0.011525
    11  H    0.000006   0.000106  -0.000049   0.006875   0.024975  -0.008178
    12  H   -0.000014  -0.000382   0.000005   0.011525  -0.008178   0.057404
    13  O    0.000000   0.000005  -0.000002  -0.028026  -0.006535  -0.010123
    14  O   -0.000003   0.000001  -0.000002  -0.001100  -0.000348   0.000159
    15  O    0.000000   0.000000   0.000001   0.003925   0.001891  -0.000398
    16  H    0.000000  -0.000003   0.000001  -0.000297   0.000460  -0.000194
             13         14         15         16
     1  C    0.003045   0.002227  -0.003254   0.000437
     2  H    0.000484  -0.000240  -0.000797   0.000397
     3  H   -0.000030   0.000505  -0.000015  -0.000009
     4  C   -0.005378  -0.003567   0.003920  -0.000186
     5  H   -0.000471  -0.001125   0.000231   0.000148
     6  C    0.000105   0.000153  -0.000110   0.000049
     7  H    0.000000  -0.000003   0.000000   0.000000
     8  H    0.000005   0.000001   0.000000  -0.000003
     9  H   -0.000002  -0.000002   0.000001   0.000001
    10  C   -0.028026  -0.001100   0.003925  -0.000297
    11  H   -0.006535  -0.000348   0.001891   0.000460
    12  H   -0.010123   0.000159  -0.000398  -0.000194
    13  O    0.725450   0.006089  -0.044144  -0.009722
    14  O    0.006089   0.119989  -0.033099   0.002529
    15  O   -0.044144  -0.033099   0.337908   0.003623
    16  H   -0.009722   0.002529   0.003623  -0.043624
 Mulliken atomic spin densities:
              1
     1  C   -0.004680
     2  H    0.002284
     3  H   -0.000707
     4  C    0.013341
     5  H   -0.001024
     6  C    0.003776
     7  H   -0.000489
     8  H    0.000043
     9  H   -0.000112
    10  C   -0.028820
    11  H    0.021518
    12  H    0.048663
    13  O    0.630748
    14  O    0.092168
    15  O    0.269682
    16  H   -0.046391
 Sum of Mulliken spin densities=   1.00000
 APT atomic charges:
              1
     1  C    0.415726
     2  H   -0.030284
     3  H   -0.011145
     4  C   -0.015358
     5  H   -0.046150
     6  C    0.117157
     7  H   -0.016158
     8  H   -0.016233
     9  H   -0.016266
    10  C    0.272141
    11  H   -0.011204
    12  H    0.027061
    13  O   -0.165533
    14  O   -0.392760
    15  O    0.101403
    16  H   -0.212396
 Sum of APT charges=   0.00000
 APT Atomic charges with hydrogens summed into heavy atoms:
              1
     1  C    0.374296
     2  H    0.000000
     3  H    0.000000
     4  C   -0.061508
     5  H    0.000000
     6  C    0.068500
     7  H    0.000000
     8  H    0.000000
     9  H    0.000000
    10  C    0.287998
    11  H    0.000000
    12  H    0.000000
    13  O   -0.165533
    14  O   -0.392760
    15  O   -0.110993
    16  H    0.000000
 Sum of APT charges=   0.00000
 Electronic spatial extent (au):  <R**2>=  1301.1539
 Charge=     0.0000 electrons
 Dipole moment (field-independent basis, Debye):
    X=    -0.7721    Y=    -1.5509    Z=     3.1276  Tot=     3.5754
 Quadrupole moment (field-independent basis, Debye-Ang):
   XX=   -41.2392   YY=   -46.9070   ZZ=   -42.5865
   XY=     0.1338   XZ=    -2.2098   YZ=     3.6493
 Traceless Quadrupole moment (field-independent basis, Debye-Ang):
   XX=     2.3384   YY=    -3.3294   ZZ=     0.9910
   XY=     0.1338   XZ=    -2.2098   YZ=     3.6493
 Octapole moment (field-independent basis, Debye-Ang**2):
  XXX=   109.5805  YYY=  -171.3094  ZZZ=   -53.4993  XYY=    41.9029
  XXY=   -50.7446  XXZ=   -17.1265  XZZ=    35.8075  YZZ=   -46.5145
  YYZ=   -15.4129  XYZ=    -4.9635
 Hexadecapole moment (field-independent basis, Debye-Ang**3):
 XXXX=  -329.6970 YYYY=  -770.8721 ZZZZ=  -582.1252 XXXY=   166.4516
 XXXZ=    97.8714 YYYX=   189.2864 YYYZ=   -20.5910 ZZZX=    95.1121
 ZZZY=   -12.6703 XXYY=  -176.1969 XXZZ=  -151.4559 YYZZ=  -194.5034
 XXYZ=    -2.4329 YYXZ=    24.5693 ZZXY=    46.6887
 N-N= 3.357326224353D+02 E-N=-1.568373644666D+03  KE= 3.800045088266D+02
  Exact polarizability:  51.354 -10.878  69.979  -7.995   8.211  70.299
 Approx polarizability:  78.908 -20.231 110.561 -12.251  20.857 102.929
                          Isotropic Fermi Contact Couplings
        Atom                 a.u.       MegaHertz       Gauss      10(-4) cm-1
     1  C(13)              0.00103       1.15428       0.41187       0.38503
     2  H(1)               0.00159       7.10078       2.53373       2.36856
     3  H(1)              -0.00038      -1.70454      -0.60822      -0.56857
     4  C(13)              0.01344      15.11328       5.39279       5.04125
     5  H(1)              -0.00012      -0.52653      -0.18788      -0.17563
     6  C(13)             -0.00024      -0.26703      -0.09528      -0.08907
     7  H(1)              -0.00018      -0.78805      -0.28120      -0.26287
     8  H(1)               0.00055       2.46140       0.87829       0.82104
     9  H(1)               0.00004       0.17886       0.06382       0.05966
    10  C(13)             -0.01751     -19.67989      -7.02227      -6.56451
    11  H(1)               0.01047      46.81465      16.70463      15.61569
    12  H(1)               0.02703     120.82592      43.11369      40.30319
    13  O(17)              0.05598     -33.93375     -12.10841     -11.31908
    14  O(17)              0.02169     -13.15100      -4.69261      -4.38670
    15  O(17)             -0.00806       4.88861       1.74438       1.63067
    16  H(1)              -0.02296    -102.63110     -36.62133     -34.23405
 --------------------------------------------------------
       Center         ----  Spin Dipole Couplings  ----
                      3XX-RR        3YY-RR        3ZZ-RR
 --------------------------------------------------------
     1   Atom       -0.006042      0.004989      0.001052
     2   Atom       -0.003087      0.005724     -0.002637
     3   Atom       -0.003369      0.003282      0.000087
     4   Atom       -0.010124     -0.002890      0.013014
     5   Atom       -0.000738     -0.001359      0.002097
     6   Atom       -0.004989     -0.001560      0.006548
     7   Atom       -0.001524      0.000871      0.000652
     8   Atom       -0.002639      0.000456      0.002183
     9   Atom       -0.001392      0.001184      0.000207
    10   Atom       -0.026334      0.009651      0.016683
    11   Atom        0.008702     -0.002508     -0.006194
    12   Atom       -0.010650     -0.005246      0.015896
    13   Atom       -1.130703      0.568216      0.562487
    14   Atom       -0.249815      0.189640      0.060175
    15   Atom       -0.603351      0.004516      0.598836
    16   Atom       -0.083148      0.044242      0.038906
 --------------------------------------------------------
                        XY            XZ            YZ
 --------------------------------------------------------
     1   Atom       -0.001328     -0.001342     -0.006516
     2   Atom        0.003382     -0.002262     -0.003088
     3   Atom       -0.002165      0.000835     -0.003951
     4   Atom       -0.003017      0.006068     -0.010642
     5   Atom       -0.004544      0.005317     -0.003484
     6   Atom       -0.000394     -0.001072     -0.003154
     7   Atom       -0.000776      0.000290     -0.001958
     8   Atom       -0.000188     -0.000128     -0.002270
     9   Atom        0.001319     -0.001172     -0.002394
    10   Atom        0.016632     -0.004644      0.001998
    11   Atom        0.009196     -0.007435     -0.004111
    12   Atom        0.000095     -0.009589      0.001112
    13   Atom        0.408936      0.402896      1.774912
    14   Atom        0.023268     -0.005922      0.343817
    15   Atom       -0.074617     -0.087742      0.872702
    16   Atom       -0.024477     -0.039088      0.118848
 --------------------------------------------------------


 ---------------------------------------------------------------------------------
              Anisotropic Spin Dipole Couplings in Principal Axis System
 ---------------------------------------------------------------------------------

       Atom             a.u.   MegaHertz   Gauss  10(-4) cm-1        Axes

              Baa    -0.0071    -0.953    -0.340    -0.318  0.8709  0.3039  0.3862
     1 C(13)  Bbb    -0.0027    -0.367    -0.131    -0.122 -0.4911  0.5109  0.7055
              Bcc     0.0098     1.319     0.471     0.440 -0.0171  0.8041 -0.5942
 
              Baa    -0.0052    -2.756    -0.983    -0.919  0.7833 -0.0681  0.6179
     2 H(1)   Bbb    -0.0030    -1.578    -0.563    -0.526 -0.5252  0.4593  0.7164
              Bcc     0.0081     4.334     1.547     1.446  0.3326  0.8857 -0.3240
 
              Baa    -0.0041    -2.167    -0.773    -0.723  0.9233  0.3532  0.1506
     3 H(1)   Bbb    -0.0024    -1.284    -0.458    -0.428 -0.3114  0.4593  0.8319
              Bcc     0.0065     3.451     1.231     1.151 -0.2247  0.8150 -0.5341
 
              Baa    -0.0117    -1.564    -0.558    -0.522  0.9754  0.0933 -0.1997
     4 C(13)  Bbb    -0.0082    -1.103    -0.394    -0.368  0.0059  0.8947  0.4467
              Bcc     0.0199     2.667     0.952     0.890  0.2203 -0.4368  0.8721
 
              Baa    -0.0059    -3.153    -1.125    -1.052  0.7764  0.5708 -0.2672
     5 H(1)   Bbb    -0.0032    -1.724    -0.615    -0.575 -0.2554  0.6725  0.6946
              Bcc     0.0091     4.877     1.740     1.627  0.5762 -0.4710  0.6679
 
              Baa    -0.0052    -0.704    -0.251    -0.235  0.9617  0.2301  0.1490
     6 C(13)  Bbb    -0.0024    -0.328    -0.117    -0.109 -0.2651  0.9193  0.2909
              Bcc     0.0077     1.032     0.368     0.344 -0.0700 -0.3192  0.9451
 
              Baa    -0.0018    -0.971    -0.346    -0.324  0.8776  0.4205  0.2301
     7 H(1)   Bbb    -0.0010    -0.554    -0.198    -0.185 -0.4472  0.5454  0.7089
              Bcc     0.0029     1.524     0.544     0.508 -0.1726  0.7250 -0.6667
 
              Baa    -0.0027    -1.425    -0.509    -0.475  0.9896  0.1187  0.0817
     8 H(1)   Bbb    -0.0011    -0.574    -0.205    -0.191 -0.1441  0.8147  0.5617
              Bcc     0.0037     1.999     0.713     0.667  0.0001 -0.5677  0.8233
 
              Baa    -0.0020    -1.075    -0.384    -0.359  0.9156 -0.0830  0.3935
     9 H(1)   Bbb    -0.0017    -0.923    -0.329    -0.308 -0.2373  0.6786  0.6952
              Bcc     0.0037     1.998     0.713     0.666  0.3247  0.7298 -0.6016
 
              Baa    -0.0334    -4.476    -1.597    -1.493  0.9264 -0.3630  0.1005
    10 C(13)  Bbb     0.0161     2.165     0.773     0.722  0.3749  0.9139 -0.1555
              Bcc     0.0172     2.311     0.825     0.771 -0.0354  0.1817  0.9827
 
              Baa    -0.0093    -4.967    -1.773    -1.657  0.3158  0.1401  0.9384
    11 H(1)   Bbb    -0.0077    -4.093    -1.460    -1.365 -0.4790  0.8773  0.0302
              Bcc     0.0170     9.060     3.233     3.022  0.8190  0.4591 -0.3442
 
              Baa    -0.0138    -7.349    -2.622    -2.451  0.9497 -0.0509  0.3089
    12 H(1)   Bbb    -0.0053    -2.810    -1.003    -0.937  0.0614  0.9978 -0.0246
              Bcc     0.0190    10.159     3.625     3.389 -0.3069  0.0423  0.9508
 
              Baa    -1.2241    88.579    31.607    29.547  0.9560 -0.2853  0.0678
    13 O(17)  Bbb    -1.2086    87.453    31.205    29.171 -0.2464 -0.6560  0.7134
              Bcc     2.4327  -176.032   -62.812   -58.718  0.1590  0.6988  0.6974
 
              Baa    -0.2606    18.860     6.730     6.291  0.8784 -0.3179  0.3569
    14 O(17)  Bbb    -0.2144    15.514     5.536     5.175 -0.4776 -0.5533  0.6825
              Bcc     0.4750   -34.374   -12.265   -11.466  0.0195  0.7699  0.6378
 
              Baa    -0.6261    45.306    16.166    15.112  0.5226  0.7116 -0.4695
    15 O(17)  Bbb    -0.6046    43.752    15.612    14.594  0.8503 -0.3947  0.3482
              Bcc     1.2308   -89.057   -31.778   -29.706 -0.0625  0.5812  0.8113
 
              Baa    -0.0969   -51.720   -18.455   -17.252  0.8655 -0.2262  0.4469
    16 H(1)   Bbb    -0.0715   -38.159   -13.616   -12.728  0.4691  0.6790 -0.5648
              Bcc     0.1685    89.879    32.071    29.980 -0.1757  0.6984  0.6938
 

 ---------------------------------------------------------------------------------

 -------------------------------------------------------------------
 Center     Atomic                   Forces (Hartrees/Bohr)
 Number     Number              X              Y              Z
 -------------------------------------------------------------------
    1          6          -0.000823794    0.001471942   -0.000953855
    2          1          -0.001122819   -0.000720832   -0.000154593
    3          1           0.001017524   -0.001235565    0.000294539
    4          6          -0.000355778   -0.000132904   -0.000048085
    5          1           0.001292274    0.000601187    0.000422875
    6          6           0.000295682    0.000465274   -0.000806063
    7          1           0.001073080   -0.001352089    0.000402917
    8          1          -0.000220110    0.001057784    0.001377018
    9          1          -0.001488809   -0.000662132   -0.000262475
   10          6           0.000417301   -0.000641074   -0.001019827
   11          1          -0.001345233   -0.000724317   -0.000119086
   12          1          -0.000081801    0.000733219    0.000877075
   13          8          -0.000270119    0.002365878    0.001381542
   14          8           0.002127913    0.000237741    0.000648693
   15          8          -0.002648796   -0.003358834   -0.002936302
   16          1           0.002133484    0.001894721    0.000895628
 -------------------------------------------------------------------
 Cartesian Forces:  Max     0.003358834 RMS     0.001243173

 GradGradGradGradGradGradGradGradGradGradGradGradGradGradGradGradGradGrad
 Berny optimization.
 Internal  Forces:  Max     0.003769110 RMS     0.000922902
 Search for a saddle point.
 Step number   1 out of a maximum of  83 on scan point     1 out of    37
 All quantities printed in internal units (Hartrees-Bohrs-Radians)
 Swaping is turned off.
 Second derivative matrix not updated -- analytic derivatives used.
     Eigenvalues ---    0.00448   0.00769   0.01554   0.02768   0.03521
     Eigenvalues ---    0.04213   0.04473   0.04752   0.04809   0.05029
     Eigenvalues ---    0.06459   0.07040   0.08181   0.09984   0.11863
     Eigenvalues ---    0.12574   0.12911   0.14323   0.14986   0.15517
     Eigenvalues ---    0.16115   0.17192   0.20431   0.23417   0.24342
     Eigenvalues ---    0.25959   0.28463   0.28892   0.29777   0.31127
     Eigenvalues ---    0.31615   0.33634   0.33863   0.34057   0.34315
     Eigenvalues ---    0.34813   0.35147   0.36063   0.38725   0.64074
     Eigenvalues --- 1000.000001000.000001000.000001000.000001000.00000
     Eigenvalues --- 1000.000001000.000001000.000001000.000001000.00000
     Eigenvalues --- 1000.000001000.000001000.000001000.000001000.00000
     Eigenvalues --- 1000.000001000.000001000.000001000.000001000.00000
     Eigenvalues --- 1000.000001000.000001000.000001000.000001000.00000
     Eigenvalues --- 1000.000001000.000001000.000001000.000001000.00000
     Eigenvalues --- 1000.000001000.000001000.00000
 Eigenvectors required to have negative eigenvalues:
                          R1        R2        R3        R4        R5
         1             -0.00026   0.00054   0.00355  -0.00521  -0.00036
                          R6        R7        R8        R9        R10
         1              0.00608   0.00538   0.00040   0.00033  -0.00109
                          R11       R12       R13       R14       R15
         1             -0.00061   0.00172  -0.00714   0.00000   0.00074
                          R16       A1        A2        A3        A4
         1             -0.01570  -0.00476  -0.00104   0.00756  -0.02214
                          A5        A6        A7        A8        A9
         1             -0.01450   0.03338   0.01559  -0.02819   0.04810
                          A10       A11       A12       A13       A14
         1             -0.01801   0.01692  -0.03395   0.00098   0.00281
                          A15       A16       A17       A18       A19
         1             -0.00401  -0.00298   0.00114   0.00208  -0.00146
                          A20       A21       A22       A23       A24
         1             -0.02999   0.03510  -0.00218   0.01128  -0.01765
                          A25       A26       D1        D2        D3
         1              0.00043  -0.02350  -0.27338  -0.24529  -0.21415
                          D4        D5        D6        D7        D8
         1             -0.25119  -0.22309  -0.19196  -0.23924  -0.21114
                          D9        D10       D11       D12       D13
         1             -0.18000   0.04493   0.03565   0.01724   0.00000
                          D14       D15       D16       D17       D18
         1             -0.00123   0.00062   0.00802   0.00679   0.00864
                          D19       D20       D21       D22       D23
         1              0.01798   0.01675   0.01860   0.22969   0.20835
                          D24       D25       D26       D27       D28
         1              0.18712   0.28793   0.26660   0.24536   0.25751
                          D29       D30       D31
         1              0.23618   0.21494   0.07960
 RFO step:  Lambda0=4.486654447D-03 Lambda=-2.55694335D-04.
 Linear search not attempted -- option 19 set.
 Maximum step size (   0.300) exceeded in Quadratic search.
    -- Step size scaled by   0.007
 Iteration  1 RMS(Cart)=  0.04538539 RMS(Int)=  0.00080909
 Iteration  2 RMS(Cart)=  0.00104348 RMS(Int)=  0.00013353
 Iteration  3 RMS(Cart)=  0.00000043 RMS(Int)=  0.00013353
 Iteration  1 RMS(Cart)=  0.00002256 RMS(Int)=  0.00000989
 Iteration  2 RMS(Cart)=  0.00000555 RMS(Int)=  0.00001084
 Iteration  3 RMS(Cart)=  0.00000359 RMS(Int)=  0.00001225
 Iteration  4 RMS(Cart)=  0.00000231 RMS(Int)=  0.00001340
 Iteration  5 RMS(Cart)=  0.00000148 RMS(Int)=  0.00001421
 Iteration  6 RMS(Cart)=  0.00000095 RMS(Int)=  0.00001475
 Variable       Old X    -DE/DX   Delta X   Delta X   Delta X     New X
                                 (Linear)    (Quad)   (Total)
    R1        2.07156   0.00131   0.00000  -0.00005  -0.00005   2.07151
    R2        2.06582   0.00162   0.00000   0.00020   0.00020   2.06602
    R3        2.89674   0.00094   0.00000   0.00110   0.00090   2.89764
    R4        2.71313   0.00021   0.00000  -0.00158  -0.00169   2.71144
    R5        2.07118   0.00148   0.00000  -0.00008  -0.00008   2.07110
    R6        2.89906   0.00093   0.00000   0.00187   0.00187   2.90093
    R7        2.91447   0.00117   0.00000   0.00165   0.00158   2.91605
    R8        2.06535   0.00178   0.00000   0.00016   0.00016   2.06551
    R9        2.06610   0.00174   0.00000   0.00014   0.00014   2.06623
   R10        2.06884   0.00165   0.00000  -0.00030  -0.00030   2.06854
   R11        2.08483   0.00149   0.00000  -0.00015  -0.00015   2.08468
   R12        2.08452   0.00114   0.00000   0.00055   0.00055   2.08507
   R13        2.63021   0.00110   0.00000  -0.00215  -0.00208   2.62814
   R14        2.49427   0.00194   0.00000   0.00000   0.00000   2.49427
   R15        2.65415   0.00061   0.00000   0.00026   0.00027   2.65442
   R16        2.02730   0.00377   0.00000  -0.00465  -0.00447   2.02282
    A1        1.90576  -0.00001   0.00000  -0.00146  -0.00153   1.90423
    A2        1.94955  -0.00054   0.00000  -0.00032  -0.00029   1.94926
    A3        1.89460   0.00013   0.00000   0.00232   0.00250   1.89710
    A4        1.92611   0.00019   0.00000  -0.00673  -0.00651   1.91960
    A5        1.80851  -0.00054   0.00000  -0.00441  -0.00418   1.80433
    A6        1.97337   0.00077   0.00000   0.01015   0.00952   1.98288
    A7        1.87416   0.00013   0.00000   0.00476   0.00465   1.87881
    A8        1.91238  -0.00021   0.00000  -0.00858  -0.00834   1.90404
    A9        1.97730   0.00021   0.00000   0.01462   0.01420   1.99149
   A10        1.90893   0.00000   0.00000  -0.00549  -0.00555   1.90338
   A11        1.86978   0.00009   0.00000   0.00515   0.00510   1.87488
   A12        1.91947  -0.00020   0.00000  -0.01033  -0.01013   1.90934
   A13        1.94415  -0.00002   0.00000   0.00030   0.00030   1.94444
   A14        1.93395  -0.00005   0.00000   0.00085   0.00087   1.93482
   A15        1.94405   0.00010   0.00000  -0.00122  -0.00123   1.94282
   A16        1.87939   0.00005   0.00000  -0.00090  -0.00087   1.87852
   A17        1.88032  -0.00004   0.00000   0.00035   0.00031   1.88063
   A18        1.87911  -0.00004   0.00000   0.00063   0.00063   1.87974
   A19        1.93330  -0.00051   0.00000  -0.00046  -0.00048   1.93283
   A20        1.90939  -0.00021   0.00000  -0.00912  -0.00905   1.90034
   A21        2.00473   0.00120   0.00000   0.01070   0.01047   2.01520
   A22        1.84461   0.00010   0.00000  -0.00067  -0.00069   1.84392
   A23        1.93018  -0.00001   0.00000   0.00344   0.00343   1.93361
   A24        1.83199  -0.00067   0.00000  -0.00539  -0.00523   1.82676
   A25        1.89270  -0.00146   0.00000   0.00008  -0.00026   1.89244
   A26        1.79791  -0.00315   0.00000  -0.00726  -0.00731   1.79060
    D1       -3.12020  -0.00018   0.00000  -0.08323  -0.08314   3.07985
    D2        1.09131  -0.00013   0.00000  -0.07468  -0.07459   1.01672
    D3       -1.05923   0.00014   0.00000  -0.06520  -0.06516  -1.12439
    D4        1.03940   0.00008   0.00000  -0.07646  -0.07650   0.96291
    D5       -1.03227   0.00013   0.00000  -0.06791  -0.06795  -1.10022
    D6        3.10037   0.00040   0.00000  -0.05843  -0.05852   3.04186
    D7       -0.97699   0.00016   0.00000  -0.07282  -0.07285  -1.04984
    D8       -3.04867   0.00021   0.00000  -0.06427  -0.06430  -3.11297
    D9        1.08398   0.00048   0.00000  -0.05479  -0.05487   1.02910
   D10        0.83609   0.00051   0.00000   0.01370   0.01375   0.84984
   D11        2.86038   0.00029   0.00000   0.01087   0.01103   2.87141
   D12       -1.33736   0.00057   0.00000   0.00527   0.00548  -1.33189
   D13        1.00209   0.00001   0.00000   0.00000   0.00001   1.00210
   D14        3.09395   0.00002   0.00000  -0.00037  -0.00031   3.09365
   D15       -1.09779   0.00001   0.00000   0.00019   0.00025  -1.09754
   D16       -1.04793  -0.00001   0.00000   0.00243   0.00238  -1.04555
   D17        1.04393   0.00000   0.00000   0.00206   0.00207   1.04600
   D18        3.13538  -0.00002   0.00000   0.00261   0.00263   3.13800
   D19       -3.09678  -0.00001   0.00000   0.00545   0.00529  -3.09149
   D20       -1.00492   0.00001   0.00000   0.00508   0.00498  -0.99994
   D21        1.08653  -0.00001   0.00000   0.00564   0.00554   1.09207
   D22        1.09131  -0.00004   0.00000   0.06981   0.06985   1.16116
   D23        3.11789  -0.00034   0.00000   0.06331   0.06340  -3.10189
   D24       -1.11094  -0.00057   0.00000   0.05684   0.05696  -1.05397
   D25       -3.12837   0.00030   0.00000   0.08755   0.08751  -3.04086
   D26       -1.10179   0.00000   0.00000   0.08105   0.08107  -1.02072
   D27        0.95257  -0.00023   0.00000   0.07458   0.07462   1.02719
   D28       -1.05533   0.00024   0.00000   0.07829   0.07827  -0.97706
   D29        0.97126  -0.00006   0.00000   0.07179   0.07182   1.04307
   D30        3.02561  -0.00030   0.00000   0.06532   0.06538   3.09099
   D31        1.43210   0.00167   0.00000   0.02442   0.02424   1.45634
         Item               Value     Threshold  Converged?
 Maximum Force            0.003823     0.000450     NO 
 RMS     Force            0.000906     0.000300     NO 
 Maximum Displacement     0.140053     0.001800     NO 
 RMS     Displacement     0.045396     0.001200     NO 
 Predicted change in Energy= 2.387513D-04
 GradGradGradGradGradGradGradGradGradGradGradGradGradGradGradGradGradGrad

                          Input orientation:                          
 ---------------------------------------------------------------------
 Center     Atomic     Atomic              Coordinates (Angstroms)
 Number     Number      Type              X           Y           Z
 ---------------------------------------------------------------------
    1          6             0       -0.454215    0.077038    0.150640
    2          1             0       -1.383991   -0.414996   -0.157682
    3          1             0        0.287420   -0.685491    0.403242
    4          6             0       -0.676409    1.008926    1.347893
    5          1             0        0.299450    1.413719    1.639469
    6          6             0       -1.251511    0.196562    2.516595
    7          1             0       -0.593281   -0.632715    2.788119
    8          1             0       -1.376110    0.824423    3.403047
    9          1             0       -2.230867   -0.223061    2.265629
   10          6             0       -1.603308    2.206370    1.050958
   11          1             0       -2.632564    1.863527    0.850810
   12          1             0       -1.670228    2.838374    1.952913
   13          8             0       -1.166220    3.066919    0.049661
   14          8             0        0.119017    0.732935   -0.989513
   15          8             0       -0.885142    1.486182   -1.619873
   16          1             0       -0.888917    2.392726   -1.050673
 ---------------------------------------------------------------------
                    Distance matrix (angstroms):
                    1          2          3          4          5
     1  C    0.000000
     2  H    1.096195   0.000000
     3  H    1.093289   1.783652   0.000000
     4  C    1.533363   2.189744   2.166191   0.000000
     5  H    2.138069   3.067234   2.436204   1.095981   0.000000
     6  C    2.499542   2.746508   2.759092   1.535104   2.157846
     7  H    2.734847   3.057837   2.542845   2.185441   2.510829
     8  H    3.462171   3.770280   3.747800   2.178826   2.502994
     9  H    2.778440   2.574193   3.166085   2.185491   3.077926
    10  C    2.581674   2.894904   3.515288   1.543108   2.143625
    11  H    2.902927   2.787051   3.901809   2.191797   3.069367
    12  H    3.514521   3.888568   4.318737   2.168088   2.451024
    13  O    3.075148   3.494874   4.039637   2.482066   2.721901
    14  O    1.434832   2.066088   1.995008   2.484419   2.721686
    15  O    2.303497   2.449761   3.191247   3.013134   3.468691
    16  H    2.644717   2.987613   3.601813   2.777261   3.099602
                    6          7          8          9         10
     6  C    0.000000
     7  H    1.093020   0.000000
     8  H    1.093404   1.764713   0.000000
     9  H    1.094626   1.767060   1.766792   0.000000
    10  C    2.512206   3.478259   2.737465   2.787721   0.000000
    11  H    2.731468   3.760727   3.028585   2.552826   1.103163
    12  H    2.733539   3.729054   2.499078   3.128018   1.103373
    13  O    3.785761   4.638395   4.039559   4.107061   1.390751
    14  O    3.802478   4.079568   4.640944   4.126964   3.049744
    15  O    4.348300   4.899521   5.090059   4.453045   2.857931
    16  H    4.204761   4.896634   4.746847   4.431820   2.227541
                   11         12         13         14         15
    11  H    0.000000
    12  H    1.758138   0.000000
    13  O    2.059164   1.982076   0.000000
    14  O    3.498031   4.036353   2.859930   0.000000
    15  O    3.049614   3.899947   2.316263   1.404660   0.000000
    16  H    2.633628   3.135376   1.319912   1.942827   1.070432
                   16
    16  H    0.000000
 Symmetry turned off by external request.
 Stoichiometry    C4H9O3(2)
 Framework group  C1[X(C4H9O3)]
 Deg. of freedom    42
 Full point group                 C1
 Rotational constants (GHZ):      3.6736025      2.2633332      1.5320061
 Standard basis: 6-31G(d) (6D, 7F)
 Integral buffers will be    131072 words long.
 Raffenetti 2 integral format.
 Two-electron integral symmetry is turned off.
   123 basis functions,   232 primitive gaussians,   123 cartesian basis functions
    29 alpha electrons       28 beta electrons
       nuclear repulsion energy       335.7346257544 Hartrees.
 NAtoms=   16 NActive=   16 NUniq=   16 SFac= 7.50D-01 NAtFMM=   80 NAOKFM=F Big=F
 One-electron integrals computed using PRISM.
 NBasis=   123 RedAO= T  NBF=   123
 NBsUse=   123 1.00D-06 NBFU=   123
 Initial guess read from the read-write file:
 <S**2> of initial guess= 0.7560
 Harris functional with IExCor=  402 diagonalized for initial guess.
 ExpMin= 1.61D-01 ExpMax= 5.48D+03 ExpMxC= 8.25D+02 IAcc=1 IRadAn=         1 AccDes= 1.00D-06
 HarFok:  IExCor= 402 AccDes= 1.00D-06 IRadAn=         1 IDoV=1
 ScaDFX=  1.000000  1.000000  1.000000  1.000000
 Requested convergence on RMS density matrix=1.00D-08 within 128 cycles.
 Requested convergence on MAX density matrix=1.00D-06.
 Requested convergence on             energy=1.00D-06.
 No special actions if energy rises.
 Keep R1 and R2 integrals in memory in canonical form, NReq=    60141279.
 Integral accuracy reduced to 1.0D-05 until final iterations.
 Initial convergence to 1.0D-05 achieved.  Increase integral accuracy.
 SCF Done:  E(UB+HF-LYP) =  -383.333040517     A.U. after   20 cycles
             Convg  =    0.2533D-08             -V/T =  2.0088
             S**2   =   0.7559
 Annihilation of the first spin contaminant:
 S**2 before annihilation     0.7559,   after     0.7500
 -------------------------------------------------------------------
 Center     Atomic                   Forces (Hartrees/Bohr)
 Number     Number              X              Y              Z
 -------------------------------------------------------------------
    1          6          -0.000886958    0.001153604   -0.000821473
    2          1          -0.001151371   -0.000354700   -0.000479038
    3          1           0.000718028   -0.001482345    0.000401510
    4          6          -0.000435331   -0.000411083    0.000454840
    5          1           0.001330599    0.000977836   -0.000392312
    6          6           0.000818278    0.000590193   -0.000430469
    7          1           0.001055051   -0.001359980    0.000404292
    8          1          -0.000231662    0.001022773    0.001385223
    9          1          -0.001485789   -0.000627516   -0.000314555
   10          6           0.000211533   -0.000594468   -0.000783847
   11          1          -0.001220729   -0.000688102   -0.000585244
   12          1          -0.000447500    0.000512297    0.000994671
   13          8          -0.000112859    0.002618489    0.001737969
   14          8           0.002384341    0.000225822    0.000617544
   15          8          -0.002617504   -0.003467541   -0.002822786
   16          1           0.002071871    0.001884721    0.000633676
 -------------------------------------------------------------------
 Cartesian Forces:  Max     0.003467541 RMS     0.001264163

 GradGradGradGradGradGradGradGradGradGradGradGradGradGradGradGradGradGrad
 Berny optimization.
 Internal  Forces:  Max     0.003806267 RMS     0.000939953
 Search for a saddle point.
 Step number   2 out of a maximum of  83 on scan point     1 out of    37
 All quantities printed in internal units (Hartrees-Bohrs-Radians)
 Swaping is turned off.
 Update second derivatives using D2CorX and points  1  2
     Eigenvalues ---    0.00424   0.00768   0.01559   0.02768   0.03517
     Eigenvalues ---    0.04214   0.04473   0.04753   0.04809   0.05029
     Eigenvalues ---    0.06457   0.07032   0.08180   0.09983   0.11861
     Eigenvalues ---    0.12574   0.12911   0.14318   0.14981   0.15513
     Eigenvalues ---    0.16113   0.17186   0.20425   0.23416   0.24338
     Eigenvalues ---    0.25957   0.28457   0.28891   0.29771   0.31127
     Eigenvalues ---    0.31615   0.33634   0.33863   0.34057   0.34315
     Eigenvalues ---    0.34813   0.35147   0.36067   0.38725   0.64078
     Eigenvalues --- 1000.000001000.000001000.000001000.000001000.00000
     Eigenvalues --- 1000.000001000.000001000.000001000.000001000.00000
     Eigenvalues --- 1000.000001000.000001000.000001000.000001000.00000
     Eigenvalues --- 1000.000001000.000001000.000001000.000001000.00000
     Eigenvalues --- 1000.000001000.000001000.000001000.000001000.00000
     Eigenvalues --- 1000.000001000.000001000.000001000.000001000.00000
     Eigenvalues --- 1000.000001000.000001000.00000
 Eigenvectors required to have negative eigenvalues:
                          R1        R2        R3        R4        R5
         1             -0.00042   0.00046   0.00445  -0.00531  -0.00043
                          R6        R7        R8        R9        R10
         1              0.00582   0.00676   0.00044   0.00034  -0.00103
                          R11       R12       R13       R14       R15
         1             -0.00081   0.00154  -0.00675   0.00000   0.00030
                          R16       A1        A2        A3        A4
         1             -0.01326  -0.00560   0.00009   0.00682  -0.02067
                          A5        A6        A7        A8        A9
         1             -0.01309   0.03055   0.01231  -0.02508   0.04754
                          A10       A11       A12       A13       A14
         1             -0.01920   0.01374  -0.03044   0.00067   0.00297
                          A15       A16       A17       A18       A19
         1             -0.00427  -0.00283   0.00122   0.00229  -0.00084
                          A20       A21       A22       A23       A24
         1             -0.02818   0.03291  -0.00264   0.00901  -0.01539
                          A25       A26       D1        D2        D3
         1             -0.00113  -0.02306  -0.27479  -0.24515  -0.21990
                          D4        D5        D6        D7        D8
         1             -0.25358  -0.22394  -0.19869  -0.24229  -0.21264
                          D9        D10       D11       D12       D13
         1             -0.18739   0.05120   0.04132   0.02386   0.00000
                          D14       D15       D16       D17       D18
         1             -0.00115   0.00090   0.01036   0.00921   0.01126
                          D19       D20       D21       D22       D23
         1              0.02218   0.02103   0.02307   0.22875   0.20860
                          D24       D25       D26       D27       D28
         1              0.18965   0.28265   0.26250   0.24355   0.25097
                          D29       D30       D31
         1              0.23081   0.21187   0.07773
 RFO step:  Lambda0=4.658633347D-03 Lambda=-2.51680693D-04.
 Linear search not attempted -- option 19 set.
 Maximum step size (   0.300) exceeded in Quadratic search.
    -- Step size scaled by   0.091
 Iteration  1 RMS(Cart)=  0.04528413 RMS(Int)=  0.00080567
 Iteration  2 RMS(Cart)=  0.00103522 RMS(Int)=  0.00014018
 Iteration  3 RMS(Cart)=  0.00000042 RMS(Int)=  0.00014018
 Iteration  1 RMS(Cart)=  0.00002426 RMS(Int)=  0.00001208
 Iteration  2 RMS(Cart)=  0.00000689 RMS(Int)=  0.00001328
 Iteration  3 RMS(Cart)=  0.00000446 RMS(Int)=  0.00001508
 Iteration  4 RMS(Cart)=  0.00000287 RMS(Int)=  0.00001653
 Iteration  5 RMS(Cart)=  0.00000185 RMS(Int)=  0.00001756
 Iteration  6 RMS(Cart)=  0.00000119 RMS(Int)=  0.00001825
 Iteration  7 RMS(Cart)=  0.00000076 RMS(Int)=  0.00001870
 Variable       Old X    -DE/DX   Delta X   Delta X   Delta X     New X
                                 (Linear)    (Quad)   (Total)
    R1        2.07151   0.00128   0.00000   0.00019   0.00019   2.07170
    R2        2.06602   0.00161   0.00000   0.00058   0.00058   2.06660
    R3        2.89764   0.00112   0.00000   0.00164   0.00143   2.89907
    R4        2.71144   0.00026   0.00000  -0.00160  -0.00170   2.70973
    R5        2.07110   0.00144   0.00000   0.00026   0.00026   2.07136
    R6        2.90093   0.00093   0.00000   0.00201   0.00201   2.90294
    R7        2.91605   0.00133   0.00000   0.00232   0.00224   2.91829
    R8        2.06551   0.00177   0.00000   0.00059   0.00059   2.06610
    R9        2.06623   0.00174   0.00000   0.00055   0.00055   2.06679
   R10        2.06854   0.00164   0.00000   0.00012   0.00012   2.06866
   R11        2.08468   0.00145   0.00000   0.00012   0.00012   2.08480
   R12        2.08507   0.00114   0.00000   0.00076   0.00076   2.08584
   R13        2.62814   0.00108   0.00000  -0.00174  -0.00166   2.62648
   R14        2.49427   0.00214   0.00000   0.00000   0.00000   2.49427
   R15        2.65442   0.00064   0.00000   0.00054   0.00055   2.65497
   R16        2.02282   0.00381   0.00000  -0.00242  -0.00223   2.02059
    A1        1.90423  -0.00003   0.00000  -0.00187  -0.00195   1.90229
    A2        1.94926  -0.00051   0.00000  -0.00002   0.00002   1.94928
    A3        1.89710   0.00005   0.00000   0.00230   0.00250   1.89960
    A4        1.91960   0.00023   0.00000  -0.00624  -0.00600   1.91360
    A5        1.80433  -0.00052   0.00000  -0.00400  -0.00377   1.80056
    A6        1.98288   0.00076   0.00000   0.00926   0.00858   1.99146
    A7        1.87881   0.00008   0.00000   0.00387   0.00377   1.88258
    A8        1.90404  -0.00015   0.00000  -0.00761  -0.00737   1.89667
    A9        1.99149   0.00017   0.00000   0.01437   0.01395   2.00545
   A10        1.90338   0.00002   0.00000  -0.00594  -0.00602   1.89736
   A11        1.87488   0.00004   0.00000   0.00417   0.00415   1.87903
   A12        1.90934  -0.00014   0.00000  -0.00921  -0.00901   1.90033
   A13        1.94444  -0.00003   0.00000   0.00020   0.00020   1.94465
   A14        1.93482  -0.00004   0.00000   0.00088   0.00090   1.93572
   A15        1.94282   0.00009   0.00000  -0.00125  -0.00127   1.94154
   A16        1.87852   0.00004   0.00000  -0.00082  -0.00078   1.87775
   A17        1.88063  -0.00003   0.00000   0.00035   0.00030   1.88094
   A18        1.87974  -0.00004   0.00000   0.00066   0.00066   1.88040
   A19        1.93283  -0.00047   0.00000  -0.00039  -0.00040   1.93243
   A20        1.90034  -0.00010   0.00000  -0.00852  -0.00844   1.89190
   A21        2.01520   0.00115   0.00000   0.01022   0.00997   2.02517
   A22        1.84392   0.00007   0.00000  -0.00085  -0.00088   1.84304
   A23        1.93361  -0.00008   0.00000   0.00282   0.00282   1.93643
   A24        1.82676  -0.00065   0.00000  -0.00487  -0.00471   1.82205
   A25        1.89244  -0.00143   0.00000  -0.00090  -0.00125   1.89119
   A26        1.79060  -0.00306   0.00000  -0.00832  -0.00839   1.78222
    D1        3.07985   0.00020   0.00000  -0.08444  -0.08434   2.99551
    D2        1.01672   0.00022   0.00000  -0.07538  -0.07528   0.94144
    D3       -1.12439   0.00040   0.00000  -0.06772  -0.06768  -1.19207
    D4        0.96291   0.00042   0.00000  -0.07777  -0.07780   0.88510
    D5       -1.10022   0.00044   0.00000  -0.06871  -0.06874  -1.16896
    D6        3.04186   0.00062   0.00000  -0.06105  -0.06114   2.98071
    D7       -1.04984   0.00045   0.00000  -0.07432  -0.07434  -1.12419
    D8       -3.11297   0.00047   0.00000  -0.06526  -0.06528   3.10493
    D9        1.02910   0.00065   0.00000  -0.05760  -0.05768   0.97142
   D10        0.84984   0.00048   0.00000   0.01617   0.01622   0.86607
   D11        2.87141   0.00022   0.00000   0.01305   0.01322   2.88463
   D12       -1.33189   0.00056   0.00000   0.00777   0.00799  -1.32390
   D13        1.00210  -0.00001   0.00000   0.00000   0.00000   1.00209
   D14        3.09365   0.00000   0.00000  -0.00032  -0.00025   3.09340
   D15       -1.09754  -0.00002   0.00000   0.00027   0.00034  -1.09720
   D16       -1.04555  -0.00002   0.00000   0.00305   0.00299  -1.04256
   D17        1.04600  -0.00001   0.00000   0.00273   0.00275   1.04875
   D18        3.13800  -0.00003   0.00000   0.00332   0.00333   3.14133
   D19       -3.09149   0.00000   0.00000   0.00668   0.00649  -3.08500
   D20       -0.99994   0.00001   0.00000   0.00636   0.00624  -0.99369
   D21        1.09207  -0.00001   0.00000   0.00695   0.00683   1.09890
   D22        1.16116  -0.00033   0.00000   0.06881   0.06887   1.23002
   D23       -3.10189  -0.00058   0.00000   0.06258   0.06268  -3.03921
   D24       -1.05397  -0.00075   0.00000   0.05675   0.05689  -0.99708
   D25       -3.04086  -0.00011   0.00000   0.08531   0.08527  -2.95559
   D26       -1.02072  -0.00035   0.00000   0.07907   0.07909  -0.94163
   D27        1.02719  -0.00053   0.00000   0.07325   0.07329   1.10049
   D28       -0.97706  -0.00014   0.00000   0.07558   0.07555  -0.90151
   D29        1.04307  -0.00039   0.00000   0.06934   0.06937   1.11244
   D30        3.09099  -0.00056   0.00000   0.06352   0.06358  -3.12862
   D31        1.45634   0.00152   0.00000   0.02624   0.02605   1.48239
         Item               Value     Threshold  Converged?
 Maximum Force            0.003865     0.000450     NO 
 RMS     Force            0.000917     0.000300     NO 
 Maximum Displacement     0.137753     0.001800     NO 
 RMS     Displacement     0.045304     0.001200     NO 
 Predicted change in Energy= 6.004652D-04
 GradGradGradGradGradGradGradGradGradGradGradGradGradGradGradGradGradGrad

                          Input orientation:                          
 ---------------------------------------------------------------------
 Center     Atomic     Atomic              Coordinates (Angstroms)
 Number     Number      Type              X           Y           Z
 ---------------------------------------------------------------------
    1          6             0       -0.425326    0.082163    0.155289
    2          1             0       -1.336414   -0.457107   -0.129269
    3          1             0        0.354181   -0.643051    0.405062
    4          6             0       -0.667084    1.011865    1.351421
    5          1             0        0.304698    1.400707    1.676863
    6          6             0       -1.277973    0.190679    2.496971
    7          1             0       -0.632837   -0.646713    2.776164
    8          1             0       -1.420671    0.809161    3.387639
    9          1             0       -2.253440   -0.218541    2.215295
   10          6             0       -1.582048    2.221410    1.060413
   11          1             0       -2.625487    1.894948    0.912881
   12          1             0       -1.597332    2.869557    1.953718
   13          8             0       -1.173885    3.061342    0.031015
   14          8             0        0.102371    0.742992   -1.002725
   15          8             0       -0.939633    1.456626   -1.618220
   16          1             0       -0.935997    2.375400   -1.071283
 ---------------------------------------------------------------------
                    Distance matrix (angstroms):
                    1          2          3          4          5
     1  C    0.000000
     2  H    1.096297   0.000000
     3  H    1.093596   1.782749   0.000000
     4  C    1.534120   2.190508   2.162712   0.000000
     5  H    2.141654   3.067056   2.407670   1.096117   0.000000
     6  C    2.494445   2.705583   2.781208   1.536169   2.154436
     7  H    2.728242   2.995415   2.568334   2.186766   2.505866
     8  H    3.459382   3.738873   3.762284   2.180634   2.500716
     9  H    2.770568   2.528800   3.202630   2.185567   3.075053
    10  C    2.594925   2.941111   3.519035   1.544294   2.147877
    11  H    2.949719   2.877490   3.946864   2.192600   3.068212
    12  H    3.518169   3.933651   4.306409   2.163133   2.419068
    13  O    3.074295   3.525845   4.024602   2.490116   2.766357
    14  O    1.433930   2.067188   1.991579   2.491256   2.766535
    15  O    2.301955   2.456987   3.190027   3.015107   3.522650
    16  H    2.650321   3.011780   3.599334   2.793034   3.168858
                    6          7          8          9         10
     6  C    0.000000
     7  H    1.093332   0.000000
     8  H    1.093696   1.764696   0.000000
     9  H    1.094687   1.767558   1.767503   0.000000
    10  C    2.505999   3.474325   2.726989   2.781705   0.000000
    11  H    2.688805   3.728608   2.958875   2.510287   1.103226
    12  H    2.752000   3.737757   2.516460   3.167847   1.103777
    13  O    3.785826   4.645239   4.049710   4.085848   1.389871
    14  O    3.802403   4.092897   4.647508   4.102444   3.046231
    15  O    4.318784   4.881472   5.070427   4.384987   2.858788
    16  H    4.197904   4.901828   4.750790   4.389281   2.232761
                   11         12         13         14         15
    11  H    0.000000
    12  H    1.757927   0.000000
    13  O    2.060414   1.978100   0.000000
    14  O    3.526720   4.018934   2.841161   0.000000
    15  O    3.072572   3.897139   2.312998   1.404950   0.000000
    16  H    2.649927   3.135633   1.319912   1.935889   1.069251
                   16
    16  H    0.000000
 Symmetry turned off by external request.
 Stoichiometry    C4H9O3(2)
 Framework group  C1[X(C4H9O3)]
 Deg. of freedom    42
 Full point group                 C1
 Rotational constants (GHZ):      3.6597360      2.2676997      1.5379866
 Standard basis: 6-31G(d) (6D, 7F)
 Integral buffers will be    131072 words long.
 Raffenetti 2 integral format.
 Two-electron integral symmetry is turned off.
   123 basis functions,   232 primitive gaussians,   123 cartesian basis functions
    29 alpha electrons       28 beta electrons
       nuclear repulsion energy       335.7425131179 Hartrees.
 NAtoms=   16 NActive=   16 NUniq=   16 SFac= 7.50D-01 NAtFMM=   80 NAOKFM=F Big=F
 One-electron integrals computed using PRISM.
 NBasis=   123 RedAO= T  NBF=   123
 NBsUse=   123 1.00D-06 NBFU=   123
 Initial guess read from the read-write file:
 <S**2> of initial guess= 0.7559
 Harris functional with IExCor=  402 diagonalized for initial guess.
 ExpMin= 1.61D-01 ExpMax= 5.48D+03 ExpMxC= 8.25D+02 IAcc=1 IRadAn=         1 AccDes= 1.00D-06
 HarFok:  IExCor= 402 AccDes= 1.00D-06 IRadAn=         1 IDoV=1
 ScaDFX=  1.000000  1.000000  1.000000  1.000000
 Requested convergence on RMS density matrix=1.00D-08 within 128 cycles.
 Requested convergence on MAX density matrix=1.00D-06.
 Requested convergence on             energy=1.00D-06.
 No special actions if energy rises.
 Keep R1 and R2 integrals in memory in canonical form, NReq=    60141425.
 Integral accuracy reduced to 1.0D-05 until final iterations.
 Initial convergence to 1.0D-05 achieved.  Increase integral accuracy.
 SCF Done:  E(UB+HF-LYP) =  -383.332458452     A.U. after   17 cycles
             Convg  =    0.8744D-08             -V/T =  2.0088
             S**2   =   0.7558
 Annihilation of the first spin contaminant:
 S**2 before annihilation     0.7558,   after     0.7500
 -------------------------------------------------------------------
 Center     Atomic                   Forces (Hartrees/Bohr)
 Number     Number              X              Y              Z
 -------------------------------------------------------------------
    1          6          -0.000703091    0.000702885   -0.000642569
    2          1          -0.001117381    0.000048974   -0.000794281
    3          1           0.000386171   -0.001643984    0.000464546
    4          6          -0.000581021   -0.000770650    0.001047698
    5          1           0.001283344    0.001311265   -0.001181970
    6          6           0.001267837    0.000653910    0.000039872
    7          1           0.000959816   -0.001252027    0.000367456
    8          1          -0.000220066    0.000903341    0.001285866
    9          1          -0.001363842   -0.000534335   -0.000337193
   10          6           0.000052871   -0.000344182   -0.000480646
   11          1          -0.001054302   -0.000618891   -0.001025450
   12          1          -0.000807026    0.000297578    0.001046386
   13          8           0.000015821    0.002648640    0.001956615
   14          8           0.002414405    0.000148480    0.000488965
   15          8          -0.002356989   -0.003220897   -0.002507532
   16          1           0.001823452    0.001669893    0.000272237
 -------------------------------------------------------------------
 Cartesian Forces:  Max     0.003220897 RMS     0.001230290

 GradGradGradGradGradGradGradGradGradGradGradGradGradGradGradGradGradGrad
 Berny optimization.
 Internal  Forces:  Max     0.003529523 RMS     0.000910278
 Search for a saddle point.
 Step number   3 out of a maximum of  83 on scan point     1 out of    37
 All quantities printed in internal units (Hartrees-Bohrs-Radians)
 Swaping is turned off.
 Update second derivatives using D2CorX and points  2  3
     Eigenvalues ---    0.00374   0.00768   0.01564   0.02768   0.03511
     Eigenvalues ---    0.04213   0.04473   0.04753   0.04809   0.05028
     Eigenvalues ---    0.06454   0.07022   0.08180   0.09981   0.11858
     Eigenvalues ---    0.12574   0.12910   0.14311   0.14977   0.15509
     Eigenvalues ---    0.16109   0.17179   0.20418   0.23414   0.24332
     Eigenvalues ---    0.25949   0.28446   0.28888   0.29761   0.31124
     Eigenvalues ---    0.31615   0.33635   0.33863   0.34057   0.34315
     Eigenvalues ---    0.34813   0.35147   0.36065   0.38724   0.64075
     Eigenvalues --- 1000.000001000.000001000.000001000.000001000.00000
     Eigenvalues --- 1000.000001000.000001000.000001000.000001000.00000
     Eigenvalues --- 1000.000001000.000001000.000001000.000001000.00000
     Eigenvalues --- 1000.000001000.000001000.000001000.000001000.00000
     Eigenvalues --- 1000.000001000.000001000.000001000.000001000.00000
     Eigenvalues --- 1000.000001000.000001000.000001000.000001000.00000
     Eigenvalues --- 1000.000001000.000001000.00000
 Eigenvectors required to have negative eigenvalues:
                          R1        R2        R3        R4        R5
         1             -0.00062   0.00032   0.00723  -0.00537  -0.00060
                          R6        R7        R8        R9        R10
[...]
    10  C   -0.034651  -0.004538   0.004570   0.301533  -0.040881  -0.032264
    11  H    0.000284   0.000452  -0.000113  -0.045338   0.004720  -0.005607
    12  H    0.003766  -0.000085  -0.000081  -0.032125  -0.008785   0.001420
    13  O    0.000072   0.000422   0.000253  -0.024728   0.001407   0.000615
    14  O    0.200170  -0.027134  -0.031104  -0.043491   0.001472   0.002887
    15  O   -0.040161   0.007671   0.005108  -0.006086  -0.000047   0.000065
    16  H   -0.000587  -0.000647  -0.000710   0.003950   0.000219  -0.000189
              7          8          9         10         11         12
     1  C   -0.003831   0.003796  -0.004962  -0.034651   0.000284   0.003766
     2  H   -0.000126  -0.000101   0.004396  -0.004538   0.000452  -0.000085
     3  H    0.004157  -0.000146  -0.000402   0.004570  -0.000113  -0.000081
     4  C   -0.032762  -0.026685  -0.034252   0.301533  -0.045338  -0.032125
     5  H   -0.003250  -0.002926   0.005183  -0.040881   0.004720  -0.008785
     6  C    0.370905   0.371150   0.374692  -0.032264  -0.005607   0.001420
     7  H    0.565300  -0.030439  -0.029526   0.004532   0.000544  -0.000355
     8  H   -0.030439   0.558231  -0.029567  -0.004849   0.001260   0.001126
     9  H   -0.029526  -0.029567   0.553514  -0.005299   0.003253   0.000052
    10  C    0.004532  -0.004849  -0.005299   4.871939   0.376445   0.357032
    11  H    0.000544   0.001260   0.003253   0.376445   0.604529  -0.054363
    12  H   -0.000355   0.001126   0.000052   0.357032  -0.054363   0.633002
    13  O   -0.000059   0.000061   0.000266   0.233906  -0.041658  -0.041727
    14  O    0.000039  -0.000063  -0.000011  -0.000016  -0.000006  -0.000476
    15  O   -0.000003   0.000001   0.000000   0.008914  -0.000227   0.000500
    16  H    0.000010  -0.000001   0.000001  -0.014572   0.002548  -0.002560
             13         14         15         16
     1  C    0.000072   0.200170  -0.040161  -0.000587
     2  H    0.000422  -0.027134   0.007671  -0.000647
     3  H    0.000253  -0.031104   0.005108  -0.000710
     4  C   -0.024728  -0.043491  -0.006086   0.003950
     5  H    0.001407   0.001472  -0.000047   0.000219
     6  C    0.000615   0.002887   0.000065  -0.000189
     7  H   -0.000059   0.000039  -0.000003   0.000010
     8  H    0.000061  -0.000063   0.000001  -0.000001
     9  H    0.000266  -0.000011   0.000000   0.000001
    10  C    0.233906  -0.000016   0.008914  -0.014572
    11  H   -0.041658  -0.000006  -0.000227   0.002548
    12  H   -0.041727  -0.000476   0.000500  -0.002560
    13  O    8.287260   0.000007  -0.055538   0.089323
    14  O    0.000007   8.119805   0.064303  -0.017661
    15  O   -0.055538   0.064303   8.243192   0.134585
    16  H    0.089323  -0.017661   0.134585   0.340106
 Mulliken atomic charges:
              1
     1  C   -0.026870
     2  H    0.167042
     3  H    0.155811
     4  C   -0.122570
     5  H    0.158586
     6  C   -0.469120
     7  H    0.154864
     8  H    0.159152
     9  H    0.162660
    10  C   -0.021799
    11  H    0.153276
    12  H    0.143660
    13  O   -0.449882
    14  O   -0.268721
    15  O   -0.362276
    16  H    0.466187
 Sum of Mulliken charges=   0.00000
 Atomic charges with hydrogens summed into heavy atoms:
              1
     1  C    0.295983
     2  H    0.000000
     3  H    0.000000
     4  C    0.036016
     5  H    0.000000
     6  C    0.007556
     7  H    0.000000
     8  H    0.000000
     9  H    0.000000
    10  C    0.275137
    11  H    0.000000
    12  H    0.000000
    13  O   -0.449882
    14  O   -0.268721
    15  O    0.103911
    16  H    0.000000
 Sum of Mulliken charges=   0.00000
          Atomic-Atomic Spin Densities.
              1          2          3          4          5          6
     1  C   -0.003229   0.001498   0.002313  -0.007860   0.001510   0.000676
     2  H    0.001498   0.001040  -0.000293  -0.001963   0.000097   0.000440
     3  H    0.002313  -0.000293  -0.002577   0.000458  -0.000332  -0.000406
     4  C   -0.007860  -0.001963   0.000458   0.138588  -0.008639  -0.015321
     5  H    0.001510   0.000097  -0.000332  -0.008639   0.002333   0.002909
     6  C    0.000676   0.000440  -0.000406  -0.015321   0.002909   0.014478
     7  H   -0.000010  -0.000073   0.000201   0.000721  -0.000366  -0.000442
     8  H   -0.000015  -0.000006   0.000000   0.001114  -0.000172  -0.000023
     9  H    0.000100   0.000135  -0.000051  -0.001631   0.000080   0.001041
    10  C   -0.001733   0.000032  -0.000178   0.021285   0.001034   0.001871
    11  H    0.000349   0.000089  -0.000011  -0.011028   0.000499   0.002132
    12  H    0.000208   0.000025  -0.000016  -0.008477   0.001121   0.000928
    13  O    0.004401   0.001113  -0.000106  -0.022607   0.000748   0.000957
    14  O    0.002261   0.000174   0.000588  -0.005756   0.000906   0.000212
    15  O   -0.004333  -0.001568  -0.000048   0.005183  -0.000237  -0.000122
    16  H    0.000255   0.000154  -0.000019   0.000364  -0.000021   0.000017
              7          8          9         10         11         12
     1  C   -0.000010  -0.000015   0.000100  -0.001733   0.000349   0.000208
     2  H   -0.000073  -0.000006   0.000135   0.000032   0.000089   0.000025
     3  H    0.000201   0.000000  -0.000051  -0.000178  -0.000011  -0.000016
     4  C    0.000721   0.001114  -0.001631   0.021285  -0.011028  -0.008477
     5  H   -0.000366  -0.000172   0.000080   0.001034   0.000499   0.001121
     6  C   -0.000442  -0.000023   0.001041   0.001871   0.002132   0.000928
     7  H    0.002739   0.000338  -0.000555  -0.000168  -0.000099  -0.000018
     8  H    0.000338  -0.000720  -0.000285  -0.000352  -0.000301  -0.000108
     9  H   -0.000555  -0.000285   0.000897   0.000076   0.000483   0.000032
    10  C   -0.000168  -0.000352   0.000076  -0.039882   0.004795   0.003915
    11  H   -0.000099  -0.000301   0.000483   0.004795   0.020742   0.003869
    12  H   -0.000018  -0.000108   0.000032   0.003915   0.003869   0.011896
    13  O   -0.000014  -0.000013   0.000085  -0.028657  -0.002119  -0.000333
    14  O   -0.000013   0.000000   0.000012  -0.000207   0.000075   0.000305
    15  O    0.000003   0.000000  -0.000012   0.002487  -0.000186  -0.000369
    16  H    0.000000  -0.000001  -0.000001   0.000875  -0.000143  -0.000001
             13         14         15         16
     1  C    0.004401   0.002261  -0.004333   0.000255
     2  H    0.001113   0.000174  -0.001568   0.000154
     3  H   -0.000106   0.000588  -0.000048  -0.000019
     4  C   -0.022607  -0.005756   0.005183   0.000364
     5  H    0.000748   0.000906  -0.000237  -0.000021
     6  C    0.000957   0.000212  -0.000122   0.000017
     7  H   -0.000014  -0.000013   0.000003   0.000000
     8  H   -0.000013   0.000000   0.000000  -0.000001
     9  H    0.000085   0.000012  -0.000012  -0.000001
    10  C   -0.028657  -0.000207   0.002487   0.000875
    11  H   -0.002119   0.000075  -0.000186  -0.000143
    12  H   -0.000333   0.000305  -0.000369  -0.000001
    13  O    0.741108   0.005768  -0.042899  -0.014165
    14  O    0.005768   0.062583  -0.021646   0.001088
    15  O   -0.042899  -0.021646   0.311157   0.004810
    16  H   -0.014165   0.001088   0.004810  -0.026526
 Mulliken atomic spin densities:
              1
     1  C   -0.003611
     2  H    0.000895
     3  H   -0.000477
     4  C    0.084430
     5  H    0.001469
     6  C    0.009345
     7  H    0.002243
     8  H   -0.000543
     9  H    0.000407
    10  C   -0.034807
    11  H    0.019147
    12  H    0.012976
    13  O    0.643268
    14  O    0.046349
    15  O    0.252222
    16  H   -0.033314
 Sum of Mulliken spin densities=   1.00000
 Electronic spatial extent (au):  <R**2>=  1357.0646
 Charge=     0.0000 electrons
 Dipole moment (field-independent basis, Debye):
    X=     0.2195    Y=    -1.6011    Z=     3.4559  Tot=     3.8151
 Quadrupole moment (field-independent basis, Debye-Ang):
   XX=   -43.1088   YY=   -46.0905   ZZ=   -43.1955
   XY=     3.5380   XZ=    -2.2850   YZ=     4.1806
 Traceless Quadrupole moment (field-independent basis, Debye-Ang):
   XX=     1.0228   YY=    -1.9589   ZZ=     0.9361
   XY=     3.5380   XZ=    -2.2850   YZ=     4.1806
 Octapole moment (field-independent basis, Debye-Ang**2):
  XXX=   124.3074  YYY=  -167.9073  ZZZ=   -49.3237  XYY=    51.7601
  XXY=   -57.4165  XXZ=   -17.8067  XZZ=    41.5452  YZZ=   -49.8982
  YYZ=   -15.8570  XYZ=    -3.0335
 Hexadecapole moment (field-independent basis, Debye-Ang**3):
 XXXX=  -332.6386 YYYY=  -779.2911 ZZZZ=  -601.4744 XXXY=   157.6677
 XXXZ=    73.1175 YYYX=   179.1468 YYYZ=   -34.3140 ZZZX=    66.1511
 ZZZY=   -13.3917 XXYY=  -197.7873 XXZZ=  -156.6520 YYZZ=  -214.5762
 XXYZ=    -7.3962 YYXZ=    23.9578 ZZXY=    47.3671
 N-N= 3.338653623675D+02 E-N=-1.564658709507D+03  KE= 3.799668081467D+02
                          Isotropic Fermi Contact Couplings
        Atom                 a.u.       MegaHertz       Gauss      10(-4) cm-1
     1  C(13)             -0.00238      -2.67223      -0.95352      -0.89136
     2  H(1)               0.00036       1.60449       0.57252       0.53520
     3  H(1)              -0.00002      -0.07347      -0.02621      -0.02451
     4  C(13)              0.06334      71.20222      25.40672      23.75050
     5  H(1)               0.00025       1.10796       0.39535       0.36958
     6  C(13)              0.00136       1.52488       0.54412       0.50865
     7  H(1)               0.00117       5.21475       1.86075       1.73945
     8  H(1)               0.00002       0.08068       0.02879       0.02691
     9  H(1)               0.00015       0.67454       0.24069       0.22500
    10  C(13)             -0.02235     -25.13043      -8.96716      -8.38261
    11  H(1)               0.00944      42.17783      15.05010      14.06901
    12  H(1)               0.00638      28.53184      10.18087       9.51720
    13  O(17)              0.07283     -44.14986     -15.75377     -14.72681
    14  O(17)              0.01877     -11.37591      -4.05921      -3.79460
    15  O(17)              0.00442      -2.68220      -0.95708      -0.89469
    16  H(1)              -0.01644     -73.46645     -26.21466     -24.50577
 --------------------------------------------------------
       Center         ----  Spin Dipole Couplings  ----
                      3XX-RR        3YY-RR        3ZZ-RR
 --------------------------------------------------------
     1   Atom       -0.010312      0.008502      0.001809
     2   Atom       -0.002346      0.005540     -0.003193
     3   Atom       -0.004081      0.005445     -0.001365
     4   Atom       -0.050434      0.090570     -0.040136
     5   Atom        0.005875     -0.000208     -0.005667
     6   Atom       -0.008271      0.000566      0.007705
     7   Atom       -0.002594      0.003067     -0.000473
     8   Atom       -0.003160      0.000006      0.003154
     9   Atom        0.000056      0.000351     -0.000407
    10   Atom       -0.028672      0.012549      0.016123
    11   Atom       -0.006322     -0.008367      0.014689
    12   Atom        0.007425     -0.008890      0.001465
    13   Atom       -1.248259      1.389934     -0.141675
    14   Atom       -0.137670     -0.021118      0.158787
    15   Atom       -0.527295     -0.441536      0.968832
    16   Atom       -0.071570     -0.014452      0.086023
 --------------------------------------------------------
                        XY            XZ            YZ
 --------------------------------------------------------
     1   Atom        0.001934     -0.004299     -0.006947
     2   Atom        0.006970     -0.001072     -0.000313
     3   Atom       -0.000133     -0.000274     -0.000791
     4   Atom       -0.037078      0.013701     -0.050758
     5   Atom       -0.006826      0.003074     -0.003670
     6   Atom        0.004080     -0.006189     -0.013805
     7   Atom       -0.000019     -0.000788     -0.001921
     8   Atom        0.000435      0.000159     -0.002403
     9   Atom        0.002278     -0.002686     -0.003263
    10   Atom       -0.008204      0.017380      0.003841
    11   Atom        0.000242     -0.004455     -0.006251
    12   Atom       -0.001412      0.011145     -0.002077
    13   Atom        0.077073      0.058457      1.697508
    14   Atom        0.025338      0.007105      0.179030
    15   Atom       -0.099446     -0.275431      0.454288
    16   Atom        0.010316     -0.018690      0.084403
 --------------------------------------------------------


 ---------------------------------------------------------------------------------
              Anisotropic Spin Dipole Couplings in Principal Axis System
 ---------------------------------------------------------------------------------

       Atom             a.u.   MegaHertz   Gauss  10(-4) cm-1        Axes

              Baa    -0.0117    -1.568    -0.560    -0.523  0.9503  0.0160  0.3109
     1 C(13)  Bbb    -0.0018    -0.247    -0.088    -0.082 -0.2639  0.5714  0.7771
              Bcc     0.0135     1.815     0.648     0.605  0.1653  0.8205 -0.5472
 
              Baa    -0.0066    -3.515    -1.254    -1.172  0.8476 -0.4814  0.2233
     2 H(1)   Bbb    -0.0031    -1.637    -0.584    -0.546 -0.1617  0.1664  0.9727
              Bcc     0.0097     5.152     1.838     1.719  0.5054  0.8606 -0.0631
 
              Baa    -0.0041    -2.194    -0.783    -0.732  0.9941  0.0226  0.1057
     3 H(1)   Bbb    -0.0014    -0.760    -0.271    -0.253 -0.1076  0.1116  0.9879
              Bcc     0.0055     2.954     1.054     0.985 -0.0105  0.9935 -0.1134
 
              Baa    -0.0601    -8.061    -2.877    -2.689  0.9160  0.0940 -0.3901
     4 C(13)  Bbb    -0.0572    -7.676    -2.739    -2.560  0.3292  0.3796  0.8646
              Bcc     0.1173    15.737     5.616     5.249 -0.2294  0.9204 -0.3167
 
              Baa    -0.0075    -4.015    -1.433    -1.339  0.0436  0.4801  0.8761
     5 H(1)   Bbb    -0.0040    -2.138    -0.763    -0.713  0.6014  0.6876 -0.4068
              Bcc     0.0115     6.154     2.196     2.053  0.7977 -0.5447  0.2588
 
              Baa    -0.0107    -1.436    -0.512    -0.479  0.7034  0.4345  0.5625
     6 C(13)  Bbb    -0.0096    -1.289    -0.460    -0.430 -0.6652  0.6813  0.3055
              Bcc     0.0203     2.725     0.972     0.909 -0.2505 -0.5890  0.7683
 
              Baa    -0.0029    -1.566    -0.559    -0.522  0.9111  0.1282  0.3917
     7 H(1)   Bbb    -0.0010    -0.527    -0.188    -0.176 -0.4095  0.3891  0.8252
              Bcc     0.0039     2.093     0.747     0.698  0.0466  0.9123 -0.4070
 
              Baa    -0.0033    -1.743    -0.622    -0.582  0.9740 -0.2030 -0.1001
     8 H(1)   Bbb    -0.0012    -0.633    -0.226    -0.211  0.2262  0.8556  0.4655
              Bcc     0.0045     2.376     0.848     0.793 -0.0088 -0.4761  0.8793
 
              Baa    -0.0035    -1.843    -0.658    -0.615  0.2748  0.5258  0.8050
     9 H(1)   Bbb    -0.0020    -1.092    -0.390    -0.364  0.7949 -0.5953  0.1175
              Bcc     0.0055     2.935     1.047     0.979  0.5410  0.6076 -0.5815
 
              Baa    -0.0363    -4.869    -1.737    -1.624  0.9294  0.1814 -0.3215
    10 C(13)  Bbb     0.0141     1.891     0.675     0.631 -0.2094  0.9763 -0.0544
              Bcc     0.0222     2.978     1.063     0.993  0.3040  0.1179  0.9453
 
              Baa    -0.0102    -5.436    -1.940    -1.813  0.2639  0.9232  0.2792
    11 H(1)   Bbb    -0.0069    -3.685    -1.315    -1.229  0.9468 -0.3032  0.1076
              Bcc     0.0171     9.121     3.255     3.042 -0.1840 -0.2360  0.9542
 
              Baa    -0.0094    -5.007    -1.787    -1.670 -0.1266  0.9421  0.3104
    12 H(1)   Bbb    -0.0068    -3.641    -1.299    -1.214 -0.6029 -0.3216  0.7301
              Bcc     0.0162     8.648     3.086     2.885  0.7877 -0.0947  0.6088
 
              Baa    -1.2541    90.744    32.380    30.269  0.9093  0.2057 -0.3617
    13 O(17)  Bbb    -1.2348    89.349    31.882    29.804  0.4153 -0.5026  0.7583
              Bcc     2.4889  -180.093   -64.262   -60.073  0.0258  0.8397  0.5424
 
              Baa    -0.1532    11.087     3.956     3.698  0.7720 -0.5588  0.3030
    14 O(17)  Bbb    -0.1169     8.458     3.018     2.821  0.6339  0.6411 -0.4327
              Bcc     0.2701   -19.545    -6.974    -6.520  0.0475  0.5261  0.8491
 
              Baa    -0.5941    42.991    15.340    14.340  0.7255  0.6846 -0.0711
    15 O(17)  Bbb    -0.5592    40.464    14.439    13.497 -0.6666  0.6731 -0.3203
              Bcc     1.1533   -83.455   -29.779   -27.837 -0.1714  0.2798  0.9447
 
              Baa    -0.0861   -45.953   -16.397   -15.328  0.7923 -0.5095  0.3358
    16 H(1)   Bbb    -0.0485   -25.872    -9.232    -8.630  0.6078  0.7079 -0.3598
              Bcc     0.1346    71.824    25.629    23.958 -0.0544  0.4891  0.8705
 

 ---------------------------------------------------------------------------------

 1\1\GINC-NODE34\Scan\UB3LYP\6-31G(d)\C4H9O3(2)\GOLDMANM\19-Jul-2019\0\
 \# opt=(ts,noeigentest,addred,calcfc) b3lyp/6-31g(d) nosymm\\83gAlkoxy
 Isom\\0,2\C,-1.0870162969,0.1622993779,-0.095900545\H,-2.160121346,0.2
 759120218,-0.2799517554\H,-0.8320473486,-0.903720945,-0.1174084264\C,-
 0.6410208882,0.7456403597,1.2506283895\H,0.4299665333,0.5279250521,1.3
 276571784\C,-1.378848667,0.0370166405,2.3951444463\H,-1.2014234225,-1.
 0446023255,2.3654620885\H,-1.0357772061,0.4022126969,3.3691768666\H,-2
 .4601370402,0.2078113087,2.332886259\C,-0.7809027602,2.3238402752,1.43
 1806868\H,-1.4656935639,2.4990805712,2.274016829\H,0.214808494,2.71066
 11404,1.698347447\O,-1.2881407306,3.0146612875,0.3374706687\O,-0.36459
 09714,0.7438800667,-1.1867676324\O,-1.10984485,1.8640301529,-1.6386465
 749\H,-0.9460869356,2.584789319,-0.8626891068\\Version=AM64L-G03RevD.0
 1\HF=-383.3203854,-383.319861,-383.3187111,-383.3172018,-383.315735,-3
 83.314733,-383.3145135,-383.3151321,-383.3163968,-383.3179224,-383.319
 2988,-383.3201997,-383.3204142,-383.3198656,-383.3187192,-383.3172291,
 -383.315771,-383.314765,-383.3144995,-383.3150747,-383.316312,-383.317
 8508,-383.3192609,-383.3201916,-383.3204204,-383.3198889,-383.3187529,
 -383.317281,-383.3158248,-383.3147929,-383.3145171,-383.315098,-383.31
 63477,-383.3178697,-383.3192617,-383.3201797,-383.3204143\S2=0.755266,
 0.755352,0.755415,0.755431,0.755375,0.755276,0.755172,0.755108,0.75507
 7,0.755086,0.755123,0.755189,0.755274,0.755364,0.755424,0.755431,0.755
 374,0.755284,0.75518,0.755111,0.75508,0.755092,0.75513,0.755193,0.7552
 64,0.755335,0.755376,0.755383,0.755342,0.755261,0.755173,0.755101,0.75
 5064,0.755068,0.755108,0.755179,0.755262\S2-1=0.,0.,0.,0.,0.,0.,0.,0.,
 0.,0.,0.,0.,0.,0.,0.,0.,0.,0.,0.,0.,0.,0.,0.,0.,0.,0.,0.,0.,0.,0.,0.,0
 .,0.,0.,0.,0.,0.\S2A=0.750016,0.750016,0.750017,0.750017,0.750017,0.75
 0016,0.750016,0.750016,0.750015,0.750015,0.750016,0.750016,0.750016,0.
 750016,0.750017,0.750017,0.750017,0.750016,0.750016,0.750016,0.750015,
 0.750015,0.750016,0.750016,0.750016,0.750016,0.750017,0.750017,0.75001
 6,0.750016,0.750016,0.750016,0.750015,0.750015,0.750016,0.750016,0.750
 016\RMSD=2.007e-09,2.415e-09,7.351e-09,7.977e-09,6.225e-09,6.764e-09,4
 .101e-09,1.221e-09,3.555e-09,2.760e-09,1.354e-09,9.131e-09,1.369e-09,5
 .752e-09,5.044e-09,7.755e-09,2.415e-09,4.033e-09,8.924e-09,1.019e-09,7
 .658e-09,3.790e-09,2.188e-09,5.348e-09,9.103e-09,6.288e-09,6.658e-09,5
 .027e-09,4.670e-09,6.993e-09,5.871e-09,4.813e-09,1.879e-09,7.366e-09,2
 .265e-09,1.117e-09,5.245e-09\Thermal=0.,0.,0.,0.,0.,0.,0.,0.,0.,0.,0.,
 0.,0.,0.,0.,0.,0.,0.,0.,0.,0.,0.,0.,0.,0.,0.,0.,0.,0.,0.,0.,0.,0.,0.,0
 .,0.,0.\PG=C01 [X(C4H9O3)]\\@


     "IF I COULD JUST GET IT ON PAPER"
 LIFE AND INK, THEY RUN OUT AT THE SAME TIME,
 OR SO SAID MY OLD FRIEND THE SQUID.
     -- JIMMY BUFFETT, 1981
 Job cpu time:  0 days 13 hours 18 minutes 27.0 seconds.
 File lengths (MBytes):  RWF=     59 Int=      0 D2E=      0 Chk=     10 Scr=      1
 Normal termination of Gaussian 03 at Fri Jul 19 02:02:28 2019.
