 Entering Gaussian System, Link 0=g03
 Input=ts12-freq.gjf
 Output=ts12-freq.log
 Initial command:
 /opt/g03/l1.exe /scratch/shamel/Gau-7830.inp -scrdir=/scratch/shamel/
 Entering Link 1 = /opt/g03/l1.exe PID=      7832.
  
 Copyright (c) 1988,1990,1992,1993,1995,1998,2003,2004, Gaussian, Inc.
                  All Rights Reserved.
  
 This is the Gaussian(R) 03 program.  It is based on the
 the Gaussian(R) 98 system (copyright 1998, Gaussian, Inc.),
 the Gaussian(R) 94 system (copyright 1995, Gaussian, Inc.),
 the Gaussian 92(TM) system (copyright 1992, Gaussian, Inc.),
 the Gaussian 90(TM) system (copyright 1990, Gaussian, Inc.),
 the Gaussian 88(TM) system (copyright 1988, Gaussian, Inc.),
 the Gaussian 86(TM) system (copyright 1986, Carnegie Mellon
 University), and the Gaussian 82(TM) system (copyright 1983,
 Carnegie Mellon University). Gaussian is a federally registered
 trademark of Gaussian, Inc.
  
 This software contains proprietary and confidential information,
 including trade secrets, belonging to Gaussian, Inc.
  
 This software is provided under written license and may be
 used, copied, transmitted, or stored only in accord with that
 written license.
  
 The following legend is applicable only to US Government
 contracts under FAR:
  
                    RESTRICTED RIGHTS LEGEND
  
 Use, reproduction and disclosure by the US Government is
 subject to restrictions as set forth in subparagraphs (a)
 and (c) of the Commercial Computer Software - Restricted
 Rights clause in FAR 52.227-19.
  
 Gaussian, Inc.
 340 Quinnipiac St., Bldg. 40, Wallingford CT 06492
  
  
 ---------------------------------------------------------------
 Warning -- This program may not be used in any manner that
 competes with the business of Gaussian, Inc. or will provide
 assistance to any competitor of Gaussian, Inc.  The licensee
 of this program is prohibited from giving any competitor of
 Gaussian, Inc. access to this program.  By using this program,
 the user acknowledges that Gaussian, Inc. is engaged in the
 business of creating and licensing software in the field of
 computational chemistry and represents and warrants to the
 licensee that it is not a competitor of Gaussian, Inc. and that
 it will not use this program in any manner prohibited above.
 ---------------------------------------------------------------
  

 Cite this work as:
 Gaussian 03, Revision D.01,
 M. J. Frisch, G. W. Trucks, H. B. Schlegel, G. E. Scuseria, 
 M. A. Robb, J. R. Cheeseman, J. A. Montgomery, Jr., T. Vreven, 
 K. N. Kudin, J. C. Burant, J. M. Millam, S. S. Iyengar, J. Tomasi, 
 V. Barone, B. Mennucci, M. Cossi, G. Scalmani, N. Rega, 
 G. A. Petersson, H. Nakatsuji, M. Hada, M. Ehara, K. Toyota, 
 R. Fukuda, J. Hasegawa, M. Ishida, T. Nakajima, Y. Honda, O. Kitao, 
 H. Nakai, M. Klene, X. Li, J. E. Knox, H. P. Hratchian, J. B. Cross, 
 V. Bakken, C. Adamo, J. Jaramillo, R. Gomperts, R. E. Stratmann, 
 O. Yazyev, A. J. Austin, R. Cammi, C. Pomelli, J. W. Ochterski, 
 P. Y. Ayala, K. Morokuma, G. A. Voth, P. Salvador, J. J. Dannenberg, 
 V. G. Zakrzewski, S. Dapprich, A. D. Daniels, M. C. Strain, 
 O. Farkas, D. K. Malick, A. D. Rabuck, K. Raghavachari, 
 J. B. Foresman, J. V. Ortiz, Q. Cui, A. G. Baboul, S. Clifford, 
 J. Cioslowski, B. B. Stefanov, G. Liu, A. Liashenko, P. Piskorz, 
 I. Komaromi, R. L. Martin, D. J. Fox, T. Keith, M. A. Al-Laham, 
 C. Y. Peng, A. Nanayakkara, M. Challacombe, P. M. W. Gill, 
 B. Johnson, W. Chen, M. W. Wong, C. Gonzalez, and J. A. Pople, 
 Gaussian, Inc., Wallingford CT, 2004.
 
 ******************************************
 Gaussian 03:  AM64L-G03RevD.01 13-Oct-2005
                18-Jun-2013 
 ******************************************
 %chk=ts12-freq.chk
 %mem=1000mb
 %nproc=8
 Will use up to    8 processors via shared memory.
 -------------------------------------
 # freq nosymm b3lyp/cbsb7 iop(7/33=1)
 -------------------------------------
 1/10=4,30=1,38=1/1,3;
 2/15=1,17=6,18=5,40=1/2;
 3/5=4,6=6,7=700,11=2,16=1,25=1,30=1,74=-5/1,2,3;
 4//1;
 5/5=2,38=5/2;
 8/6=4,10=90,11=11/1;
 11/6=1,8=1,9=11,15=111,16=1,31=1/1,2,10;
 10/6=1,31=1/2;
 6/7=2,8=2,9=2,10=2,18=1,28=1/1;
 7/8=1,10=1,25=1,30=1,33=1/1,2,3,16;
 1/10=4,30=1/3;
 99//99;
 -------------------
 Title Card Required
 -------------------
 Symbolic Z-matrix:
 Charge =  0 Multiplicity = 2
 C                    -0.48338   0.07157   0.14566 
 H                    -1.42862  -0.37361  -0.18608 
 H                     0.21979  -0.72593   0.39984 
 C                    -0.68648   1.00546   1.34413 
 H                     0.29257   1.42565   1.60139 
 C                    -1.2248    0.20288   2.53559 
 H                    -0.55316  -0.61799   2.79939 
 H                    -1.33171   0.8408    3.41707 
 H                    -2.20717  -0.2275    2.31585 
 C                    -1.62442   2.19158   1.04088 
 H                    -2.6368    1.83464   0.78625 
 H                    -1.74434   2.80547   1.94947 
 O                    -1.15777   3.07336   0.07034 
 O                     0.13379   0.72172  -0.97582 
 O                    -0.83244   1.51414  -1.61703 
 H                    -0.84193   2.4092   -1.0257 
 

 GradGradGradGradGradGradGradGradGradGradGradGradGradGradGradGradGradGrad
 Berny optimization.
 Initialization pass.
 Trust Radius=3.00D-01 FncErr=1.00D-07 GrdErr=1.00D-07
 Number of steps in this run=   2 maximum allowed number of steps=   2.
 GradGradGradGradGradGradGradGradGradGradGradGradGradGradGradGradGradGrad

                          Input orientation:                          
 ---------------------------------------------------------------------
 Center     Atomic     Atomic              Coordinates (Angstroms)
 Number     Number      Type              X           Y           Z
 ---------------------------------------------------------------------
    1          6             0       -0.483378    0.071565    0.145659
    2          1             0       -1.428615   -0.373610   -0.186077
    3          1             0        0.219785   -0.725932    0.399843
    4          6             0       -0.686475    1.005458    1.344132
    5          1             0        0.292566    1.425652    1.601390
    6          6             0       -1.224801    0.202880    2.535593
    7          1             0       -0.553164   -0.617990    2.799385
    8          1             0       -1.331711    0.840803    3.417068
    9          1             0       -2.207165   -0.227500    2.315854
   10          6             0       -1.624420    2.191584    1.040877
   11          1             0       -2.636795    1.834638    0.786251
   12          1             0       -1.744341    2.805474    1.949474
   13          8             0       -1.157774    3.073364    0.070336
   14          8             0        0.133785    0.721715   -0.975823
   15          8             0       -0.832441    1.514135   -1.617027
   16          1             0       -0.841933    2.409201   -1.025702
 ---------------------------------------------------------------------
                    Distance matrix (angstroms):
                    1          2          3          4          5
     1  C    0.000000
     2  H    1.096222   0.000000
     3  H    1.093183   1.784560   0.000000
     4  C    1.532887   2.189552   2.170415   0.000000
     5  H    2.134196   3.065101   2.465426   1.096023   0.000000
     6  C    2.505741   2.789510   2.740611   1.534114   2.161090
     7  H    2.742739   3.120756   2.523272   2.184289   2.515338
     8  H    3.466051   3.803530   3.737037   2.177270   2.505396
     9  H    2.787585   2.624337   3.132031   2.185618   3.080913
    10  C    2.568632   2.850259   3.510544   1.542271   2.139080
    11  H    2.855869   2.698422   3.855630   2.191465   3.068041
    12  H    3.509706   3.842764   4.327814   2.173839   2.484766
    13  O    3.077545   3.467093   4.054737   2.474048   2.676297
    14  O    1.435725   2.065074   1.998883   2.477000   2.676334
    15  O    2.304325   2.442667   3.192623   3.008076   3.410525
    16  H    2.639165   2.965334   3.603954   2.758763   3.025900
                    6          7          8          9         10
     6  C    0.000000
     7  H    1.092936   0.000000
     8  H    1.093331   1.765147   0.000000
     9  H    1.094784   1.766919   1.766455   0.000000
    10  C    2.519685   3.483338   2.748922   2.795912   0.000000
    11  H    2.777869   3.795999   3.100347   2.603206   1.103244
    12  H    2.717895   3.723084   2.486771   3.089882   1.103082
    13  O    3.784397   4.630265   4.026810   4.127866   1.391849
    14  O    3.800656   4.064345   4.632424   4.149240   3.052684
    15  O    4.372367   4.912092   5.103407   4.515608   2.854929
    16  H    4.206811   4.886570   4.736872   4.470128   2.220449
                   11         12         13         14         15
    11  H    0.000000
    12  H    1.758432   0.000000
    13  O    2.057785   1.986702   0.000000
    14  O    3.466932   4.052995   2.879727   0.000000
    15  O    3.022277   3.901160   2.320394   1.404516   0.000000
    16  H    2.614350   3.134174   1.319912   1.949903   1.072799
                   16
    16  H    0.000000
 Symmetry turned off by external request.
 Stoichiometry    C4H9O3(2)
 Framework group  C1[X(C4H9O3)]
 Deg. of freedom    42
 Full point group                 C1
 Rotational constants (GHZ):      3.6809826      2.2614478      1.5276428
 Standard basis: CBSB7 (5D, 7F)
 Integral buffers will be    131072 words long.
 Raffenetti 2 integral format.
 Two-electron integral symmetry is turned off.
   180 basis functions,   296 primitive gaussians,   187 cartesian basis functions
    29 alpha electrons       28 beta electrons
       nuclear repulsion energy       335.7326224353 Hartrees.
 NAtoms=   16 NActive=   16 NUniq=   16 SFac= 7.50D-01 NAtFMM=   80 NAOKFM=F Big=F
 One-electron integrals computed using PRISM.
 NBasis=   180 RedAO= T  NBF=   180
 NBsUse=   180 1.00D-06 NBFU=   180
 Harris functional with IExCor=  402 diagonalized for initial guess.
 ExpMin= 1.03D-01 ExpMax= 8.59D+03 ExpMxC= 1.30D+03 IAcc=1 IRadAn=         1 AccDes= 1.00D-06
 HarFok:  IExCor= 402 AccDes= 1.00D-06 IRadAn=         1 IDoV=1
 ScaDFX=  1.000000  1.000000  1.000000  1.000000
 <S**2> of initial guess= 0.7500
 Requested convergence on RMS density matrix=1.00D-08 within 128 cycles.
 Requested convergence on MAX density matrix=1.00D-06.
 Requested convergence on             energy=1.00D-06.
 No special actions if energy rises.
 Integral accuracy reduced to 1.0D-05 until final iterations.
 EnCoef did     3 forward-backward iterations
 EnCoef did     3 forward-backward iterations
 Initial convergence to 1.0D-05 achieved.  Increase integral accuracy.
 SCF Done:  E(UB+HF-LYP) =  -383.448729948     A.U. after   26 cycles
             Convg  =    0.9914D-08             -V/T =  2.0033
             S**2   =   0.7561
 Annihilation of the first spin contaminant:
 S**2 before annihilation     0.7561,   after     0.7500
 Range of M.O.s used for correlation:     1   180
 NBasis=   180 NAE=    29 NBE=    28 NFC=     0 NFV=     0
 NROrb=    180 NOA=    29 NOB=    28 NVA=   151 NVB=   152
 Symmetrizing basis deriv contribution to polar:
 IMax=3 JMax=2 DiffMx= 0.00D+00
 G2DrvN: will do   17 centers at a time, making    1 passes doing MaxLOS=2.
 FoFDir/FoFCou used for L=0 through L=2.
 DoAtom=TTTTTTTTTTTTTTTT
          Differentiating once with respect to electric field.
                with respect to dipole field.
          Differentiating once with respect to nuclear coordinates.
 Symmetry not used in FoFDir.
 MinBra= 0 MaxBra= 2 Meth= 1.
 IRaf=       0 NMat=  51 IRICut=      51 DoRegI=T DoRafI=T ISym2E= 0 JSym2E=0.
          There are  51 degrees of freedom in the 1st order CPHF.
    48 vectors were produced by pass  0.
 AX will form  48 AO Fock derivatives at one time.
    48 vectors were produced by pass  1.
    48 vectors were produced by pass  2.
    48 vectors were produced by pass  3.
    48 vectors were produced by pass  4.
    48 vectors were produced by pass  5.
    30 vectors were produced by pass  6.
     3 vectors were produced by pass  7.
     3 vectors were produced by pass  8.
 Inv2:  IOpt= 1 Iter= 1 AM= 2.66D-15 Conv= 1.00D-12.
 Inverted reduced A of dimension  324 with in-core refinement.
 Isotropic polarizability for W=    0.000000       68.19 Bohr**3.
 End of Minotr Frequency-dependent properties file   721 does not exist.

 **********************************************************************

            Population analysis using the SCF density.

 **********************************************************************

 Alpha  occ. eigenvalues --  -19.19947 -19.18686 -19.15801 -10.23538 -10.23530
 Alpha  occ. eigenvalues --  -10.19616 -10.18339  -1.15311  -1.03407  -0.91337
 Alpha  occ. eigenvalues --   -0.81159  -0.69550  -0.68643  -0.59605  -0.56030
 Alpha  occ. eigenvalues --   -0.52338  -0.49046  -0.47635  -0.45546  -0.44246
 Alpha  occ. eigenvalues --   -0.43702  -0.40703  -0.39161  -0.38725  -0.36496
 Alpha  occ. eigenvalues --   -0.32701  -0.30178  -0.29318  -0.28429
 Alpha virt. eigenvalues --    0.02892   0.03479   0.05896   0.06471   0.06884
 Alpha virt. eigenvalues --    0.10342   0.10482   0.12691   0.13675   0.14037
 Alpha virt. eigenvalues --    0.15307   0.19203   0.19815   0.21251   0.22851
 Alpha virt. eigenvalues --    0.30660   0.31504   0.32578   0.35620   0.38872
 Alpha virt. eigenvalues --    0.40954   0.43014   0.45861   0.47763   0.49573
 Alpha virt. eigenvalues --    0.49881   0.52907   0.54183   0.55195   0.55854
 Alpha virt. eigenvalues --    0.56363   0.58331   0.59790   0.60434   0.61650
 Alpha virt. eigenvalues --    0.62475   0.67127   0.73546   0.75369   0.79518
 Alpha virt. eigenvalues --    0.81732   0.88500   0.89447   0.91158   0.93493
 Alpha virt. eigenvalues --    0.94423   0.97128   1.00821   1.04803   1.11289
 Alpha virt. eigenvalues --    1.14193   1.18186   1.19555   1.22736   1.33048
 Alpha virt. eigenvalues --    1.35334   1.38438   1.39898   1.43084   1.43460
 Alpha virt. eigenvalues --    1.46215   1.47501   1.48789   1.51069   1.52127
 Alpha virt. eigenvalues --    1.53000   1.54875   1.56454   1.58647   1.60987
 Alpha virt. eigenvalues --    1.64293   1.65215   1.67555   1.68508   1.74435
 Alpha virt. eigenvalues --    1.74566   1.78895   1.81928   1.85200   1.86446
 Alpha virt. eigenvalues --    1.96086   1.98990   2.00081   2.03160   2.06369
 Alpha virt. eigenvalues --    2.09938   2.11642   2.18387   2.21055   2.26717
 Alpha virt. eigenvalues --    2.31841   2.34614   2.37051   2.41868   2.42589
 Alpha virt. eigenvalues --    2.44732   2.47169   2.48227   2.51363   2.53896
 Alpha virt. eigenvalues --    2.56121   2.56914   2.58489   2.60141   2.62936
 Alpha virt. eigenvalues --    2.69967   2.70898   2.76171   2.77811   2.80395
 Alpha virt. eigenvalues --    2.83994   2.85760   2.88905   2.91522   2.96211
 Alpha virt. eigenvalues --    3.02817   3.06208   3.15109   3.16404   3.22428
 Alpha virt. eigenvalues --    3.26571   3.29235   3.41314   3.44031   3.63186
 Alpha virt. eigenvalues --    3.69188   3.76791   3.77367   3.83201   3.85480
 Alpha virt. eigenvalues --    3.88996   3.91679   4.00078   4.22909   4.25239
 Alpha virt. eigenvalues --    4.67637   4.83113   4.85582   4.86408   4.95433
 Alpha virt. eigenvalues --    5.20880   5.28415   5.58780   5.80580  23.73958
 Alpha virt. eigenvalues --   23.79121  23.81402  23.90676  49.76242  49.81763
 Alpha virt. eigenvalues --   49.84918
  Beta  occ. eigenvalues --  -19.19671 -19.17868 -19.14091 -10.23562 -10.23543
  Beta  occ. eigenvalues --  -10.19594 -10.18335  -1.14197  -0.99815  -0.90060
  Beta  occ. eigenvalues --   -0.80714  -0.69150  -0.67998  -0.59276  -0.54277
  Beta  occ. eigenvalues --   -0.51272  -0.48674  -0.46861  -0.43816  -0.43530
  Beta  occ. eigenvalues --   -0.42127  -0.40403  -0.38462  -0.37552  -0.36128
  Beta  occ. eigenvalues --   -0.29642  -0.28183  -0.27543
  Beta virt. eigenvalues --   -0.17131   0.02963   0.04131   0.05925   0.06541
  Beta virt. eigenvalues --    0.07051   0.10439   0.10563   0.12736   0.13791
  Beta virt. eigenvalues --    0.14439   0.15633   0.19386   0.19904   0.21644
  Beta virt. eigenvalues --    0.22990   0.30888   0.31638   0.32773   0.35742
  Beta virt. eigenvalues --    0.39386   0.41231   0.43559   0.46752   0.48018
  Beta virt. eigenvalues --    0.49741   0.50066   0.53142   0.54362   0.55234
  Beta virt. eigenvalues --    0.55974   0.56507   0.58385   0.59848   0.60445
  Beta virt. eigenvalues --    0.62023   0.62609   0.67335   0.73815   0.76365
  Beta virt. eigenvalues --    0.81091   0.82162   0.89375   0.89992   0.91641
  Beta virt. eigenvalues --    0.93791   0.94781   0.97424   1.01227   1.05282
  Beta virt. eigenvalues --    1.11597   1.14840   1.19054   1.19620   1.23151
  Beta virt. eigenvalues --    1.33388   1.35625   1.38553   1.40058   1.43207
  Beta virt. eigenvalues --    1.43543   1.46391   1.47610   1.48955   1.51207
  Beta virt. eigenvalues --    1.52270   1.53173   1.55183   1.56533   1.58737
  Beta virt. eigenvalues --    1.61639   1.64606   1.65728   1.67765   1.68839
  Beta virt. eigenvalues --    1.74674   1.74789   1.79051   1.82354   1.85496
  Beta virt. eigenvalues --    1.86547   1.97025   1.99422   2.00255   2.03437
  Beta virt. eigenvalues --    2.06612   2.10208   2.11935   2.18659   2.21368
  Beta virt. eigenvalues --    2.26860   2.32341   2.34760   2.37100   2.42000
  Beta virt. eigenvalues --    2.42723   2.44813   2.47010   2.48358   2.51453
  Beta virt. eigenvalues --    2.54300   2.56295   2.57419   2.58676   2.60563
  Beta virt. eigenvalues --    2.63369   2.70371   2.71224   2.76496   2.78335
  Beta virt. eigenvalues --    2.80890   2.84592   2.86180   2.91416   2.92591
  Beta virt. eigenvalues --    2.97631   3.04270   3.06690   3.16828   3.18895
  Beta virt. eigenvalues --    3.23055   3.27297   3.30725   3.43152   3.45500
  Beta virt. eigenvalues --    3.64308   3.70122   3.76851   3.77433   3.83363
  Beta virt. eigenvalues --    3.87895   3.89381   3.92414   4.00429   4.22969
  Beta virt. eigenvalues --    4.25386   4.68079   4.84615   4.86528   4.89093
  Beta virt. eigenvalues --    5.00094   5.22578   5.29614   5.60348   5.81632
  Beta virt. eigenvalues --   23.73937  23.79125  23.81406  23.90682  49.76909
  Beta virt. eigenvalues --   49.82188  49.86632
          Condensed to atoms (all electrons):
              1          2          3          4          5          6
     1  C    4.852764   0.388153   0.395316   0.338625  -0.050005  -0.059790
     2  H    0.388153   0.588964  -0.024483  -0.059548   0.010876   0.002385
     3  H    0.395316  -0.024483   0.555781  -0.039974  -0.007841  -0.003301
     4  C    0.338625  -0.059548  -0.039974   5.296083   0.382408   0.294075
     5  H   -0.050005   0.010876  -0.007841   0.382408   0.595455  -0.022427
     6  C   -0.059790   0.002385  -0.003301   0.294075  -0.022427   4.925926
     7  H   -0.003582  -0.000906   0.005073  -0.027514  -0.007504   0.397857
     8  H    0.007776  -0.000473  -0.000132  -0.030760  -0.007908   0.399552
     9  H   -0.007706   0.004962  -0.001219  -0.036764   0.009059   0.402388
    10  C   -0.052036  -0.009278   0.008479   0.313625  -0.047867  -0.050816
    11  H   -0.010584   0.006558  -0.000288  -0.063172   0.011581   0.004908
    12  H    0.007712  -0.000465  -0.000164  -0.036913  -0.010231  -0.005815
    13  O   -0.001541  -0.000305  -0.000224  -0.046508   0.008476   0.004578
    14  O    0.220379  -0.032225  -0.018150  -0.036707   0.007538   0.003520
    15  O   -0.063037   0.008701   0.005980  -0.016253  -0.000730   0.000163
    16  H    0.003554   0.000266  -0.001281   0.005637   0.000689  -0.000286
              7          8          9         10         11         12
     1  C   -0.003582   0.007776  -0.007706  -0.052036  -0.010584   0.007712
     2  H   -0.000906  -0.000473   0.004962  -0.009278   0.006558  -0.000465
     3  H    0.005073  -0.000132  -0.001219   0.008479  -0.000288  -0.000164
     4  C   -0.027514  -0.030760  -0.036764   0.313625  -0.063172  -0.036913
     5  H   -0.007504  -0.007908   0.009059  -0.047867   0.011581  -0.010231
     6  C    0.397857   0.399552   0.402388  -0.050816   0.004908  -0.005815
     7  H    0.570505  -0.026286  -0.029707   0.006700  -0.000664  -0.000139
     8  H   -0.026286   0.571592  -0.030054  -0.004266  -0.001407   0.007313
     9  H   -0.029707  -0.030054   0.580565  -0.006907   0.006391  -0.001473
    10  C    0.006700  -0.004266  -0.006907   4.799844   0.384571   0.389841
    11  H   -0.000664  -0.001407   0.006391   0.384571   0.617719  -0.036070
    12  H   -0.000139   0.007313  -0.001473   0.389841  -0.036070   0.577951
    13  O   -0.000232  -0.000018  -0.000022   0.257908  -0.032062  -0.025168
    14  O    0.000067  -0.000243   0.000032  -0.004251  -0.000059  -0.000429
    15  O    0.000009   0.000004  -0.000155   0.025521   0.001553   0.000448
    16  H    0.000019   0.000005   0.000062  -0.032140   0.000267   0.002588
             13         14         15         16
     1  C   -0.001541   0.220379  -0.063037   0.003554
     2  H   -0.000305  -0.032225   0.008701   0.000266
     3  H   -0.000224  -0.018150   0.005980  -0.001281
     4  C   -0.046508  -0.036707  -0.016253   0.005637
     5  H    0.008476   0.007538  -0.000730   0.000689
     6  C    0.004578   0.003520   0.000163  -0.000286
     7  H   -0.000232   0.000067   0.000009   0.000019
     8  H   -0.000018  -0.000243   0.000004   0.000005
     9  H   -0.000022   0.000032  -0.000155   0.000062
    10  C    0.257908  -0.004251   0.025521  -0.032140
    11  H   -0.032062  -0.000059   0.001553   0.000267
    12  H   -0.025168  -0.000429   0.000448   0.002588
    13  O    8.089278  -0.000482  -0.051421   0.141146
    14  O   -0.000482   8.010209   0.077629  -0.031105
    15  O   -0.051421   0.077629   8.018837   0.230566
    16  H    0.141146  -0.031105   0.230566   0.384493
 Mulliken atomic charges:
              1
     1  C    0.034003
     2  H    0.116819
     3  H    0.126427
     4  C   -0.236339
     5  H    0.128430
     6  C   -0.292919
     7  H    0.116303
     8  H    0.115304
     9  H    0.110548
    10  C    0.021071
    11  H    0.110756
    12  H    0.131015
    13  O   -0.343401
    14  O   -0.195722
    15  O   -0.237816
    16  H    0.295520
 Sum of Mulliken charges=   0.00000
 Atomic charges with hydrogens summed into heavy atoms:
              1
     1  C    0.277249
     2  H    0.000000
     3  H    0.000000
     4  C   -0.107909
     5  H    0.000000
     6  C    0.049236
     7  H    0.000000
     8  H    0.000000
     9  H    0.000000
    10  C    0.262843
    11  H    0.000000
    12  H    0.000000
    13  O   -0.343401
    14  O   -0.195722
    15  O    0.057704
    16  H    0.000000
 Sum of Mulliken charges=   0.00000
          Atomic-Atomic Spin Densities.
              1          2          3          4          5          6
     1  C    0.005833   0.006211  -0.001200  -0.017003  -0.001837   0.005654
     2  H    0.006211   0.002714  -0.000582  -0.005470  -0.000616   0.001324
     3  H   -0.001200  -0.000582  -0.001255   0.002076   0.000373  -0.000550
     4  C   -0.017003  -0.005470   0.002076   0.021537   0.004268  -0.006574
     5  H   -0.001837  -0.000616   0.000373   0.004268  -0.000064  -0.002391
     6  C    0.005654   0.001324  -0.000550  -0.006574  -0.002391   0.006187
     7  H   -0.000173  -0.000041  -0.000002   0.000111   0.000019   0.000268
     8  H   -0.000056   0.000054  -0.000009  -0.000045   0.000367   0.000848
     9  H   -0.000120  -0.000231   0.000054   0.000537  -0.000049  -0.000344
    10  C   -0.004731   0.000031  -0.000001   0.015724   0.001818  -0.000563
    11  H   -0.002127  -0.001646   0.000105   0.007109   0.000187  -0.002508
    12  H    0.001175   0.000291  -0.000056  -0.000042  -0.001046   0.001852
    13  O    0.004535   0.000926  -0.000088  -0.007914  -0.001056   0.000197
    14  O    0.004063  -0.000256   0.000436  -0.003557  -0.001978   0.000233
    15  O   -0.004451  -0.001194   0.000015   0.004744   0.000467  -0.000203
    16  H    0.000315   0.000600  -0.000035  -0.000310   0.000246   0.000138
              7          8          9         10         11         12
     1  C   -0.000173  -0.000056  -0.000120  -0.004731  -0.002127   0.001175
     2  H   -0.000041   0.000054  -0.000231   0.000031  -0.001646   0.000291
     3  H   -0.000002  -0.000009   0.000054  -0.000001   0.000105  -0.000056
     4  C    0.000111  -0.000045   0.000537   0.015724   0.007109  -0.000042
     5  H    0.000019   0.000367  -0.000049   0.001818   0.000187  -0.001046
     6  C    0.000268   0.000848  -0.000344  -0.000563  -0.002508   0.001852
     7  H   -0.000868   0.000118   0.000031   0.000024   0.000005  -0.000004
     8  H    0.000118  -0.001058   0.000241  -0.000127   0.000119  -0.000234
     9  H    0.000031   0.000241  -0.000292   0.000103   0.000135  -0.000134
    10  C    0.000024  -0.000127   0.000103  -0.038615   0.008940   0.006596
    11  H    0.000005   0.000119   0.000135   0.008940   0.027778  -0.008464
    12  H   -0.000004  -0.000234  -0.000134   0.006596  -0.008464   0.064506
    13  O    0.000004   0.000004  -0.000032  -0.027293  -0.007411  -0.008828
    14  O   -0.000005   0.000019  -0.000021  -0.001774  -0.000528   0.000281
    15  O    0.000000  -0.000003   0.000019   0.004782   0.002086  -0.000578
    16  H    0.000000  -0.000008  -0.000002  -0.001860   0.000184   0.000039
             13         14         15         16
     1  C    0.004535   0.004063  -0.004451   0.000315
     2  H    0.000926  -0.000256  -0.001194   0.000600
     3  H   -0.000088   0.000436   0.000015  -0.000035
     4  C   -0.007914  -0.003557   0.004744  -0.000310
     5  H   -0.001056  -0.001978   0.000467   0.000246
     6  C    0.000197   0.000233  -0.000203   0.000138
     7  H    0.000004  -0.000005   0.000000   0.000000
     8  H    0.000004   0.000019  -0.000003  -0.000008
     9  H   -0.000032  -0.000021   0.000019  -0.000002
    10  C   -0.027293  -0.001774   0.004782  -0.001860
    11  H   -0.007411  -0.000528   0.002086   0.000184
    12  H   -0.008828   0.000281  -0.000578   0.000039
    13  O    0.704081   0.006334  -0.038412  -0.002402
    14  O    0.006334   0.116999  -0.032481   0.001278
    15  O   -0.038412  -0.032481   0.310741   0.016222
    16  H   -0.002402   0.001278   0.016222  -0.044788
 Mulliken atomic spin densities:
              1
     1  C   -0.003912
     2  H    0.002116
     3  H   -0.000719
     4  C    0.015190
     5  H   -0.001290
     6  C    0.003570
     7  H   -0.000512
     8  H    0.000229
     9  H   -0.000104
    10  C   -0.036946
    11  H    0.023964
    12  H    0.055354
    13  O    0.622644
    14  O    0.089044
    15  O    0.261756
    16  H   -0.030384
 Sum of Mulliken spin densities=   1.00000
 APT atomic charges:
              1
     1  C    0.403966
     2  H   -0.025408
     3  H   -0.000981
     4  C   -0.018760
     5  H   -0.040976
     6  C    0.112037
     7  H   -0.012997
     8  H   -0.013111
     9  H   -0.014462
    10  C    0.252758
    11  H   -0.000029
    12  H    0.037946
    13  O   -0.163233
    14  O   -0.400418
    15  O    0.095787
    16  H   -0.212121
 Sum of APT charges=   0.00000
 APT Atomic charges with hydrogens summed into heavy atoms:
              1
     1  C    0.377577
     2  H    0.000000
     3  H    0.000000
     4  C   -0.059736
     5  H    0.000000
     6  C    0.071468
     7  H    0.000000
     8  H    0.000000
     9  H    0.000000
    10  C    0.290675
    11  H    0.000000
    12  H    0.000000
    13  O   -0.163233
    14  O   -0.400418
    15  O   -0.116334
    16  H    0.000000
 Sum of APT charges=   0.00000
 Electronic spatial extent (au):  <R**2>=  1302.5526
 Charge=     0.0000 electrons
 Dipole moment (field-independent basis, Debye):
    X=    -0.8148    Y=    -1.5476    Z=     3.2088  Tot=     3.6545
 Quadrupole moment (field-independent basis, Debye-Ang):
   XX=   -41.8463   YY=   -47.4930   ZZ=   -43.2747
   XY=     0.0548   XZ=    -2.2496   YZ=     3.8496
 Traceless Quadrupole moment (field-independent basis, Debye-Ang):
   XX=     2.3584   YY=    -3.2883   ZZ=     0.9299
   XY=     0.0548   XZ=    -2.2496   YZ=     3.8496
 Octapole moment (field-independent basis, Debye-Ang**2):
  XXX=   111.0391  YYY=  -173.1842  ZZZ=   -54.4576  XYY=    42.4662
  XXY=   -51.3847  XXZ=   -17.4730  XZZ=    36.4514  YZZ=   -47.1030
  YYZ=   -15.2326  XYZ=    -5.2914
 Hexadecapole moment (field-independent basis, Debye-Ang**3):
 XXXX=  -336.4913 YYYY=  -782.2427 ZZZZ=  -594.4138 XXXY=   168.3137
 XXXZ=   100.0179 YYYX=   191.0835 YYYZ=   -19.2234 ZZZX=    96.5531
 ZZZY=   -12.0590 XXYY=  -179.2228 XXZZ=  -155.4300 YYZZ=  -197.6414
 XXYZ=    -2.3010 YYXZ=    24.4109 ZZXY=    47.1645
 N-N= 3.357326224353D+02 E-N=-1.570713875161D+03  KE= 3.821831568362D+02
  Exact polarizability:  55.094 -10.627  74.181  -8.371   8.020  75.289
 Approx polarizability:  84.702 -19.745 115.984 -12.748  20.598 109.605
                          Isotropic Fermi Contact Couplings
        Atom                 a.u.       MegaHertz       Gauss      10(-4) cm-1
     1  C(13)              0.00061       0.68210       0.24339       0.22752
     2  H(1)               0.00155       6.92711       2.47176       2.31063
     3  H(1)              -0.00035      -1.56657      -0.55899      -0.52255
     4  C(13)              0.01219      13.70382       4.88986       4.57110
     5  H(1)              -0.00011      -0.50762      -0.18113      -0.16932
     6  C(13)             -0.00030      -0.33173      -0.11837      -0.11065
     7  H(1)              -0.00017      -0.76028      -0.27129      -0.25360
     8  H(1)               0.00057       2.56911       0.91672       0.85696
     9  H(1)               0.00005       0.22300       0.07957       0.07438
    10  C(13)             -0.02019     -22.69218      -8.09713      -7.56929
    11  H(1)               0.01061      47.44269      16.92873      15.82518
    12  H(1)               0.02680     119.81163      42.75177      39.96486
    13  O(17)              0.02556     -15.49595      -5.52934      -5.16889
    14  O(17)              0.01606      -9.73540      -3.47383      -3.24738
    15  O(17)             -0.02396      14.52522       5.18296       4.84509
    16  H(1)              -0.02149     -96.05718     -34.27559     -32.04123
 --------------------------------------------------------
       Center         ----  Spin Dipole Couplings  ----
                      3XX-RR        3YY-RR        3ZZ-RR
 --------------------------------------------------------
     1   Atom       -0.006115      0.005013      0.001102
     2   Atom       -0.003163      0.005780     -0.002617
     3   Atom       -0.003317      0.003256      0.000061
     4   Atom       -0.010159     -0.003167      0.013326
     5   Atom       -0.000644     -0.001362      0.002005
     6   Atom       -0.005213     -0.001739      0.006952
     7   Atom       -0.001534      0.000897      0.000637
     8   Atom       -0.002701      0.000535      0.002166
     9   Atom       -0.001412      0.001242      0.000169
    10   Atom       -0.028180      0.010596      0.017584
    11   Atom        0.008620     -0.002249     -0.006371
    12   Atom       -0.010185     -0.004298      0.014483
    13   Atom       -1.219399      0.617788      0.601611
    14   Atom       -0.266042      0.204155      0.061888
    15   Atom       -0.647428     -0.014623      0.662052
    16   Atom       -0.086381      0.046247      0.040134
 --------------------------------------------------------
                        XY            XZ            YZ
 --------------------------------------------------------
     1   Atom       -0.001564     -0.001206     -0.006522
     2   Atom        0.003285     -0.002221     -0.003072
     3   Atom       -0.002177      0.000845     -0.003900
     4   Atom       -0.003119      0.006537     -0.010634
     5   Atom       -0.004613      0.005316     -0.003502
     6   Atom       -0.000519     -0.000938     -0.002980
     7   Atom       -0.000809      0.000306     -0.001943
     8   Atom       -0.000233     -0.000093     -0.002373
     9   Atom        0.001321     -0.001160     -0.002419
    10   Atom        0.017575     -0.003477      0.004917
    11   Atom        0.008376     -0.007251     -0.004184
    12   Atom       -0.000255     -0.009263      0.000554
    13   Atom        0.453475      0.445586      1.922122
    14   Atom        0.020144     -0.010179      0.364973
    15   Atom       -0.084037     -0.103781      0.929379
    16   Atom       -0.026090     -0.040288      0.124148
 --------------------------------------------------------


 ---------------------------------------------------------------------------------
              Anisotropic Spin Dipole Couplings in Principal Axis System
 ---------------------------------------------------------------------------------

       Atom             a.u.   MegaHertz   Gauss  10(-4) cm-1        Axes

              Baa    -0.0072    -0.964    -0.344    -0.322  0.8746  0.3110  0.3720
     1 C(13)  Bbb    -0.0027    -0.362    -0.129    -0.121 -0.4837  0.5058  0.7143
              Bcc     0.0099     1.326     0.473     0.442 -0.0340  0.8046 -0.5928
 
              Baa    -0.0052    -2.751    -0.982    -0.918  0.7888 -0.0653  0.6111
     2 H(1)   Bbb    -0.0029    -1.564    -0.558    -0.522 -0.5226  0.4520  0.7229
              Bcc     0.0081     4.315     1.540     1.439  0.3234  0.8896 -0.3224
 
              Baa    -0.0040    -2.145    -0.765    -0.716  0.9225  0.3560  0.1493
     3 H(1)   Bbb    -0.0024    -1.274    -0.455    -0.425 -0.3110  0.4562  0.8338
              Bcc     0.0064     3.419     1.220     1.141 -0.2288  0.8156 -0.5315
 
              Baa    -0.0119    -1.595    -0.569    -0.532  0.9726  0.0830 -0.2172
     4 C(13)  Bbb    -0.0084    -1.124    -0.401    -0.375  0.0203  0.9002  0.4350
              Bcc     0.0203     2.719     0.970     0.907  0.2316 -0.4275  0.8738
 
              Baa    -0.0059    -3.156    -1.126    -1.053  0.7712  0.5808 -0.2608
     5 H(1)   Bbb    -0.0033    -1.742    -0.621    -0.581 -0.2607  0.6618  0.7029
              Bcc     0.0092     4.898     1.748     1.634  0.5808 -0.4741  0.6618
 
              Baa    -0.0055    -0.734    -0.262    -0.245  0.9626  0.2377  0.1297
     6 C(13)  Bbb    -0.0025    -0.329    -0.117    -0.110 -0.2648  0.9265  0.2672
              Bcc     0.0079     1.062     0.379     0.354 -0.0567 -0.2916  0.9549
 
              Baa    -0.0018    -0.981    -0.350    -0.327  0.8836  0.4152  0.2166
     7 H(1)   Bbb    -0.0010    -0.545    -0.194    -0.182 -0.4322  0.5451  0.7184
              Bcc     0.0029     1.526     0.545     0.509 -0.1802  0.7284 -0.6611
 
              Baa    -0.0027    -1.461    -0.521    -0.487  0.9883  0.1293  0.0812
     8 H(1)   Bbb    -0.0011    -0.598    -0.213    -0.199 -0.1524  0.8033  0.5757
              Bcc     0.0039     2.059     0.735     0.687  0.0092 -0.5813  0.8136
 
              Baa    -0.0020    -1.082    -0.386    -0.361  0.9103 -0.0655  0.4086
     9 H(1)   Bbb    -0.0018    -0.934    -0.333    -0.312 -0.2617  0.6739  0.6909
              Bcc     0.0038     2.016     0.719     0.672  0.3206  0.7359 -0.5964
 
              Baa    -0.0354    -4.755    -1.697    -1.586  0.9266 -0.3639  0.0945
    10 C(13)  Bbb     0.0144     1.930     0.689     0.644  0.3304  0.6681 -0.6667
              Bcc     0.0211     2.826     1.008     0.943  0.1795  0.6490  0.7393
 
              Baa    -0.0095    -5.058    -1.805    -1.687  0.2678  0.2310  0.9354
    11 H(1)   Bbb    -0.0068    -3.620    -1.292    -1.207 -0.5016  0.8623 -0.0694
              Bcc     0.0163     8.678     3.097     2.895  0.8226  0.4505 -0.3468
 
              Baa    -0.0133    -7.084    -2.528    -2.363  0.9486  0.0074  0.3164
    12 H(1)   Bbb    -0.0043    -2.302    -0.821    -0.768  0.0017  0.9996 -0.0286
              Bcc     0.0176     9.386     3.349     3.131 -0.3165  0.0277  0.9482
 
              Baa    -1.3255    95.916    34.225    31.994  0.9400 -0.3244  0.1062
    13 O(17)  Bbb    -1.3111    94.871    33.852    31.645 -0.3000 -0.6370  0.7101
              Bcc     2.6367  -190.786   -68.077   -63.639  0.1627  0.6993  0.6961
 
              Baa    -0.2773    20.062     7.159     6.692  0.8807 -0.3090  0.3589
    14 O(17)  Bbb    -0.2277    16.477     5.879     5.496 -0.4735 -0.5556  0.6835
              Bcc     0.5050   -36.539   -13.038   -12.188  0.0118  0.7719  0.6356
 
              Baa    -0.6712    48.567    17.330    16.200  0.5319  0.7135 -0.4560
    15 O(17)  Bbb    -0.6506    47.076    16.798    15.703  0.8441 -0.4039  0.3527
              Bcc     1.3218   -95.643   -34.128   -31.903 -0.0675  0.5725  0.8171
 
              Baa    -0.1004   -53.558   -19.111   -17.865  0.8669 -0.2231  0.4457
    16 H(1)   Bbb    -0.0754   -40.214   -14.349   -13.414  0.4663  0.6789 -0.5671
              Bcc     0.1757    93.771    33.460    31.279 -0.1761  0.6995  0.6926
 

 ---------------------------------------------------------------------------------

 Use density number 0.
 Entering OneElI...
 Calculate overlap and kinetic energy integrals
    NBasis = 187  MinDer = 2  MaxDer = 2
 Requested accuracy = 0.1000D-12
 PrsmSu:  NPrtUS=   1 ThrOK=F
 PRISM was handed   130758925 working-precision words and  2550 shell-pairs
 Entering OneElI...
 Calculate potential energy integrals
    NBasis = 187  MinDer = 2  MaxDer = 2
 Requested accuracy = 0.1000D-12
 PrsmSu:  NPrtUS=   8 ThrOK=T
 PRISM was handed    16300404 working-precision words and  2402 shell-pairs
 PRISM was handed    16300404 working-precision words and  2402 shell-pairs
 PRISM was handed    16300404 working-precision words and  2402 shell-pairs
 PRISM was handed    16300404 working-precision words and  2402 shell-pairs
 PRISM was handed    16300404 working-precision words and  2402 shell-pairs
 PRISM was handed    16300404 working-precision words and  2402 shell-pairs
 PRISM was handed    16300404 working-precision words and  2402 shell-pairs
 PRISM was handed    16300404 working-precision words and  2402 shell-pairs
 Polarizability after L701:
                1             2             3
      1  0.550936D+02
      2 -0.106269D+02  0.741806D+02
      3 -0.837089D+01  0.801954D+01  0.752885D+02
 Dipole Derivatives after L701:
               1            2            3            4            5
      1 0.272287D+00-0.859281D-01 0.223729D-01-0.723562D-01-0.201802D-01
      2 0.200540D+00 0.543400D+00-0.288585D+00-0.139733D+00 0.155203D-02
      3-0.185533D-01 0.172849D+00 0.396212D+00-0.251364D-01-0.231899D-01
               6            7            8            9           10
      1-0.438972D-01-0.213449D-02 0.778772D-01-0.293544D-01 0.461048D-01
      2-0.481733D-03 0.887930D-01-0.466986D-01 0.846188D-01 0.244314D-01
      3-0.541958D-02-0.779654D-02 0.228808D-01 0.458900D-01 0.309824D-01
              11           12           13           14           15
      1 0.911941D-01 0.646527D-02-0.112560D+00-0.588773D-01-0.501278D-02
      2-0.117469D+00 0.359615D-01-0.462847D-01-0.237497D-01-0.791215D-02
      3-0.688198D-01 0.150832D-01-0.284349D-01-0.206253D-01 0.133824D-01
              16           17           18           19           20
      1 0.115938D+00-0.284449D-01 0.793443D-02-0.156743D-01 0.756006D-01
      2 0.119486D-02 0.156134D+00 0.760354D-01 0.104970D+00-0.534221D-01
      3-0.213858D-01 0.455190D-01 0.640399D-01-0.326947D-01 0.857319D-01
              21           22           23           24           25
      1 0.406046D-02 0.693930D-01 0.189657D-01 0.143904D-01-0.104069D+00
      2 0.225578D-01-0.107861D-01-0.425470D-01-0.308266D-01-0.868192D-01
      3 0.301065D-01 0.304589D-01-0.119269D+00-0.661790D-01-0.132843D-01
              26           27           28           29           30
      1-0.568983D-01-0.712641D-01 0.222276D+00 0.161414D+00 0.170693D-01
      2 0.254150D-01-0.277611D-01 0.180925D+00 0.292650D+00-0.148222D-01
      3 0.206343D-02 0.352677D-01 0.262691D+00-0.269941D+00 0.243348D+00
              31           32           33           34           35
      1-0.122962D+00-0.171936D+00-0.396609D-01 0.110744D+00-0.357990D-01
      2-0.344083D-01 0.115419D+00-0.395648D-01-0.193023D-01 0.568681D-01
      3-0.525270D-01 0.163922D+00 0.745709D-02-0.526178D-01 0.277322D-01
              36           37           38           39           40
      1 0.464944D-01-0.177279D+00-0.562530D-01-0.254751D+00-0.415295D+00
      2-0.113908D+00-0.367992D+00-0.404681D+00 0.652618D+00 0.347160D+00
      3-0.537743D-01-0.301872D+00 0.280861D+00 0.922620D-01 0.429433D+00
              41           42           43           44           45
      1 0.133154D+00-0.174060D+00 0.852103D-01-0.424769D+00 0.231366D+00
      2-0.640602D+00 0.452101D+00-0.536708D+00 0.618584D+00-0.525082D-01
      3-0.357714D+00-0.145356D+00-0.344081D+00 0.786148D+00-0.416434D+00
              46           47           48
      1 0.100376D+00 0.380879D+00 0.267847D+00
      2 0.294018D+00-0.480853D+00-0.747524D+00
      3 0.144818D+00-0.728148D+00-0.255885D+00
 Hessian after L701:
                1             2             3             4             5
      1  0.187574D+02
      2 -0.222678D+00  0.169401D+02
      3  0.266450D+01  0.689799D+00  0.128421D+02
      4 -0.228298D+01  0.113608D+01  0.771386D+00  0.216914D+01
      5  0.138123D+01 -0.420428D+01  0.395561D+00 -0.143144D+01  0.372926D+01
      6  0.774152D+00  0.322718D+00 -0.460057D+01 -0.784290D+00 -0.300514D+00
      7 -0.361714D+01 -0.137630D+01  0.456799D+00 -0.100372D+00  0.447386D-01
      8 -0.144592D+01 -0.288404D+01 -0.620739D+00  0.320431D-01  0.963962D-01
      9  0.451560D+00 -0.581298D+00 -0.453585D+01 -0.639866D-01  0.153252D-01
     10 -0.628046D+01 -0.686004D+00 -0.892320D+00  0.130725D+00 -0.145388D+00
     11 -0.649203D+00 -0.459648D+01  0.269038D+01 -0.810018D-01  0.113327D+00
     12 -0.926595D+00  0.287490D+01 -0.238147D+01 -0.145613D+00 -0.195672D+00
     13  0.177892D+00 -0.543245D-01 -0.161865D-01  0.429947D-01  0.876858D-01
     14 -0.467342D-01  0.149963D-01 -0.975520D-01  0.788109D-01  0.354056D-01
     15 -0.501569D-01 -0.150615D+00  0.612025D-01  0.828539D-01  0.821707D-01
     16 -0.390109D-01 -0.162655D-01 -0.133225D-01 -0.337385D-01  0.101881D-01
     17 -0.643875D-01 -0.130587D-01  0.172877D+00  0.198833D-01 -0.316297D-01
     18 -0.365071D-02  0.366857D-01  0.121381D+00  0.528491D-01  0.350127D-01
     19 -0.228611D-01 -0.153400D-01  0.291725D-01  0.603356D-02  0.237716D-02
     20 -0.711822D-03 -0.546546D-02 -0.282046D-01 -0.711965D-02 -0.338769D-02
     21  0.177496D-02 -0.129396D-01  0.225988D-01  0.617277D-02  0.172073D-02
     22 -0.346772D-01 -0.122431D-01 -0.569481D-01 -0.112302D-02  0.712690D-05
     23 -0.139378D-01 -0.444530D-01  0.554286D-01  0.477938D-02  0.184012D-02
     24 -0.625197D-01  0.478729D-01  0.185306D+00  0.783914D-02  0.365204D-02
     25  0.612200D-02  0.702320D-02 -0.140119D-01 -0.241018D-01 -0.802744D-02
     26 -0.656137D-02 -0.193640D-02  0.103249D-01 -0.245055D-02 -0.236185D-01
     27  0.168521D-01  0.113966D-01 -0.200351D-01 -0.123699D-01  0.108816D-01
     28  0.434295D-01 -0.675682D-01 -0.248575D-01  0.186266D-01  0.877898D-02
     29 -0.155594D+00  0.178437D+00  0.564421D-01  0.128586D-01 -0.686432D-01
     30 -0.431897D-01  0.370185D-02  0.256372D-01  0.651973D-02 -0.475502D-01
     31 -0.488638D-01  0.624835D-01  0.262723D-02 -0.152177D-01 -0.582082D-01
     32  0.605540D-01 -0.344947D-01 -0.384378D-02 -0.295419D-01  0.438362D-01
     33  0.120456D-01 -0.456042D-02  0.179837D-01 -0.133236D-01  0.319264D-01
     34 -0.169687D-01 -0.697584D-01 -0.508913D-01 -0.208278D-02  0.307589D-05
     35 -0.710712D-01  0.104659D+00  0.109511D+00  0.596112D-02  0.594600D-03
     36 -0.554549D-01  0.116802D+00  0.245222D-01  0.714056D-02  0.384510D-02
     37 -0.197184D+00 -0.150661D+00  0.517090D-02 -0.230839D-01  0.100856D-01
     38 -0.166318D+00  0.314853D+00 -0.155730D-01  0.489656D-01  0.652096D-01
     39  0.127856D-01 -0.416838D-01 -0.230266D+00  0.401650D-02  0.111690D-01
     40 -0.633965D+01  0.132602D+01 -0.291261D+01  0.212021D+00  0.117182D+00
     41  0.133849D+01 -0.578653D+01 -0.324595D+01  0.176792D+00  0.236781D+00
     42 -0.289495D+01 -0.330157D+01 -0.176004D+01  0.122586D+00  0.801714D-01
     43 -0.520208D-01  0.139238D+00  0.510700D-01 -0.967398D-01 -0.206802D-01
     44  0.618110D-01 -0.808785D-01 -0.111267D+00  0.290177D-01  0.108356D-01
     45  0.106408D+00  0.344962D-02  0.295581D+00 -0.424381D-01 -0.130356D+00
     46 -0.529813D-01  0.303088D-03  0.420774D-03 -0.944632D-04  0.145903D-02
     47  0.101984D-02  0.985789D-01 -0.571915D-01  0.636287D-02 -0.191918D-02
     48 -0.356793D-02 -0.146534D-01 -0.680828D-01  0.658360D-03  0.265660D-02
                6             7             8             9            10
      6  0.454405D+01
      7 -0.683699D-01  0.358249D+01
      8  0.113292D-01  0.168981D+01  0.244493D+01
      9  0.690199D-01 -0.516375D+00  0.792867D+00  0.450307D+01
     10 -0.177896D+00  0.713819D-01  0.708511D-01  0.706153D-01  0.183400D+02
     11 -0.149011D+00  0.653609D-01 -0.701653D-02 -0.940401D-01  0.165681D+01
     12 -0.317070D-01  0.428684D-01 -0.587700D-01  0.796963D-01  0.105752D+01
     13  0.815346D-01  0.187911D-01  0.426072D-02 -0.514300D-02 -0.234299D+01
     14  0.712633D-01 -0.344099D-02 -0.493136D-01 -0.433846D-01  0.106453D+01
     15  0.282274D-01 -0.151133D-02 -0.436637D-01 -0.148824D-02  0.703665D+00
     16  0.262295D-01  0.123865D-01 -0.265963D-01 -0.191712D-01 -0.505438D+01
     17  0.310713D-01 -0.300313D-01  0.630411D-03  0.936972D-02  0.917373D+00
     18  0.669936D-01 -0.396992D-01  0.261533D-01 -0.122690D-01 -0.139058D+01
     19  0.516812D-02 -0.199319D-01  0.188765D-02 -0.151084D-01  0.735007D-01
     20 -0.491001D-02  0.815073D-02 -0.291841D-01 -0.455296D-02 -0.354525D-01
     21  0.970215D-04 -0.336742D-01  0.171852D-01  0.445471D-01  0.602284D-02
     22 -0.782599D-04  0.748863D-03 -0.324530D-02 -0.122207D-02  0.456287D-01
     23  0.277586D-02 -0.577226D-02  0.478987D-02  0.170187D-02 -0.145711D-01
     24  0.145865D-02 -0.837865D-02  0.102034D-01  0.563958D-03  0.182966D-01
     25 -0.356238D-01  0.835740D-02 -0.864905D-02  0.311138D-02  0.732599D-01
     26 -0.266458D-02  0.305348D-02 -0.260220D-02 -0.122116D-03 -0.412982D-01
     27  0.487654D-01  0.249265D-02 -0.352131D-03 -0.363739D-02  0.755145D-01
     28  0.731010D-02  0.272501D-01 -0.125248D+00 -0.184616D-01 -0.453497D+01
     29 -0.447037D-01 -0.130079D+00  0.149282D+00  0.261335D-01 -0.256164D+01
     30 -0.167362D-01 -0.256977D-01  0.402225D-01 -0.553656D-01  0.700321D+00
     31 -0.254267D-01  0.676736D-02 -0.866946D-02  0.274036D-02 -0.194443D+00
     32  0.313397D-01  0.101626D-02 -0.233495D-02 -0.655664D-03  0.163461D+00
     33 -0.145389D-01  0.146691D-02 -0.162080D-02 -0.807239D-03 -0.177783D+00
     34 -0.807502D-04  0.747678D-03 -0.147101D-02  0.164973D-02  0.844445D-01
     35  0.758682D-03 -0.382488D-02  0.401483D-02 -0.306826D-02  0.473601D-01
     36  0.201491D-02 -0.555916D-02  0.775984D-02 -0.174100D-02  0.759460D-02
     37  0.181629D-02 -0.208923D-02 -0.251271D-01  0.589233D-02 -0.334715D-01
     38  0.192339D-01 -0.360280D-01  0.510746D-01 -0.141856D-01 -0.339565D+00
     39 -0.226682D-01  0.386586D-02 -0.591949D-02 -0.145505D-01  0.285374D+00
     40  0.176463D+00  0.154468D-01 -0.576080D-01  0.297816D-01 -0.151276D+00
     41  0.737738D-01 -0.130088D+00  0.138985D+00  0.417426D-02 -0.106294D+00
     42 -0.612396D-01  0.101055D+00 -0.310180D-01 -0.112027D+00 -0.160388D+00
     43  0.190772D-01 -0.550303D-02 -0.101802D+00  0.770629D-01 -0.182204D+00
     44 -0.676675D-01 -0.977637D-01  0.929878D-01 -0.114282D+00  0.189659D-01
     45 -0.101021D-01  0.947121D-01 -0.153849D+00  0.431973D-01 -0.148882D+00
     46  0.149588D-04  0.665317D-03  0.547942D-02 -0.294610D-02 -0.447305D-01
     47  0.520689D-02  0.119773D-02 -0.860300D-02  0.601878D-02 -0.914253D-02
     48 -0.305945D-02 -0.399491D-02  0.102115D-01 -0.236168D-02  0.229271D-01
               11            12            13            14            15
     11  0.151337D+02
     12  0.215302D+00  0.144447D+02
     13  0.113309D+01  0.529428D+00  0.196518D+01
     14 -0.438548D+01  0.229686D+00 -0.124182D+01  0.438406D+01
     15  0.323265D+00 -0.473138D+01 -0.890798D+00 -0.241622D+00  0.435172D+01
     16  0.918613D+00 -0.138929D+01  0.735671D-01 -0.151016D-01  0.695839D-01
     17 -0.432606D+01 -0.209871D+01 -0.104829D-01  0.151898D-01  0.573000D-01
     18 -0.208485D+01 -0.248322D+01  0.571269D-01  0.509176D-01  0.599223D-03
     19 -0.615706D-01  0.394785D-01  0.512104D-02 -0.241383D-01  0.977925D-02
     20  0.672747D-01 -0.154175D-01 -0.136345D-01 -0.266614D-01  0.296002D-01
     21  0.340770D-01  0.999682D-02  0.122136D-01  0.315385D-01  0.946155D-03
     22  0.882688D-03  0.102781D-01 -0.114202D-01 -0.105261D-01  0.356692D-01
     23  0.723180D-01  0.848347D-01 -0.203369D-01  0.137611D-01  0.134941D-01
     24  0.193929D-01  0.267440D-01  0.325502D-01  0.111203D-01 -0.233574D-01
     25 -0.112245D-01  0.386992D-02  0.100875D+00  0.819995D-01 -0.214202D-01
     26  0.578273D-01  0.822517D-02  0.875607D-01  0.190836D-01 -0.127741D-01
     27  0.479000D-01  0.729620D-01 -0.353113D-01 -0.204137D-01 -0.306792D-01
     28 -0.260774D+01  0.781476D+00 -0.364640D-01  0.126993D+00 -0.593409D-01
     29 -0.231406D+01 -0.118284D+01  0.999399D-01  0.116274D+00  0.333180D-01
     30 -0.104072D+01 -0.578685D+01 -0.111044D-01  0.277553D-01  0.149746D+00
     31  0.114828D+00 -0.242622D+00  0.185577D+00 -0.187125D-01  0.716021D-01
     32  0.214961D+00  0.867722D-01 -0.225465D-01 -0.465217D-01 -0.592078D-02
     33  0.566685D-01  0.159589D+00  0.570769D-01 -0.275750D-02 -0.286722D-01
     34  0.542276D-01  0.322723D-01 -0.508403D-01  0.563710D-01  0.114326D-01
     35 -0.385529D-01 -0.560948D-01  0.561760D-01 -0.100336D-01 -0.862517D-02
     36 -0.121419D-01  0.107148D+00  0.984441D-02 -0.154670D-01  0.277164D-01
     37 -0.411279D+00  0.345596D+00 -0.369553D-01 -0.429769D-01  0.459120D-01
     38  0.365135D+00 -0.290786D-01 -0.112601D+00  0.254840D-01 -0.113197D+00
     39 -0.122518D+00 -0.174691D+00  0.713129D-01 -0.676346D-01 -0.164381D-01
     40 -0.133738D+00 -0.118790D-01 -0.842886D-01 -0.768883D-02 -0.368306D-01
     41 -0.224087D+00  0.337903D+00  0.503370D-02 -0.803222D-01  0.328928D-01
     42  0.356983D+00  0.452150D+00  0.441853D-01  0.547744D-01  0.163369D+00
     43  0.182712D-01 -0.141259D+00 -0.415625D-02  0.275700D-02  0.278202D-01
     44 -0.137820D+00 -0.112693D+00  0.705369D-02 -0.207349D-01  0.917504D-02
     45 -0.159536D+00  0.208026D+00  0.585511D-01  0.134153D-01  0.475712D-01
     46 -0.633424D-02  0.144722D-01 -0.287683D-02 -0.328278D-03  0.173961D-02
     47  0.496816D-02 -0.883443D-01 -0.505855D-02 -0.519603D-02 -0.479717D-02
     48 -0.811460D-01  0.282644D-01  0.471924D-02 -0.163885D-02  0.917689D-03
               16            17            18            19            20
     16  0.145367D+02
     17 -0.390708D+00  0.138906D+02
     18  0.774777D+00  0.145381D+01  0.122379D+02
     19 -0.313425D+01 -0.118510D+01  0.365627D+00  0.318005D+01
     20 -0.126090D+01 -0.253239D+01 -0.464076D+00  0.129055D+01  0.232489D+01
     21  0.491918D+00 -0.591781D+00 -0.393335D+01 -0.493303D+00  0.698787D+00
     22 -0.405545D+01 -0.179999D+00 -0.242317D+00  0.413755D-01  0.551426D-01
     23 -0.155992D+00 -0.325153D+01  0.116794D+01  0.307544D-01 -0.197084D-01
     24 -0.244172D+00  0.136074D+01 -0.227852D+01  0.155804D-01 -0.305630D-01
     25 -0.192495D+01  0.982890D+00  0.552624D+00 -0.744929D-01  0.270868D-01
     26  0.107045D+01 -0.375177D+01  0.271442D+00  0.532167D-01  0.883333D-01
     27  0.341845D+00  0.159151D+00 -0.415249D+01 -0.335418D-01  0.986845D-03
     28 -0.325054D-01 -0.717565D-01  0.374950D-01 -0.266138D-01 -0.544116D-01
     29 -0.146589D+00  0.771708D-01 -0.157433D-01 -0.610188D-01  0.109547D+00
     30  0.103009D+00 -0.108378D+00 -0.326955D-01  0.421648D-01 -0.985747D-01
     31  0.343587D-01 -0.702110D-01  0.848224D-01  0.493804D-02 -0.502709D-02
     32 -0.450954D-01 -0.269902D-01 -0.444229D-01  0.262243D-02 -0.402853D-02
     33  0.725911D-01 -0.548228D-01  0.127823D-01  0.832688D-03 -0.584773D-03
     34 -0.175249D-01  0.110145D-01 -0.761730D-02 -0.341993D-04 -0.395600D-02
     35  0.373751D-02  0.177905D-01  0.944027D-02 -0.646813D-02  0.981709D-02
     36 -0.125164D-01  0.266668D-01 -0.135036D-01 -0.405787D-02  0.654404D-02
     37 -0.172721D+00  0.365986D-01 -0.301474D-01 -0.588910D-02 -0.508168D-02
     38  0.163751D-01  0.161011D+00 -0.281985D+00 -0.172413D-01  0.202866D-01
     39 -0.163662D-01 -0.284607D+00  0.642672D-01  0.115333D-01 -0.211261D-01
     40 -0.885276D-01  0.257779D-01 -0.182690D+00 -0.171306D-01  0.523405D-02
     41  0.346199D-01 -0.147111D+00 -0.878848D-01 -0.477014D-02 -0.212046D-03
     42 -0.177534D+00 -0.667843D-01  0.270285D+00  0.120178D-01 -0.401267D-01
     43 -0.951040D-01  0.844584D-02 -0.255108D-01 -0.880641D-02 -0.146133D-03
     44  0.489425D-02 -0.815646D-01 -0.628175D-01 -0.362285D-02 -0.245890D-02
     45 -0.678844D-02 -0.613068D-01  0.131596D+00  0.144201D-01 -0.267883D-01
     46 -0.882781D-02  0.689081D-03 -0.310748D-02 -0.100928D-02  0.274275D-03
     47 -0.162859D-02 -0.272318D-03 -0.962387D-02 -0.214758D-02  0.334928D-02
     48 -0.791915D-03 -0.458482D-02  0.267978D-03  0.236512D-03 -0.993856D-03
               21            22            23            24            25
     21  0.366014D+01
     22  0.341189D-01  0.404297D+01
     23 -0.460463D-01  0.232412D+00  0.323592D+01
     24  0.627175D-01  0.294925D+00 -0.122317D+01  0.186745D+01
     25 -0.593789D-01  0.478191D-01 -0.403328D-01 -0.566736D-01  0.180456D+01
     26  0.145594D-01 -0.705490D-01  0.164665D-01 -0.767300D-01 -0.110189D+01
     27  0.685517D-01 -0.717035D-01 -0.575304D-01  0.189307D-01 -0.278437D+00
     28  0.367697D-01 -0.174549D-01 -0.511830D-02 -0.532758D-03  0.407388D-02
     29 -0.991971D-01 -0.576577D-02 -0.261261D-01 -0.180125D-01  0.784769D-02
     30  0.138748D-01  0.923078D-02  0.115860D-01  0.376364D-01 -0.622365D-02
     31  0.117811D-02 -0.319525D-03  0.639000D-02  0.677893D-02 -0.322175D-01
     32  0.297618D-02  0.173324D-02 -0.643461D-03  0.535787D-02 -0.426565D-02
     33 -0.943871D-03 -0.234929D-02  0.598879D-02  0.394131D-04 -0.648776D-03
     34  0.137332D-02 -0.260594D-01 -0.130523D-01  0.153427D-01 -0.217016D-05
     35 -0.284215D-02 -0.117796D-01  0.288704D-01 -0.675941D-01  0.688058D-02
     36 -0.375043D-02  0.674987D-02 -0.354627D-01 -0.508452D-02  0.706183D-02
     37  0.205669D-02 -0.169239D-01  0.907119D-03 -0.195653D-02 -0.490437D-02
     38 -0.141212D-01  0.322573D-02 -0.142315D-01 -0.395748D-01  0.348152D-01
     39  0.613959D-03 -0.358844D-02 -0.658266D-02  0.418214D-01 -0.209593D-01
     40 -0.764752D-02 -0.658323D-02 -0.383270D-02 -0.110503D-01  0.146988D-01
     41 -0.214924D-01  0.367878D-03 -0.963902D-02 -0.741345D-04  0.152288D-01
     42  0.354271D-01 -0.787219D-02  0.174463D-01  0.267979D-01 -0.433699D-01
     43  0.607586D-03 -0.794705D-02 -0.227817D-02 -0.420275D-02  0.378442D-03
     44 -0.910788D-02  0.310348D-03 -0.522886D-02 -0.330336D-03  0.677414D-02
     45  0.188460D-01 -0.422902D-02  0.888389D-02  0.341088D-01 -0.287302D-01
     46 -0.202914D-03 -0.588812D-03 -0.187749D-04 -0.182636D-02  0.524116D-03
     47 -0.331623D-02  0.258911D-04 -0.240566D-02 -0.228858D-02  0.384493D-02
     48 -0.313585D-03 -0.664370D-03 -0.128944D-02  0.338588D-02 -0.119011D-02
               26            27            28            29            30
     26  0.355586D+01
     27 -0.106720D+00  0.400727D+01
     28  0.987776D-03  0.105341D-01  0.188580D+02
     29  0.154198D-02  0.235743D-01  0.359440D+00  0.146093D+02
     30  0.178257D-05 -0.248824D-01  0.176853D+01  0.347770D+01  0.157075D+02
     31 -0.285524D-01  0.159867D-01 -0.184669D+01  0.117452D+01  0.651616D+00
     32  0.303286D-01 -0.403986D-01  0.971046D+00 -0.428890D+01  0.227805D+00
     33 -0.467938D-01  0.443809D-02  0.504824D+00  0.213123D+00 -0.452661D+01
     34 -0.101115D-02 -0.431426D-04 -0.441681D+01 -0.272372D+00 -0.463390D+00
     35 -0.171829D-02  0.411226D-02 -0.244786D+00 -0.363409D+01  0.142271D+01
     36  0.741710D-02  0.110832D-02 -0.395719D+00  0.136687D+01 -0.231902D+01
     37  0.148842D-01 -0.601140D-02 -0.762963D+01  0.191450D+01 -0.232001D+01
     38  0.259429D-01 -0.145814D-01  0.195709D+01 -0.454235D+01 -0.458489D+01
     39 -0.258222D-01 -0.615510D-02 -0.232943D+01 -0.441097D+01 -0.384635D+01
     40  0.129388D-01 -0.176480D-01 -0.439053D-01 -0.158183D+00 -0.233805D+00
     41 -0.924495D-02 -0.867234D-02 -0.155834D+00 -0.983837D-01  0.192291D+00
     42 -0.184241D-01  0.909705D-02 -0.219109D+00  0.192587D+00  0.302529D-01
     43  0.761423D-02 -0.731454D-02 -0.432814D+00 -0.804296D-01 -0.222865D+00
     44 -0.608960D-02 -0.721081D-02 -0.889799D-01 -0.372215D+00  0.454750D+00
     45 -0.196102D-01  0.615301D-02 -0.179661D+00  0.385398D+00  0.736538D+00
     46  0.160751D-02 -0.843895D-03  0.665130D-01  0.257744D-02  0.448990D-01
     47  0.159375D-02 -0.212364D-02 -0.289621D-02  0.103225D+00  0.216013D-01
     48 -0.230958D-02  0.598055D-03  0.801699D-01 -0.368935D-02 -0.927045D-01
               31            32            33            34            35
     31  0.133962D+01
     32 -0.103234D+01  0.423065D+01
     33 -0.409217D+00 -0.316259D+00  0.443734D+01
     34  0.545898D-01 -0.867017D-01 -0.112106D+00  0.443461D+01
     35 -0.975941D-01  0.391647D-01 -0.118051D+00  0.402910D+00  0.349077D+01
     36 -0.113651D+00 -0.108650D+00 -0.427952D-03  0.584550D+00 -0.156722D+01
     37  0.434244D+00  0.317041D-01  0.118352D+00 -0.152657D-01 -0.592067D-01
     38  0.176715D-01 -0.899669D-01  0.217259D+00 -0.511901D-01 -0.397312D-02
     39  0.978412D-01  0.158918D+00 -0.567360D-01  0.446210D-01  0.192985D+00
     40  0.642983D-01 -0.132579D-01 -0.249757D-01 -0.587131D-02 -0.154911D-01
     41 -0.278925D-01 -0.223133D-01  0.459545D-02 -0.831850D-02  0.574819D-02
     42 -0.522763D-01 -0.388917D-02 -0.124660D-01 -0.119144D-01  0.240251D-01
     43  0.113607D-01  0.431997D-02 -0.314117D-01 -0.184761D-01 -0.673998D-02
     44 -0.309041D-01 -0.475032D-01  0.174258D-01 -0.102548D-01 -0.274534D-02
     45 -0.908690D-01  0.672554D-02  0.187296D-01 -0.230096D-01  0.426930D-01
     46  0.200157D-02 -0.271355D-02  0.462650D-02 -0.445403D-02 -0.606390D-02
     47  0.221755D-02  0.475575D-02 -0.153574D-02 -0.643999D-02 -0.103144D-01
     48 -0.113079D-02  0.414537D-02 -0.970007D-02 -0.221892D-01  0.172663D-01
               36            37            38            39            40
     36  0.184699D+01
     37  0.290594D-01  0.102707D+02
     38  0.125042D+00 -0.372920D+00  0.450858D+01
     39  0.175107D+00  0.284617D+01  0.258255D+01  0.427862D+01
     40 -0.214338D-01 -0.194201D+00 -0.427806D+00 -0.201054D+00  0.809762D+01
     41  0.246168D-01 -0.435319D+00  0.474292D+00  0.409997D+00  0.266248D+01
     42  0.277768D-01 -0.193268D+00  0.425615D+00 -0.237624D+00  0.393989D+00
     43 -0.199592D-01 -0.307011D+00 -0.160672D+00 -0.173907D+00 -0.143877D+01
     44  0.452135D-01 -0.159779D+00  0.558949D-01  0.364603D+00 -0.362920D+01
     45  0.675679D-01 -0.194041D+00  0.223049D+00 -0.835544D-01  0.316546D+01
     46 -0.236500D-01 -0.206564D+01 -0.393803D+00 -0.632220D+00 -0.338887D-01
     47  0.816298D-02 -0.346325D+00 -0.141724D+01  0.126664D+01  0.297169D+00
     48  0.635772D-01 -0.654589D+00  0.151444D+01  0.128601D+00 -0.104071D+00
               41            42            43            44            45
     41  0.832175D+01
     42  0.523613D+01  0.493607D+01
     43 -0.364524D+01  0.317076D+01  0.772263D+01
     44 -0.269961D+01 -0.308810D+01  0.427468D+01  0.489901D+01
     45 -0.315693D+01 -0.396656D+01 -0.261787D+01  0.437904D+00  0.592277D+01
     46  0.280732D+00 -0.839145D-01 -0.508481D+01 -0.383001D+00 -0.103035D+00
     47 -0.100099D+00  0.162190D+00 -0.437341D+00 -0.160188D+01  0.258685D+01
     48  0.204627D+00  0.198730D+00 -0.102095D+00  0.224441D+01 -0.347048D+01
               46            47            48
     46  0.723020D+01
     47  0.499141D+00  0.293146D+01
     48  0.785573D+00 -0.388745D+01  0.322236D+01
 ReadGW:  IGet=0 IStart=         114 Next=        7220 LGW=        7106.
 ICntrl=12127.
 Symmetry not used in FoFDir.
 MinBra= 0 MaxBra= 2 Meth= 1.
 IRaf=       0 NMat=   1 IRICut=       1 DoRegI=T DoRafI=F ISym2E= 0 JSym2E=0.
 PrsmSu:  NPrtUS=   8 ThrOK=T
 PRISM was handed    16286631 working-precision words and  2475 shell-pairs
 PRISM was handed    16286631 working-precision words and  2475 shell-pairs
 PRISM was handed    16286631 working-precision words and  2475 shell-pairs
 PRISM was handed    16286631 working-precision words and  2475 shell-pairs
 PRISM was handed    16286631 working-precision words and  2475 shell-pairs
 PRISM was handed    16286631 working-precision words and  2475 shell-pairs
 PRISM was handed    16286631 working-precision words and  2475 shell-pairs
 PRISM was handed    16286631 working-precision words and  2475 shell-pairs
 Pruned (  75, 302) grid will be used in CalDFT.
 CkSvGd:  ISavGI=        -1 IRadAn=       4 IRASav=       4 ISavGd=        -1.
 CalDSu:  NPrtUS=   8 ThrOK=T
 IPart= 0 IRanGd=          0 ScrnBf=T ScrnGd=T RCrit=4.00D+00 DoMicB=T.
 IPart= 6 IRanGd=          0 ScrnBf=T ScrnGd=T RCrit=4.00D+00 DoMicB=T.
 IPart= 2 IRanGd=          0 ScrnBf=T ScrnGd=T RCrit=4.00D+00 DoMicB=T.
 IPart= 4 IRanGd=          0 ScrnBf=T ScrnGd=T RCrit=4.00D+00 DoMicB=T.
 CutRad = 1000.00    CtRdIn =    0.00    XCrit =  15.00   ICut = 0
 CutRad = 1000.00    CtRdIn =    0.00    XCrit =  15.00   ICut = 0
 CutRad = 1000.00    CtRdIn =    0.00    XCrit =  15.00   ICut = 0
 IPart= 5 IRanGd=          0 ScrnBf=T ScrnGd=T RCrit=4.00D+00 DoMicB=T.
 IPart= 7 IRanGd=          0 ScrnBf=T ScrnGd=T RCrit=4.00D+00 DoMicB=T.
 CutRad = 1000.00    CtRdIn =    0.00    XCrit =  15.00   ICut = 0
 IPart= 3 IRanGd=          0 ScrnBf=T ScrnGd=T RCrit=4.00D+00 DoMicB=T.
 CutRad = 1000.00    CtRdIn =    0.00    XCrit =  15.00   ICut = 0
 CutRad = 1000.00    CtRdIn =    0.00    XCrit =  15.00   ICut = 0
 CutRad = 1000.00    CtRdIn =    0.00    XCrit =  15.00   ICut = 0
 IPart= 1 IRanGd=          0 ScrnBf=T ScrnGd=T RCrit=4.00D+00 DoMicB=T.
 CutRad = 1000.00    CtRdIn =    0.00    XCrit =  15.00   ICut = 0
 IPart= 2        14026 of        15626 points in      30 batches and       79 microbatches, Max-NSigAt=      16 Max-NSgAt2=      16
 IPart= 4        12749 of        14850 points in      32 batches and      100 microbatches, Max-NSigAt=      16 Max-NSgAt2=      16
 IPart= 7        13701 of        15644 points in      32 batches and      100 microbatches, Max-NSigAt=      16 Max-NSgAt2=      16
 IPart= 3        14754 of        17142 points in      37 batches and      113 microbatches, Max-NSigAt=      16 Max-NSgAt2=      16
 IPart= 0        13118 of        14838 points in      30 batches and       99 microbatches, Max-NSigAt=      16 Max-NSgAt2=      16
 IPart= 5        13926 of        15694 points in      32 batches and       91 microbatches, Max-NSigAt=      16 Max-NSgAt2=      16
 IPart= 1        14896 of        17408 points in      36 batches and      100 microbatches, Max-NSigAt=      16 Max-NSgAt2=      16
 IPart= 6        14735 of        16734 points in      34 batches and       95 microbatches, Max-NSigAt=      16 Max-NSgAt2=      16
 Polarizability after L703:
                1             2             3
      1  0.550936D+02
      2 -0.106269D+02  0.741806D+02
      3 -0.837089D+01  0.801954D+01  0.752885D+02
 Dipole Derivatives after L703:
               1            2            3            4            5
      1 0.272287D+00-0.859281D-01 0.223729D-01-0.723562D-01-0.201802D-01
      2 0.200540D+00 0.543400D+00-0.288585D+00-0.139733D+00 0.155203D-02
      3-0.185533D-01 0.172849D+00 0.396212D+00-0.251364D-01-0.231899D-01
               6            7            8            9           10
      1-0.438972D-01-0.213449D-02 0.778772D-01-0.293544D-01 0.461048D-01
      2-0.481733D-03 0.887930D-01-0.466986D-01 0.846188D-01 0.244314D-01
      3-0.541958D-02-0.779654D-02 0.228808D-01 0.458900D-01 0.309824D-01
              11           12           13           14           15
      1 0.911941D-01 0.646527D-02-0.112560D+00-0.588773D-01-0.501278D-02
      2-0.117469D+00 0.359615D-01-0.462847D-01-0.237497D-01-0.791215D-02
      3-0.688198D-01 0.150832D-01-0.284349D-01-0.206253D-01 0.133824D-01
              16           17           18           19           20
      1 0.115938D+00-0.284449D-01 0.793443D-02-0.156743D-01 0.756006D-01
      2 0.119486D-02 0.156134D+00 0.760354D-01 0.104970D+00-0.534221D-01
      3-0.213858D-01 0.455190D-01 0.640399D-01-0.326947D-01 0.857319D-01
              21           22           23           24           25
      1 0.406046D-02 0.693930D-01 0.189657D-01 0.143904D-01-0.104069D+00
      2 0.225578D-01-0.107861D-01-0.425470D-01-0.308266D-01-0.868192D-01
      3 0.301065D-01 0.304589D-01-0.119269D+00-0.661790D-01-0.132843D-01
              26           27           28           29           30
      1-0.568983D-01-0.712641D-01 0.222276D+00 0.161414D+00 0.170693D-01
      2 0.254150D-01-0.277611D-01 0.180925D+00 0.292650D+00-0.148222D-01
      3 0.206343D-02 0.352677D-01 0.262691D+00-0.269941D+00 0.243348D+00
              31           32           33           34           35
      1-0.122962D+00-0.171936D+00-0.396609D-01 0.110744D+00-0.357990D-01
      2-0.344083D-01 0.115419D+00-0.395648D-01-0.193023D-01 0.568681D-01
      3-0.525270D-01 0.163922D+00 0.745709D-02-0.526178D-01 0.277322D-01
              36           37           38           39           40
      1 0.464944D-01-0.177279D+00-0.562530D-01-0.254751D+00-0.415295D+00
      2-0.113908D+00-0.367992D+00-0.404681D+00 0.652618D+00 0.347160D+00
      3-0.537743D-01-0.301872D+00 0.280861D+00 0.922620D-01 0.429433D+00
              41           42           43           44           45
      1 0.133154D+00-0.174060D+00 0.852103D-01-0.424769D+00 0.231366D+00
      2-0.640602D+00 0.452101D+00-0.536708D+00 0.618584D+00-0.525082D-01
      3-0.357714D+00-0.145356D+00-0.344081D+00 0.786148D+00-0.416434D+00
              46           47           48
      1 0.100376D+00 0.380879D+00 0.267847D+00
      2 0.294018D+00-0.480853D+00-0.747524D+00
      3 0.144818D+00-0.728148D+00-0.255885D+00
 Hessian after L703:
                1             2             3             4             5
      1  0.605015D+00
      2 -0.439072D-01  0.517768D+00
      3  0.749021D-01  0.191841D-02  0.423770D+00
      4 -0.232948D+00 -0.828110D-01 -0.713995D-01  0.256602D+00
      5 -0.781169D-01 -0.875673D-01 -0.343895D-01  0.963181D-01  0.934891D-01
      6 -0.787046D-01 -0.345824D-01 -0.754106D-01  0.709749D-01  0.338873D-01
      7 -0.166793D+00  0.126036D+00 -0.417471D-01 -0.145363D-01  0.193424D-01
      8  0.119371D+00 -0.181429D+00  0.415148D-01 -0.745186D-02  0.112683D-01
      9 -0.337306D-01  0.379864D-01 -0.578518D-01 -0.595729D-02  0.606078D-02
     10 -0.835428D-01  0.465246D-02 -0.412120D-02  0.357555D-02 -0.182607D-01
     11  0.891066D-02 -0.126601D+00 -0.511387D-01  0.203754D-02 -0.819952D-02
     12 -0.209881D-02 -0.493148D-01 -0.121088D+00  0.129556D-02 -0.845219D-02
     13  0.316940D-02  0.145967D-02  0.127733D-02  0.813011D-03  0.433364D-03
     14 -0.202679D-01 -0.107586D-01 -0.657477D-02  0.926471D-03 -0.184711D-02
     15 -0.247145D-01 -0.132966D-01 -0.997114D-02  0.112919D-02 -0.327011D-02
     16 -0.292436D-02 -0.119677D-02  0.605233D-02  0.514916D-03 -0.242897D-03
     17  0.410682D-02  0.110959D-01 -0.777501D-02  0.215633D-03  0.325077D-03
     18  0.117211D-01  0.122449D-01 -0.287053D-01 -0.320315D-03  0.945963D-03
     19  0.245864D-03 -0.190807D-03  0.192009D-03 -0.970054D-04  0.129985D-03
     20  0.443272D-03 -0.587256D-04 -0.970179D-03 -0.533716D-04  0.766239D-04
     21 -0.135655D-02  0.181360D-02  0.216421D-03 -0.348758D-04 -0.942343D-04
     22 -0.647286D-03 -0.195772D-02  0.428981D-03  0.237585D-03  0.308988D-03
     23 -0.412668D-03 -0.186728D-02  0.151239D-02  0.137822D-03 -0.366962D-04
     24  0.108086D-02  0.445924D-02 -0.575860D-03 -0.163890D-03  0.142228D-03
     25 -0.249699D-03 -0.668182D-03 -0.140546D-02  0.324966D-03  0.458984D-03
     26  0.646493D-03  0.321856D-03 -0.100080D-02  0.840622D-04  0.533554D-03
     27  0.145548D-02  0.891660D-03  0.156713D-02 -0.497051D-03 -0.250193D-03
     28 -0.528870D-02  0.461815D-02  0.624013D-02  0.193039D-02 -0.187421D-02
     29  0.164329D-01 -0.178130D-01 -0.607053D-02  0.387601D-03  0.645440D-03
     30  0.148647D-01 -0.204944D-01  0.196277D-01  0.379607D-03  0.403914D-04
     31  0.753980D-03 -0.113264D-02 -0.620410D-03 -0.401523D-04  0.880971D-03
     32 -0.567015D-03  0.221860D-03  0.291682D-02 -0.497802D-03  0.800409D-04
     33  0.184444D-02  0.105548D-02 -0.520140D-03 -0.297238D-03  0.212176D-03
     34 -0.754193D-03  0.267611D-02 -0.485439D-02 -0.293446D-03  0.428390D-03
     35  0.323618D-02 -0.446906D-02  0.519686D-02 -0.794534D-04  0.359679D-03
     36 -0.110871D-03  0.201720D-02 -0.461519D-03 -0.852118D-04  0.111215D-03
     37  0.185742D-02  0.216543D-02 -0.341011D-02 -0.848772D-03 -0.297251D-03
     38 -0.328453D-02  0.305264D-03  0.168478D-02 -0.235460D-03 -0.315138D-03
     39 -0.192178D-02 -0.986446D-02  0.862099D-03  0.754929D-03  0.110826D-02
     40 -0.128720D+00 -0.193211D-01  0.445535D-01 -0.189573D-01 -0.176315D-01
     41 -0.344750D-01 -0.645810D-01  0.312472D-01 -0.118758D-01 -0.120607D-01
     42  0.638303D-01  0.205223D-01 -0.117828D+00  0.666443D-02  0.831857D-02
     43  0.125439D-01  0.118715D-01 -0.118483D-01  0.319106D-02 -0.223512D-02
     44  0.222523D-01 -0.416694D-01  0.324029D-01  0.384557D-02  0.457460D-02
     45 -0.281699D-01  0.288792D-01 -0.251337D-01 -0.153733D-02 -0.276451D-02
     46 -0.171653D-02 -0.229426D-02  0.576008D-02  0.531987D-03  0.357492D-03
     47  0.563183D-02  0.710123D-02 -0.104747D-01 -0.948023D-03 -0.132596D-02
     48  0.110863D-02  0.157642D-01 -0.849618D-02 -0.905953D-03 -0.160616D-02
                6             7             8             9            10
      6  0.854518D-01
      7 -0.538693D-02  0.169584D+00
      8 -0.351536D-02 -0.133549D+00  0.200135D+00
      9 -0.115772D-02  0.399540D-01 -0.510763D-01  0.747595D-01
     10 -0.225368D-01 -0.186924D-02  0.147582D-01  0.172460D-01  0.562985D+00
     11 -0.108567D-01  0.127610D-02 -0.157880D-01 -0.189770D-01  0.493033D-01
     12 -0.771690D-02 -0.168301D-02  0.296215D-02  0.527052D-02  0.159669D-01
     13  0.145285D-02  0.822579D-03 -0.413111D-03 -0.460333D-03 -0.248342D+00
     14 -0.321590D-02 -0.872848D-04  0.313074D-03  0.429777D-03 -0.843106D-01
     15 -0.376318D-02  0.499815D-03  0.551955D-03  0.894446D-03 -0.538675D-01
     16 -0.102442D-02 -0.269327D-04 -0.321973D-03  0.331951D-03 -0.919204D-01
     17 -0.437579D-03  0.385183D-03  0.657258D-03 -0.110222D-02 -0.190371D-01
     18  0.147578D-02 -0.166832D-03  0.104375D-02  0.143652D-02  0.278833D-01
     19  0.177620D-04  0.183201D-03  0.239109D-04 -0.165511D-03  0.847329D-02
     20  0.643690D-05 -0.191079D-03  0.672356D-03  0.372714D-03  0.105269D-01
     21 -0.448666D-05  0.517412D-03 -0.437780D-03 -0.414379D-03 -0.170412D-01
     22  0.296845D-03  0.553658D-04 -0.372758D-03 -0.208872D-03 -0.246912D-02
     23  0.134795D-03 -0.322070D-03  0.106636D-03  0.167286D-03 -0.122465D-02
     24  0.220757D-03  0.169755D-03 -0.283538D-04  0.128756D-03  0.189274D-02
     25  0.786937D-03 -0.583468D-04 -0.750133D-04 -0.382200D-04 -0.110183D-01
     26  0.347612D-03  0.913964D-04  0.447475D-04  0.115878D-03 -0.158013D-01
     27 -0.303527D-03 -0.550847D-04 -0.742888D-04 -0.725796D-04  0.244130D-01
     28 -0.185159D-03  0.134542D-02 -0.499315D-03 -0.589059D-03 -0.119585D+00
     29  0.161311D-02  0.133743D-03 -0.378781D-03 -0.143261D-02  0.387266D-01
     30 -0.100571D-03  0.915168D-03 -0.365054D-02 -0.516474D-02 -0.400540D-02
     31  0.717895D-03  0.282891D-03  0.140875D-03  0.107074D-03 -0.198610D-01
     32 -0.244396D-03 -0.244071D-03  0.883262D-04 -0.288394D-03  0.242830D-01
     33  0.378232D-03 -0.534166D-04 -0.411699D-04 -0.451062D-05 -0.541347D-02
     34  0.134716D-03 -0.947101D-05  0.559804D-03  0.948586D-03 -0.595962D-02
     35  0.166162D-03  0.508112D-03 -0.799637D-03 -0.168748D-02  0.262966D-02
     36  0.856915D-04 -0.338204D-04  0.139613D-03  0.272858D-03 -0.186013D-02
     37  0.211575D-03 -0.417538D-03 -0.109146D-03  0.527761D-03  0.131107D-01
     38 -0.127448D-03 -0.494376D-04  0.270537D-03  0.119809D-03 -0.105523D-01
     39  0.309282D-04  0.257100D-03  0.302702D-03 -0.452949D-03  0.194993D-02
     40  0.317321D-01  0.929398D-02  0.107787D-01 -0.198937D-01 -0.384711D-02
     41  0.209004D-01 -0.995270D-02 -0.135896D-01  0.222903D-01  0.808566D-02
     42 -0.303425D-02  0.447210D-02  0.110323D-01 -0.131152D-01  0.214514D-01
     43  0.218948D-02  0.176320D-02 -0.293574D-02  0.246743D-02 -0.311484D-02
     44 -0.485028D-02 -0.280639D-02 -0.150648D-02  0.564008D-02 -0.363431D-02
     45  0.281237D-02  0.233553D-02  0.895945D-03 -0.447538D-02 -0.446318D-02
     46 -0.677236D-03  0.380653D-03  0.955470D-04 -0.539123D-03  0.338470D-02
     47  0.774153D-03 -0.571340D-03 -0.645258D-04  0.138096D-02 -0.144770D-03
     48  0.103566D-02  0.528835D-05  0.380641D-03 -0.532995D-04  0.250561D-02
               11            12            13            14            15
     11  0.484739D+00
     12  0.131673D-01  0.463789D+00
     13 -0.846240D-01 -0.554454D-01  0.271460D+00
     14 -0.843788D-01 -0.245901D-01  0.910485D-01  0.959724D-01
     15 -0.239558D-01 -0.616749D-01  0.579081D-01  0.266607D-01  0.698458D-01
     16 -0.185622D-01  0.259403D-01 -0.885984D-02 -0.153931D-01  0.251192D-01
     17 -0.104656D+00  0.376760D-01 -0.399941D-02 -0.739685D-02  0.112642D-01
     18  0.408101D-01 -0.135541D+00 -0.143654D-02 -0.296775D-02  0.504001D-02
     19 -0.107622D-01  0.295274D-02  0.724300D-03  0.143830D-03 -0.655168D-03
     20 -0.135519D-01  0.380964D-02 -0.186361D-03  0.949575D-04 -0.468898D-03
     21  0.189853D-01 -0.714742D-02  0.192492D-03 -0.619469D-03  0.100834D-02
     22  0.758160D-02  0.106405D-01  0.833357D-04  0.549427D-03 -0.228950D-03
     23  0.105022D-01  0.160213D-01  0.376221D-03  0.769993D-03 -0.773699D-03
     24 -0.143957D-01 -0.220028D-01  0.177714D-03  0.281129D-05  0.111078D-02
     25 -0.497302D-02 -0.814351D-03  0.580191D-03 -0.838570D-03  0.218421D-02
     26 -0.810559D-02 -0.387669D-02 -0.609546D-03 -0.113110D-02  0.314837D-02
     27  0.983207D-02  0.634168D-02  0.164500D-02  0.279183D-02 -0.393249D-02
     28  0.457065D-01 -0.649818D-02 -0.229362D-01  0.251465D-01 -0.778225D-02
     29 -0.118350D+00  0.711338D-03 -0.681353D-02  0.762085D-02 -0.158977D-02
     30 -0.558048D-02 -0.749338D-01 -0.512340D-02  0.695915D-02 -0.212037D-02
     31 -0.701542D-02 -0.717853D-02 -0.176444D-02  0.343961D-02 -0.716870D-03
     32  0.845590D-02  0.666401D-02  0.347075D-02 -0.368181D-02  0.126331D-02
     33 -0.281886D-02 -0.588101D-03 -0.391627D-03  0.160686D-02  0.403416D-03
     34  0.148721D-01  0.162316D-01  0.351927D-03 -0.252849D-03  0.596100D-03
     35 -0.148619D-01 -0.199121D-01  0.700056D-04  0.913284D-03  0.214010D-03
     36  0.295380D-02  0.392708D-02  0.424448D-03 -0.148562D-03  0.397075D-03
     37  0.293090D-02 -0.116848D-01  0.332806D-02 -0.150894D-02  0.763171D-03
     38 -0.220472D-01  0.317099D-01 -0.657551D-03  0.182277D-02 -0.910284D-03
     39  0.237615D-01 -0.156020D-01  0.755033D-03 -0.199976D-02  0.369041D-03
     40 -0.450033D-02  0.112545D-01  0.856061D-03  0.130502D-02 -0.693785D-04
     41  0.115409D-01 -0.344222D-02  0.649996D-03  0.134984D-02  0.720967D-03
     42  0.238534D-01 -0.353813D-01 -0.585457D-03  0.145952D-02  0.281002D-02
     43 -0.406787D-02  0.125145D-02 -0.475956D-04  0.105163D-03  0.183788D-03
     44  0.569006D-02 -0.544391D-02 -0.783111D-04  0.379243D-03  0.538229D-03
     45 -0.216063D-02 -0.705673D-04 -0.276456D-03  0.342634D-03 -0.113292D-03
     46  0.188632D-02 -0.130401D-03 -0.239273D-03 -0.524880D-05 -0.348986D-03
     47 -0.438875D-02  0.231039D-02 -0.126713D-03 -0.421381D-04 -0.965697D-04
     48 -0.347969D-02  0.241939D-02 -0.113752D-03 -0.136923D-03 -0.303493D-03
               16            17            18            19            20
     16  0.545634D+00
     17 -0.262143D-01  0.537666D+00
     18  0.295763D-01  0.444342D-01  0.500151D+00
     19 -0.149060D+00  0.122761D+00 -0.384514D-01  0.159229D+00
     20  0.122132D+00 -0.191701D+00  0.446626D-01 -0.133577D+00  0.208027D+00
     21 -0.377331D-01  0.443423D-01 -0.599903D-01  0.398294D-01 -0.516406D-01
     22 -0.484158D-01  0.143305D-01  0.181982D-01 -0.204460D-02  0.118467D-01
     23  0.142832D-01 -0.138489D+00 -0.124708D+00  0.972675D-03 -0.142217D-01
     24  0.186272D-01 -0.124299D+00 -0.212746D+00 -0.174760D-03  0.466510D-02
     25 -0.252894D+00 -0.883714D-01 -0.494955D-01 -0.176498D-01 -0.809365D-02
     26 -0.884145D-01 -0.859309D-01 -0.212090D-01  0.221973D-01  0.108827D-01
     27 -0.495646D-01 -0.213408D-01 -0.596166D-01 -0.582296D-02 -0.322496D-02
     28  0.707211D-02 -0.964692D-02  0.190450D-03 -0.676981D-03 -0.348967D-02
     29  0.727864D-02 -0.155847D-01  0.113724D-01 -0.384693D-03  0.402243D-03
     30 -0.142366D-01  0.222545D-01 -0.102727D-01  0.157231D-02  0.206985D-02
     31  0.263305D-04 -0.561066D-03  0.544678D-03  0.448491D-03  0.370396D-03
     32  0.361099D-03  0.746863D-03 -0.124584D-02 -0.119678D-03 -0.100538D-04
     33 -0.186129D-03 -0.513158D-03  0.447725D-03  0.167080D-03 -0.346089D-05
     34  0.145959D-02 -0.137617D-02  0.673023D-03 -0.350800D-03 -0.262600D-03
     35 -0.332320D-03  0.377340D-03 -0.199049D-02 -0.391094D-04  0.278691D-03
     36 -0.419264D-03  0.932129D-03  0.152889D-02  0.947126D-04 -0.124193D-04
     37 -0.150456D-02  0.464036D-02  0.442471D-03  0.369503D-03  0.109186D-02
     38  0.558529D-02 -0.641245D-02 -0.140572D-02 -0.882094D-03 -0.136067D-02
     39 -0.322944D-02  0.143476D-02  0.363738D-03  0.956121D-03  0.605937D-03
     40  0.122403D-02  0.661121D-03 -0.431620D-03  0.215382D-03 -0.728708D-03
     41 -0.685031D-03  0.108945D-02 -0.873618D-03 -0.314934D-04  0.464767D-03
     42  0.112800D-02 -0.104177D-01 -0.530114D-02 -0.400113D-03 -0.215145D-03
     43  0.188312D-03  0.297221D-02  0.169011D-02 -0.108609D-03  0.330015D-03
     44  0.231473D-02 -0.453451D-02 -0.253875D-02 -0.972460D-04 -0.576120D-03
[...]
    X9       -4.17094  -0.00001   0.00000  -0.00006  -0.00006  -4.17100
    Y9       -0.42991   0.00000   0.00000  -0.00005   0.00007  -0.42985
    Z9        4.37633   0.00000   0.00000  -0.00014   0.00000   4.37633
   X10       -3.06971   0.00001   0.00000   0.00014   0.00022  -3.06949
   Y10        4.14149   0.00000   0.00000  -0.00002   0.00005   4.14154
   Z10        1.96697  -0.00002   0.00000  -0.00017  -0.00008   1.96689
   X11       -4.98282   0.00000   0.00000   0.00027   0.00030  -4.98252
   Y11        3.46696   0.00000   0.00000   0.00009   0.00025   3.46721
   Z11        1.48580  -0.00001   0.00000  -0.00092  -0.00075   1.48505
   X12       -3.29633  -0.00001   0.00000  -0.00054  -0.00033  -3.29665
   Y12        5.30158   0.00000   0.00000  -0.00028  -0.00019   5.30138
   Z12        3.68397  -0.00001   0.00000  -0.00007   0.00002   3.68399
   X13       -2.18788  -0.00001   0.00000   0.00057   0.00064  -2.18724
   Y13        5.80782   0.00001   0.00000   0.00035   0.00038   5.80820
   Z13        0.13292   0.00002   0.00000   0.00052   0.00056   0.13348
   X14        0.25282  -0.00001   0.00000  -0.00035  -0.00057   0.25225
   Y14        1.36384   0.00001   0.00000  -0.00009  -0.00016   1.36369
   Z14       -1.84404  -0.00001   0.00000  -0.00030  -0.00037  -1.84441
   X15       -1.57309   0.00002   0.00000  -0.00064  -0.00085  -1.57393
   Y15        2.86130  -0.00002   0.00000   0.00002   0.00003   2.86133
   Z15       -3.05574   0.00001   0.00000   0.00024   0.00026  -3.05548
   X16       -1.59102   0.00002   0.00000   0.00014   0.00006  -1.59096
   Y16        4.55273  -0.00003   0.00000  -0.00022  -0.00021   4.55252
   Z16       -1.93830  -0.00002   0.00000  -0.00013  -0.00011  -1.93841
         Item               Value     Threshold  Converged?
 Maximum Force            0.000031     0.000450     YES
 RMS     Force            0.000011     0.000300     YES
 Maximum Displacement     0.000845     0.001800     YES
 RMS     Displacement     0.000316     0.001200     YES
 Predicted change in Energy=-2.732342D-08
 Optimization completed.
    -- Stationary point found.
 GradGradGradGradGradGradGradGradGradGradGradGradGradGradGradGradGradGrad


 Test job not archived.
 1\1\GINC-NODE36\Freq\UB3LYP\CBSB7\C4H9O3(2)\SHAMEL\18-Jun-2013\0\\# fr
 eq nosymm b3lyp/cbsb7 iop(7/33=1)\\Title Card Required\\0,2\C,-0.48337
 8,0.071565,0.145659\H,-1.428615,-0.37361,-0.186077\H,0.219785,-0.72593
 2,0.399843\C,-0.686475,1.005458,1.344132\H,0.292566,1.425652,1.60139\C
 ,-1.224801,0.20288,2.535593\H,-0.553164,-0.61799,2.799385\H,-1.331711,
 0.840803,3.417068\H,-2.207165,-0.2275,2.315854\C,-1.62442,2.191584,1.0
 40877\H,-2.636795,1.834638,0.786251\H,-1.744341,2.805474,1.949474\O,-1
 .157774,3.073364,0.070336\O,0.133785,0.721715,-0.975823\O,-0.832441,1.
 514135,-1.617027\H,-0.841933,2.409201,-1.025702\\Version=AM64L-G03RevD
 .01\HF=-383.4487299\S2=0.756078\S2-1=0.\S2A=0.750019\RMSD=9.914e-09\RM
 SF=1.075e-05\ZeroPoint=0.1273511\Thermal=0.1346429\Dipole=-0.3205593,-
 0.6088538,1.2624323\DipoleDeriv=0.2722874,0.2005401,-0.0185533,-0.0859
 281,0.5433997,0.1728489,0.0223729,-0.2885847,0.3962119,-0.0723562,-0.1
 397326,-0.0251364,-0.0201802,0.001552,-0.0231899,-0.0438972,-0.0004817
 ,-0.0054196,-0.0021345,0.088793,-0.0077965,0.0778772,-0.0466986,0.0228
 808,-0.0293544,0.0846188,0.04589,0.0461048,0.0244314,0.0309824,0.09119
 41,-0.1174685,-0.0688198,0.0064653,0.0359615,0.0150832,-0.1125597,-0.0
 462847,-0.0284349,-0.0588773,-0.0237497,-0.0206253,-0.0050128,-0.00791
 22,0.0133824,0.1159376,0.0011949,-0.0213858,-0.0284449,0.1561342,0.045
 519,0.0079344,0.0760354,0.0640399,-0.0156743,0.10497,-0.0326947,0.0756
 006,-0.0534221,0.0857319,0.0040605,0.0225578,0.0301065,0.069393,-0.010
 7861,0.0304589,0.0189657,-0.042547,-0.1192693,0.0143904,-0.0308266,-0.
 066179,-0.1040687,-0.0868192,-0.0132843,-0.0568983,0.025415,0.0020634,
 -0.0712641,-0.0277611,0.0352677,0.2222756,0.1809253,0.2626906,0.161413
 5,0.2926502,-0.2699411,0.0170693,-0.0148222,0.2433478,-0.122962,-0.034
 4083,-0.052527,-0.1719356,0.115419,0.1639221,-0.0396609,-0.0395648,0.0
 074571,0.1107441,-0.0193023,-0.0526178,-0.035799,0.0568681,0.0277322,0
 .0464944,-0.1139078,-0.0537743,-0.1772786,-0.3679922,-0.3018717,-0.056
 253,-0.4046814,0.2808611,-0.2547506,0.6526185,0.092262,-0.4152948,0.34
 71602,0.4294335,0.1331544,-0.6406023,-0.3577145,-0.17406,0.4521009,-0.
 1453557,0.0852103,-0.5367076,-0.3440809,-0.4247686,0.6185839,0.7861482
 ,0.231366,-0.0525082,-0.4164344,0.1003761,0.2940181,0.1448181,0.380879
 5,-0.4808525,-0.7281478,0.2678469,-0.7475236,-0.2558855\Polar=55.09360
 92,-10.6269481,74.1805666,-8.3708907,8.0195444,75.2885336\PG=C01 [X(C4
 H9O3)]\NImag=1\\0.60501478,-0.04390717,0.51776794,0.07490209,0.0019184
 1,0.42376969,-0.23294821,-0.08281098,-0.07139949,0.25660173,-0.0781169
 3,-0.08756732,-0.03438952,0.09631807,0.09348910,-0.07870456,-0.0345824
 1,-0.07541056,0.07097493,0.03388733,0.08545179,-0.16679331,0.12603628,
 -0.04174706,-0.01453631,0.01934239,-0.00538693,0.16958386,0.11937071,-
 0.18142875,0.04151480,-0.00745186,0.01126834,-0.00351536,-0.13354883,0
 .20013456,-0.03373061,0.03798643,-0.05785178,-0.00595729,0.00606078,-0
 .00115772,0.03995399,-0.05107633,0.07475947,-0.08354279,0.00465246,-0.
 00412120,0.00357555,-0.01826074,-0.02253675,-0.00186924,0.01475824,0.0
 1724597,0.56298523,0.00891066,-0.12660103,-0.05113866,0.00203754,-0.00
 819952,-0.01085667,0.00127610,-0.01578804,-0.01897702,0.04930333,0.484
 73943,-0.00209881,-0.04931477,-0.12108838,0.00129556,-0.00845219,-0.00
 771690,-0.00168301,0.00296215,0.00527052,0.01596691,0.01316727,0.46378
 850,0.00316940,0.00145967,0.00127733,0.00081301,0.00043336,0.00145285,
 0.00082258,-0.00041311,-0.00046033,-0.24834183,-0.08462399,-0.05544542
 ,0.27146035,-0.02026790,-0.01075862,-0.00657477,0.00092647,-0.00184711
 ,-0.00321590,-0.00008728,0.00031307,0.00042978,-0.08431058,-0.08437884
 ,-0.02459012,0.09104850,0.09597244,-0.02471449,-0.01329656,-0.00997114
 ,0.00112919,-0.00327011,-0.00376318,0.00049981,0.00055195,0.00089445,-
 0.05386751,-0.02395577,-0.06167494,0.05790813,0.02666065,0.06984578,-0
 .00292436,-0.00119677,0.00605233,0.00051492,-0.00024290,-0.00102442,-0
 .00002693,-0.00032197,0.00033195,-0.09192037,-0.01856216,0.02594028,-0
 .00885984,-0.01539314,0.02511920,0.54563395,0.00410682,0.01109592,-0.0
 0777501,0.00021563,0.00032508,-0.00043758,0.00038518,0.00065726,-0.001
 10222,-0.01903706,-0.10465622,0.03767598,-0.00399941,-0.00739685,0.011
 26417,-0.02621428,0.53766613,0.01172113,0.01224494,-0.02870533,-0.0003
 2032,0.00094596,0.00147578,-0.00016683,0.00104375,0.00143652,0.0278833
 0,0.04081013,-0.13554092,-0.00143654,-0.00296775,0.00504001,0.02957625
 ,0.04443422,0.50015081,0.00024586,-0.00019081,0.00019201,-0.00009701,0
 .00012998,0.00001776,0.00018320,0.00002391,-0.00016551,0.00847329,-0.0
 1076223,0.00295274,0.00072430,0.00014383,-0.00065517,-0.14906039,0.122
 76065,-0.03845145,0.15922941,0.00044327,-0.00005873,-0.00097018,-0.000
 05337,0.00007662,0.00000644,-0.00019108,0.00067236,0.00037271,0.010526
 85,-0.01355186,0.00380964,-0.00018636,0.00009496,-0.00046890,0.1221315
 8,-0.19170067,0.04466265,-0.13357692,0.20802666,-0.00135655,0.00181360
 ,0.00021642,-0.00003488,-0.00009423,-0.00000449,0.00051741,-0.00043778
 ,-0.00041438,-0.01704123,0.01898534,-0.00714742,0.00019249,-0.00061947
 ,0.00100834,-0.03773315,0.04434233,-0.05999034,0.03982942,-0.05164059,
 0.06480419,-0.00064729,-0.00195772,0.00042898,0.00023759,0.00030899,0.
 00029685,0.00005537,-0.00037276,-0.00020887,-0.00246912,0.00758160,0.0
 1064050,0.00008334,0.00054943,-0.00022895,-0.04841581,0.01433047,0.018
 19817,-0.00204460,0.01184665,0.01709545,0.04899651,-0.00041267,-0.0018
 6728,0.00151239,0.00013782,-0.00003670,0.00013480,-0.00032207,0.000106
 64,0.00016729,-0.00122465,0.01050220,0.01602127,0.00037622,0.00076999,
 -0.00077370,0.01428315,-0.13848942,-0.12470772,0.00097268,-0.01422167,
 -0.01916879,-0.01468107,0.14932059,0.00108086,0.00445924,-0.00057586,-
 0.00016389,0.00014223,0.00022076,0.00016975,-0.00002835,0.00012876,0.0
 0189274,-0.01439569,-0.02200284,0.00017771,0.00000281,0.00111078,0.018
 62718,-0.12429854,-0.21274627,-0.00017476,0.00466510,0.00704502,-0.022
 60593,0.13419741,0.23305854,-0.00024970,-0.00066818,-0.00140546,0.0003
 2497,0.00045898,0.00078694,-0.00005835,-0.00007501,-0.00003822,-0.0110
 1827,-0.00497302,-0.00081435,0.00058019,-0.00083857,0.00218421,-0.2528
 9393,-0.08837135,-0.04949552,-0.01764975,-0.00809365,-0.00443788,0.003
 71209,0.00170666,0.00023961,0.27577316,0.00064649,0.00032186,-0.001000
 80,0.00008406,0.00053355,0.00034761,0.00009140,0.00004475,0.00011588,-
 0.01580135,-0.00810559,-0.00387669,-0.00060955,-0.00113110,0.00314837,
 -0.08841448,-0.08593095,-0.02120899,0.02219728,0.01088272,0.00523196,-
 0.01775840,-0.00778704,-0.00352681,0.09989628,0.09079943,0.00145548,0.
 00089166,0.00156713,-0.00049705,-0.00025019,-0.00030353,-0.00005508,-0
 .00007429,-0.00007258,0.02441297,0.00983207,0.00634168,0.00164500,0.00
 279183,-0.00393249,-0.04956456,-0.02134075,-0.05961663,-0.00582296,-0.
 00322496,-0.00252723,-0.02394535,-0.00885021,-0.00527324,0.05283714,0.
 02105130,0.06320138,-0.00528870,0.00461815,0.00624013,0.00193039,-0.00
 187421,-0.00018516,0.00134542,-0.00049932,-0.00058906,-0.11958524,0.04
 570653,-0.00649818,-0.02293623,0.02514648,-0.00778225,0.00707211,-0.00
 964692,0.00019045,-0.00067698,-0.00348967,0.00309988,0.00044392,-0.000
 01236,-0.00056745,0.00036666,-0.00172378,0.00104751,0.48200169,0.01643
 294,-0.01781296,-0.00607053,0.00038760,0.00064544,0.00161311,0.0001337
 4,-0.00037878,-0.00143261,0.03872656,-0.11834956,0.00071134,-0.0068135
 3,0.00762085,-0.00158977,0.00727864,-0.01558473,0.01137242,-0.00038469
 ,0.00040224,0.00022854,0.00010081,0.00048805,-0.00138327,0.00129550,0.
 00038727,-0.00074147,0.02801133,0.47142895,0.01486467,-0.02049444,0.01
 962770,0.00037961,0.00004039,-0.00010057,0.00091517,-0.00365054,-0.005
 16474,-0.00400540,-0.00558048,-0.07493384,-0.00512340,0.00695915,-0.00
 212037,-0.01423656,0.02225453,-0.01027273,0.00157231,0.00206985,-0.003
 09090,-0.00077953,0.00126573,0.00054711,-0.00054654,-0.00094413,0.0009
 8161,0.01240101,0.05547615,0.46989654,0.00075398,-0.00113264,-0.000620
 41,-0.00004015,0.00088097,0.00071789,0.00028289,0.00014087,0.00010707,
 -0.01986104,-0.00701542,-0.00717853,-0.00176444,0.00343961,-0.00071687
 ,0.00002633,-0.00056107,0.00054468,0.00044849,0.00037040,-0.00003784,-
 0.00004887,0.00003399,0.00004347,0.00066633,0.00067802,-0.00038218,-0.
 23538883,-0.05611902,-0.06495735,0.26649524,-0.00056701,0.00022186,0.0
 0291682,-0.00049780,0.00008004,-0.00024440,-0.00024407,0.00008833,-0.0
 0028839,0.02428297,0.00845590,0.00666401,0.00347075,-0.00368181,0.0012
 6331,0.00036110,0.00074686,-0.00124584,-0.00011968,-0.00001005,-0.0002
 4619,-0.00003381,0.00008120,-0.00028166,-0.00048948,-0.00001077,0.0001
 0630,-0.06711466,-0.06991370,-0.02064947,0.07562879,0.08046132,0.00184
 444,0.00105548,-0.00052014,-0.00029724,0.00021218,0.00037823,-0.000053
 42,-0.00004117,-0.00000451,-0.00541347,-0.00281886,-0.00058810,-0.0003
 9163,0.00160686,0.00040342,-0.00018613,-0.00051316,0.00044772,0.000167
 08,-0.00000346,0.00008156,-0.00012683,-0.00012588,0.00004360,0.0001327
 8,0.00048068,-0.00008038,-0.06074630,-0.02303931,-0.05904934,0.0595975
 0,0.01505670,0.06825584,-0.00075419,0.00267611,-0.00485439,-0.00029345
 ,0.00042839,0.00013472,-0.00000947,0.00055980,0.00094859,-0.00595962,0
 .01487205,0.01623159,0.00035193,-0.00025285,0.00059610,0.00145959,-0.0
 0137617,0.00067302,-0.00035080,-0.00026260,0.00034343,0.00034834,-0.00
 005805,-0.00020007,-0.00009470,-0.00011012,-0.00024516,-0.03384001,0.0
 1369880,0.01529465,0.00061084,-0.01420389,-0.02404068,0.04561085,0.003
 23618,-0.00446906,0.00519686,-0.00007945,0.00035968,0.00016616,0.00050
 811,-0.00079964,-0.00168748,0.00262966,-0.01486190,-0.01991205,0.00007
 001,0.00091328,0.00021401,-0.00033232,0.00037734,-0.00199049,-0.000039
 11,0.00027869,0.00022101,0.00000873,0.00011785,0.00073880,-0.00003521,
 -0.00001885,0.00010582,0.00935620,-0.12140312,-0.10535505,0.00078576,-
 0.00551686,-0.00990046,-0.01414694,0.13188559,-0.00011087,0.00201720,-
 0.00046152,-0.00008521,0.00011121,0.00008569,-0.00003382,0.00013961,0.
 00027286,-0.00186013,0.00295380,0.00392708,0.00042445,-0.00014856,0.00
 039707,-0.00041926,0.00093213,0.00152889,0.00009471,-0.00001242,0.0002
 0877,-0.00014454,-0.00052596,0.00028145,0.00005842,-0.00002425,-0.0000
 9868,0.01634860,-0.11707355,-0.19447742,-0.00066489,-0.00656958,-0.006
 77616,-0.02372733,0.11609528,0.23139424,0.00185742,0.00216543,-0.00341
 011,-0.00084877,-0.00029725,0.00021157,-0.00041754,-0.00010915,0.00052
 776,0.01311069,0.00293090,-0.01168484,0.00332806,-0.00150894,0.0007631
 7,-0.00150456,0.00464036,0.00044247,0.00036950,0.00109186,-0.00088229,
 -0.00044604,-0.00028349,0.00074750,0.00019004,0.00062611,-0.00041058,-
 0.07381364,-0.04498774,0.03598051,-0.01217186,-0.02025071,0.02913896,-
 0.00651141,-0.00041651,0.01041819,0.08131558,-0.00328453,0.00030526,0.
 00168478,-0.00023546,-0.00031514,-0.00012745,-0.00004944,0.00027054,0.
 00011981,-0.01055228,-0.02204720,0.03170988,-0.00065755,0.00182277,-0.
 00091028,0.00558529,-0.00641245,-0.00140572,-0.00088209,-0.00136067,0.
 00201184,0.00006712,0.00071747,-0.00003104,-0.00001186,0.00017531,0.00
 000188,-0.03712236,-0.14074739,0.06047684,-0.01551155,-0.01440186,0.01
 914856,0.00270581,0.01017572,0.00102200,0.05676503,0.20936395,-0.00192
 178,-0.00986446,0.00086210,0.00075493,0.00110826,0.00003093,0.00025710
 ,0.00030270,-0.00045295,0.00194993,0.02376146,-0.01560196,0.00075503,-
 0.00199976,0.00036904,-0.00322944,0.00143476,0.00036374,0.00095612,0.0
 0060594,-0.00061416,0.00030302,-0.00024444,-0.00059470,0.00034615,0.00
 031488,-0.00014500,0.02246234,0.08349532,-0.11832324,0.01556306,-0.000
 15630,-0.00192563,0.01987412,0.01261921,-0.03728410,-0.05593337,-0.097
 29683,0.18069934,-0.12872030,-0.01932112,0.04455348,-0.01895729,-0.017
 63149,0.03173207,0.00929398,0.01077866,-0.01989375,-0.00384711,-0.0045
 0033,0.01125453,0.00085606,0.00130502,-0.00006938,0.00122403,0.0006611
 2,-0.00043162,0.00021538,-0.00072871,0.00062820,0.00035267,0.00009775,
 0.00007405,0.00042813,0.00042104,-0.00041829,-0.00351779,0.00415384,0.
 00059939,-0.00041610,-0.00291429,0.00019892,-0.00038546,-0.00218152,-0
 .00018195,0.01246338,0.00104180,-0.01710033,0.29463053,-0.03447504,-0.
 06458096,0.03124722,-0.01187581,-0.01206070,0.02090043,-0.00995270,-0.
 01358961,0.02229033,0.00808566,0.01154094,-0.00344222,0.00065000,0.001
 34984,0.00072097,-0.00068503,0.00108945,-0.00087362,-0.00003149,0.0004
 6477,-0.00092545,0.00006716,-0.00023314,0.00006240,0.00034549,-0.00015
 123,-0.00032453,-0.00345548,-0.00605818,0.00108377,0.00085427,0.001389
 64,-0.00071274,0.00112689,0.00292688,-0.00084180,-0.00439952,0.0024708
 3,0.01855412,-0.05472809,0.19132876,0.06383028,0.02052232,-0.11782845,
 0.00666443,0.00831857,-0.00303425,0.00447210,0.01103227,-0.01311524,0.
 02145144,0.02385339,-0.03538132,-0.00058546,0.00145952,0.00281002,0.00
 112800,-0.01041773,-0.00530114,-0.00040011,-0.00021514,0.00076254,0.00
 148708,0.00189446,-0.00307154,0.00034922,0.00034381,-0.00005893,-0.009
 24844,0.00782616,-0.00735584,0.00054882,-0.00472223,0.00116649,0.00290
 546,-0.00243011,0.00054708,0.01518132,-0.00611465,-0.01087672,-0.03174
 330,-0.11834315,0.24497120,0.01254392,0.01187154,-0.01184830,0.0031910
 6,-0.00223512,0.00218948,0.00176320,-0.00293574,0.00246743,-0.00311484
 ,-0.00406787,0.00125145,-0.00004760,0.00010516,0.00018379,0.00018831,0
 .00297221,0.00169011,-0.00010861,0.00033002,-0.00017994,-0.00035151,-0
 .00084108,0.00120519,-0.00009833,-0.00026387,-0.00016751,0.01219863,-0
 .00688293,0.00793053,0.00061031,0.00647101,-0.00168056,-0.00242829,0.0
 0221005,-0.00028559,-0.01586278,0.00582231,0.02064614,-0.14421726,0.07
 261235,-0.06911748,0.14343363,0.02225235,-0.04166937,0.03240287,0.0038
 4557,0.00457460,-0.00485028,-0.00280639,-0.00150648,0.00564008,-0.0036
 3431,0.00569006,-0.00544391,-0.00007831,0.00037924,0.00053823,0.002314
 73,-0.00453451,-0.00253875,-0.00009725,-0.00057612,0.00088919,0.000320
 01,0.00107852,-0.00158478,-0.00003810,0.00032973,0.00002925,-0.0022531
 7,0.00526019,0.00452477,-0.00016814,-0.00545336,0.00112433,-0.00106081
 ,-0.00398242,-0.00071721,0.03796149,-0.04308128,-0.10588617,0.05101281
 ,-0.07422307,0.04474856,-0.05573107,0.22077409,-0.02816990,0.02887917,
 -0.02513371,-0.00153733,-0.00276451,0.00281237,0.00233553,0.00089595,-
 0.00447538,-0.00446318,-0.00216063,-0.00007057,-0.00027646,0.00034263,
 -0.00011329,0.00096384,0.00051073,0.00017951,-0.00010100,-0.00001586,0
 .00033100,-0.00002796,-0.00013462,0.00054967,-0.00010064,-0.00013132,-
 0.00000140,0.01547622,-0.00670810,0.00012724,-0.00206787,0.00354599,-0
 .00135477,-0.00467378,0.00142898,-0.00122136,0.00520857,-0.02899865,-0
 .04618074,-0.04603211,0.04160669,-0.08348680,0.09376833,0.02481715,0.2
 1436286,-0.00171653,-0.00229426,0.00576008,0.00053199,0.00035749,-0.00
 067724,0.00038065,0.00009555,-0.00053912,0.00338470,0.00188632,-0.0001
 3040,-0.00023927,-0.00000525,-0.00034899,-0.00051304,-0.00086619,-0.00
 061731,0.00009870,-0.00015827,-0.00000254,0.00019341,0.00022716,-0.000
 54596,0.00002145,0.00004085,0.00011063,-0.01031139,0.00496813,-0.00028
 906,-0.00020311,-0.00377920,0.00185656,0.00224584,-0.00157362,0.000169
 24,-0.00105807,-0.00368025,-0.00568303,-0.01940287,0.03586135,-0.00692
 336,-0.00769986,-0.05183942,-0.03030228,0.03428738,0.00563183,0.007101
 23,-0.01047468,-0.00094802,-0.00132596,0.00077415,-0.00057134,-0.00006
 453,0.00138096,-0.00014477,-0.00438875,0.00231039,-0.00012671,-0.00004
 214,-0.00009657,-0.00059145,0.00274777,0.00142481,-0.00014407,0.000580
 76,-0.00059131,-0.00037721,-0.00054724,0.00126216,-0.00010847,-0.00033
 909,-0.00000370,0.01435324,0.00401544,0.00252293,-0.00230484,0.0074632
 8,-0.00152973,-0.00459643,0.00401681,0.00264209,-0.03392788,0.00306415
 ,0.07325130,0.03253349,-0.04166421,0.02224395,-0.02943697,-0.06305982,
 -0.06111360,0.02075960,0.08244229,0.00110863,0.01576419,-0.00849618,-0
 .00090595,-0.00160616,0.00103566,0.00000529,0.00038064,-0.00005330,0.0
 0250561,-0.00347969,0.00241939,-0.00011375,-0.00013692,-0.00030349,-0.
 00134552,0.00303614,0.00155037,-0.00001120,0.00035917,-0.00066893,-0.0
 0038207,-0.00066201,0.00127875,-0.00009585,-0.00032150,0.00001828,0.00
 835070,-0.00268444,-0.01629121,-0.00049655,0.00485094,-0.00047784,0.00
 073973,0.00448949,0.00167610,-0.02629884,0.01870903,0.04967405,0.02683
 008,-0.01100242,0.02925290,-0.04805307,0.00630668,-0.05632465,0.038162
 77,-0.03400315,-0.00428990\\0.00000159,-0.00001237,0.00000209,-0.00000
 727,0.00000949,-0.00000112,-0.00000591,-0.00000111,-0.00000952,0.00001
 282,0.00000584,-0.00000493,0.00000250,-0.00000559,-0.00000312,0.000000
 30,-0.00000732,-0.00000075,0.00000504,-0.00000372,-0.00000662,0.000008
 89,-0.00000528,-0.00000112,0.00000508,-0.00000155,0.00000060,-0.000012
 44,0.00000205,0.00001687,0.00000447,0.00000056,0.00000725,0.00000904,-
 0.00000399,0.00000521,0.00001013,-0.00001271,-0.00002222,0.00000788,-0
 .00001304,0.00000857,-0.00002488,0.00001763,-0.00001347,-0.00001725,0.
 00003109,0.00002226\\\@


 KNIGHT- SIRE, I'VE JUST RETURNED FROM THE FRONT
 KING-   HOW GOES THE BATTLE                    
 KNIGHT- THE SITUATION IS QUITE FLUID           
 KING-   WHAT DOES *THAT* MEAN                  
 KNIGHT- WE'RE UP THE CREEK                     
                THE WIZARD OF ID                
 Job cpu time:  0 days  1 hours 10 minutes 58.7 seconds.
 File lengths (MBytes):  RWF=    125 Int=      0 D2E=      0 Chk=      8 Scr=      1
 Normal termination of Gaussian 03 at Tue Jun 18 11:10:48 2013.
