 Entering Gaussian System, Link 0=g03
 Input=TS15freq.gjf
 Output=TS15freq.log
 Initial command:
 /opt/g03/l1.exe /scratch/nyee/Gau-24715.inp -scrdir=/scratch/nyee/
 Entering Link 1 = /opt/g03/l1.exe PID=     24717.
  
 Copyright (c) 1988,1990,1992,1993,1995,1998,2003,2004, Gaussian, Inc.
                  All Rights Reserved.
  
 This is the Gaussian(R) 03 program.  It is based on the
 the Gaussian(R) 98 system (copyright 1998, Gaussian, Inc.),
 the Gaussian(R) 94 system (copyright 1995, Gaussian, Inc.),
 the Gaussian 92(TM) system (copyright 1992, Gaussian, Inc.),
 the Gaussian 90(TM) system (copyright 1990, Gaussian, Inc.),
 the Gaussian 88(TM) system (copyright 1988, Gaussian, Inc.),
 the Gaussian 86(TM) system (copyright 1986, Carnegie Mellon
 University), and the Gaussian 82(TM) system (copyright 1983,
 Carnegie Mellon University). Gaussian is a federally registered
 trademark of Gaussian, Inc.
  
 This software contains proprietary and confidential information,
 including trade secrets, belonging to Gaussian, Inc.
  
 This software is provided under written license and may be
 used, copied, transmitted, or stored only in accord with that
 written license.
  
 The following legend is applicable only to US Government
 contracts under FAR:
  
                    RESTRICTED RIGHTS LEGEND
  
 Use, reproduction and disclosure by the US Government is
 subject to restrictions as set forth in subparagraphs (a)
 and (c) of the Commercial Computer Software - Restricted
 Rights clause in FAR 52.227-19.
  
 Gaussian, Inc.
 340 Quinnipiac St., Bldg. 40, Wallingford CT 06492
  
  
 ---------------------------------------------------------------
 Warning -- This program may not be used in any manner that
 competes with the business of Gaussian, Inc. or will provide
 assistance to any competitor of Gaussian, Inc.  The licensee
 of this program is prohibited from giving any competitor of
 Gaussian, Inc. access to this program.  By using this program,
 the user acknowledges that Gaussian, Inc. is engaged in the
 business of creating and licensing software in the field of
 computational chemistry and represents and warrants to the
 licensee that it is not a competitor of Gaussian, Inc. and that
 it will not use this program in any manner prohibited above.
 ---------------------------------------------------------------
  

 Cite this work as:
 Gaussian 03, Revision D.01,
 M. J. Frisch, G. W. Trucks, H. B. Schlegel, G. E. Scuseria, 
 M. A. Robb, J. R. Cheeseman, J. A. Montgomery, Jr., T. Vreven, 
 K. N. Kudin, J. C. Burant, J. M. Millam, S. S. Iyengar, J. Tomasi, 
 V. Barone, B. Mennucci, M. Cossi, G. Scalmani, N. Rega, 
 G. A. Petersson, H. Nakatsuji, M. Hada, M. Ehara, K. Toyota, 
 R. Fukuda, J. Hasegawa, M. Ishida, T. Nakajima, Y. Honda, O. Kitao, 
 H. Nakai, M. Klene, X. Li, J. E. Knox, H. P. Hratchian, J. B. Cross, 
 V. Bakken, C. Adamo, J. Jaramillo, R. Gomperts, R. E. Stratmann, 
 O. Yazyev, A. J. Austin, R. Cammi, C. Pomelli, J. W. Ochterski, 
 P. Y. Ayala, K. Morokuma, G. A. Voth, P. Salvador, J. J. Dannenberg, 
 V. G. Zakrzewski, S. Dapprich, A. D. Daniels, M. C. Strain, 
 O. Farkas, D. K. Malick, A. D. Rabuck, K. Raghavachari, 
 J. B. Foresman, J. V. Ortiz, Q. Cui, A. G. Baboul, S. Clifford, 
 J. Cioslowski, B. B. Stefanov, G. Liu, A. Liashenko, P. Piskorz, 
 I. Komaromi, R. L. Martin, D. J. Fox, T. Keith, M. A. Al-Laham, 
 C. Y. Peng, A. Nanayakkara, M. Challacombe, P. M. W. Gill, 
 B. Johnson, W. Chen, M. W. Wong, C. Gonzalez, and J. A. Pople, 
 Gaussian, Inc., Wallingford CT, 2004.
 
 ******************************************
 Gaussian 03:  AM64L-G03RevD.01 13-Oct-2005
                 8-Jul-2014 
 ******************************************
 %chk=TS15freq.chk
 %mem=1000mb
 %nproc=8
 Will use up to    8 processors via shared memory.
 -------------------------------------
 # freq nosymm b3lyp/cbsb7 iop(7/33=1)
 -------------------------------------
 1/10=4,30=1,38=1/1,3;
 2/15=1,17=6,18=5,40=1/2;
 3/5=4,6=6,7=700,11=2,16=1,25=1,30=1,74=-5/1,2,3;
 4//1;
 5/5=2,38=5/2;
 8/6=4,10=90,11=11/1;
 11/6=1,8=1,9=11,15=111,16=1,31=1/1,2,10;
 10/6=1,31=1/2;
 6/7=2,8=2,9=2,10=2,18=1,28=1/1;
 7/8=1,10=1,25=1,30=1,33=1/1,2,3,16;
 1/10=4,30=1/3;
 99//99;
 -------------------
 Title Card Required
 -------------------
 Symbolic Z-matrix:
 Charge =  0 Multiplicity = 2
 O                     0.1572   -0.00856  -0.07079 
 H                     1.02631   0.25829   0.29088 
 O                    -0.4498    1.29563  -0.25618 
 C                     0.26499   1.9343   -1.30108 
 H                     0.2448    1.30013  -2.19624 
 O                     1.61322   2.13881  -0.958 
 H                     1.46635   3.27824  -0.45197 
 C                    -0.3567    3.33703  -1.44422 
 H                    -1.42153   3.3109   -1.1841 
 C                    -0.17773   3.88888  -2.86172 
 H                    -0.74064   3.2951   -3.59019 
 H                    -0.53433   4.92305  -2.92202 
 H                     0.87856   3.87343  -3.15334 
 C                     0.45732   4.12472  -0.40531 
 H                     0.10875   4.07421   0.62663 
 H                     0.83681   5.10632  -0.69342 
 

 GradGradGradGradGradGradGradGradGradGradGradGradGradGradGradGradGradGrad
 Berny optimization.
 Initialization pass.
 Trust Radius=3.00D-01 FncErr=1.00D-07 GrdErr=1.00D-07
 Number of steps in this run=   2 maximum allowed number of steps=   2.
 GradGradGradGradGradGradGradGradGradGradGradGradGradGradGradGradGradGrad

                          Input orientation:                          
 ---------------------------------------------------------------------
 Center     Atomic     Atomic              Coordinates (Angstroms)
 Number     Number      Type              X           Y           Z
 ---------------------------------------------------------------------
    1          8             0        0.157196   -0.008561   -0.070794
    2          1             0        1.026313    0.258291    0.290881
    3          8             0       -0.449802    1.295631   -0.256183
    4          6             0        0.264994    1.934302   -1.301083
    5          1             0        0.244803    1.300131   -2.196239
    6          8             0        1.613217    2.138812   -0.958001
    7          1             0        1.466351    3.278235   -0.451968
    8          6             0       -0.356695    3.337033   -1.444220
    9          1             0       -1.421529    3.310895   -1.184103
   10          6             0       -0.177734    3.888876   -2.861716
   11          1             0       -0.740636    3.295098   -3.590189
   12          1             0       -0.534326    4.923048   -2.922018
   13          1             0        0.878559    3.873434   -3.153335
   14          6             0        0.457321    4.124722   -0.405309
   15          1             0        0.108752    4.074206    0.626633
   16          1             0        0.836814    5.106316   -0.693424
 ---------------------------------------------------------------------
                    Distance matrix (angstroms):
                    1          2          3          4          5
     1  O    0.000000
     2  H    0.978460   0.000000
     3  O    1.450425   1.885277   0.000000
     4  C    2.302162   2.433715   1.417974   0.000000
     5  H    2.497572   2.807482   2.060659   1.097217   0.000000
     6  O    2.741960   2.332493   2.336568   1.406142   2.027110
     7  H    3.558400   3.140943   2.764180   1.992589   2.906468
     8  C    3.652859   3.794989   2.363773   1.540987   2.253065
     9  H    3.840653   4.181614   2.422102   2.180150   2.800759
    10  C    4.805355   4.956788   3.686156   2.540068   2.706104
    11  H    4.909828   5.235170   3.898467   2.846588   2.625658
    12  H    5.738331   5.875225   4.502441   3.492699   3.776152
    13  H    5.009222   4.995369   4.099159   2.750915   2.817724
    14  C    4.157644   3.969600   2.974704   2.374308   3.351255
    15  H    4.142190   3.939017   2.968472   2.884387   3.960127
    16  H    5.197260   4.950567   4.045724   3.279924   4.134728
                    6          7          8          9         10
     6  O    0.000000
     7  H    1.255358   0.000000
     8  C    2.356416   2.076420   0.000000
     9  H    3.261071   2.979419   1.096456   0.000000
    10  C    3.145530   2.980400   1.531618   2.166904   0.000000
    11  H    3.715647   3.836601   2.180448   2.500623   1.095493
    12  H    4.027564   3.579003   2.175059   2.531109   1.095585
    13  H    2.892772   2.827922   2.175926   3.079729   1.095917
    14  C    2.363346   1.317899   1.537014   2.190642   2.548108
    15  H    2.918943   1.907885   2.246886   2.490616   3.504996
    16  H    3.078779   1.948460   2.262415   2.926502   2.685695
                   11         12         13         14         15
    11  H    0.000000
    12  H    1.771789   0.000000
    13  H    1.774009   1.775230   0.000000
    14  C    3.502405   2.820375   2.791457   0.000000
    15  H    4.371505   3.704997   3.862780   1.090393   0.000000
    16  H    3.762992   2.623022   2.751891   1.091124   1.826985
                   16
    16  H    0.000000
 Symmetry turned off by external request.
 Stoichiometry    C4H9O3(2)
 Framework group  C1[X(C4H9O3)]
 Deg. of freedom    42
 Full point group                 C1
 Rotational constants (GHZ):      4.8392343      1.6806609      1.5979787
 Standard basis: CBSB7 (5D, 7F)
 Integral buffers will be    131072 words long.
 Raffenetti 2 integral format.
 Two-electron integral symmetry is turned off.
   180 basis functions,   296 primitive gaussians,   187 cartesian basis functions
    29 alpha electrons       28 beta electrons
       nuclear repulsion energy       334.8572000924 Hartrees.
 NAtoms=   16 NActive=   16 NUniq=   16 SFac= 7.50D-01 NAtFMM=   80 NAOKFM=F Big=F
 One-electron integrals computed using PRISM.
 NBasis=   180 RedAO= T  NBF=   180
 NBsUse=   180 1.00D-06 NBFU=   180
 Harris functional with IExCor=  402 diagonalized for initial guess.
 ExpMin= 1.03D-01 ExpMax= 8.59D+03 ExpMxC= 1.30D+03 IAcc=1 IRadAn=         1 AccDes= 1.00D-06
 HarFok:  IExCor= 402 AccDes= 1.00D-06 IRadAn=         1 IDoV=1
 ScaDFX=  1.000000  1.000000  1.000000  1.000000
 <S**2> of initial guess= 0.7500
 Requested convergence on RMS density matrix=1.00D-08 within 128 cycles.
 Requested convergence on MAX density matrix=1.00D-06.
 Requested convergence on             energy=1.00D-06.
 No special actions if energy rises.
 Integral accuracy reduced to 1.0D-05 until final iterations.
 Initial convergence to 1.0D-05 achieved.  Increase integral accuracy.
 SCF Done:  E(UB+HF-LYP) =  -383.436022971     A.U. after   19 cycles
             Convg  =    0.2721D-08             -V/T =  2.0034
             S**2   =   0.7577
 Annihilation of the first spin contaminant:
 S**2 before annihilation     0.7577,   after     0.7500
 Range of M.O.s used for correlation:     1   180
 NBasis=   180 NAE=    29 NBE=    28 NFC=     0 NFV=     0
 NROrb=    180 NOA=    29 NOB=    28 NVA=   151 NVB=   152
 Symmetrizing basis deriv contribution to polar:
 IMax=3 JMax=2 DiffMx= 0.00D+00
 G2DrvN: will do   17 centers at a time, making    1 passes doing MaxLOS=2.
 FoFDir/FoFCou used for L=0 through L=2.
 DoAtom=TTTTTTTTTTTTTTTT
          Differentiating once with respect to electric field.
                with respect to dipole field.
          Differentiating once with respect to nuclear coordinates.
 Symmetry not used in FoFDir.
 MinBra= 0 MaxBra= 2 Meth= 1.
 IRaf=       0 NMat=  51 IRICut=      51 DoRegI=T DoRafI=T ISym2E= 0 JSym2E=0.
          There are  51 degrees of freedom in the 1st order CPHF.
    48 vectors were produced by pass  0.
 AX will form  48 AO Fock derivatives at one time.
    48 vectors were produced by pass  1.
    48 vectors were produced by pass  2.
    48 vectors were produced by pass  3.
    48 vectors were produced by pass  4.
    48 vectors were produced by pass  5.
    32 vectors were produced by pass  6.
     4 vectors were produced by pass  7.
     2 vectors were produced by pass  8.
 Inv2:  IOpt= 1 Iter= 1 AM= 2.44D-15 Conv= 1.00D-12.
 Inverted reduced A of dimension  326 with in-core refinement.
 Isotropic polarizability for W=    0.000000       62.06 Bohr**3.
 End of Minotr Frequency-dependent properties file   721 does not exist.

 **********************************************************************

            Population analysis using the SCF density.

 **********************************************************************

 Alpha  occ. eigenvalues --  -19.17609 -19.16644 -19.15090 -10.27325 -10.21071
 Alpha  occ. eigenvalues --  -10.20349 -10.17854  -1.12935  -1.03320  -0.90637
 Alpha  occ. eigenvalues --   -0.81554  -0.71663  -0.66585  -0.58301  -0.54858
 Alpha  occ. eigenvalues --   -0.52631  -0.49048  -0.46840  -0.45184  -0.43434
 Alpha  occ. eigenvalues --   -0.41984  -0.40632  -0.37211  -0.36850  -0.34312
 Alpha  occ. eigenvalues --   -0.32828  -0.30098  -0.28489  -0.27209
 Alpha virt. eigenvalues --    0.01619   0.03834   0.06341   0.07314   0.07449
 Alpha virt. eigenvalues --    0.09503   0.09989   0.12188   0.12887   0.13370
 Alpha virt. eigenvalues --    0.16537   0.19012   0.20502   0.21832   0.25135
 Alpha virt. eigenvalues --    0.27723   0.29344   0.31892   0.34494   0.39505
 Alpha virt. eigenvalues --    0.40381   0.43952   0.45840   0.47379   0.48082
 Alpha virt. eigenvalues --    0.49613   0.52006   0.53804   0.55592   0.56392
 Alpha virt. eigenvalues --    0.56658   0.57889   0.60296   0.60761   0.63030
 Alpha virt. eigenvalues --    0.66777   0.67839   0.73589   0.76207   0.78441
 Alpha virt. eigenvalues --    0.82314   0.85378   0.88072   0.89616   0.91473
 Alpha virt. eigenvalues --    0.92357   0.96398   1.00096   1.05201   1.11019
 Alpha virt. eigenvalues --    1.14545   1.19471   1.26830   1.29484   1.30121
 Alpha virt. eigenvalues --    1.33705   1.36265   1.37819   1.38488   1.41019
 Alpha virt. eigenvalues --    1.43880   1.45633   1.49020   1.49977   1.51505
 Alpha virt. eigenvalues --    1.53482   1.54025   1.56964   1.59125   1.62249
 Alpha virt. eigenvalues --    1.62670   1.66366   1.68820   1.70071   1.73282
 Alpha virt. eigenvalues --    1.76332   1.79027   1.81563   1.84219   1.91395
 Alpha virt. eigenvalues --    1.92918   1.94974   1.95752   2.00817   2.05378
 Alpha virt. eigenvalues --    2.07380   2.09153   2.13388   2.19797   2.23996
 Alpha virt. eigenvalues --    2.27587   2.36195   2.37834   2.39186   2.41970
 Alpha virt. eigenvalues --    2.44949   2.46942   2.49091   2.49561   2.51563
 Alpha virt. eigenvalues --    2.54711   2.56858   2.59992   2.60861   2.63994
 Alpha virt. eigenvalues --    2.69440   2.69949   2.72575   2.75630   2.80908
 Alpha virt. eigenvalues --    2.84480   2.85382   2.86882   2.93575   3.00255
 Alpha virt. eigenvalues --    3.06343   3.09538   3.12238   3.14176   3.23541
 Alpha virt. eigenvalues --    3.29048   3.33918   3.35644   3.49758   3.60952
 Alpha virt. eigenvalues --    3.65523   3.70609   3.77249   3.78103   3.79244
 Alpha virt. eigenvalues --    3.86412   3.94687   4.04919   4.15859   4.35133
 Alpha virt. eigenvalues --    4.69784   4.80698   4.87580   4.90914   5.09095
 Alpha virt. eigenvalues --    5.24586   5.28912   5.49902   5.69046  23.66138
 Alpha virt. eigenvalues --   23.79273  23.83183  23.91340  49.77404  49.83642
 Alpha virt. eigenvalues --   49.89967
  Beta  occ. eigenvalues --  -19.17614 -19.16631 -19.13670 -10.27340 -10.20363
  Beta  occ. eigenvalues --  -10.20185 -10.17853  -1.12786  -1.00743  -0.90276
  Beta  occ. eigenvalues --   -0.80766  -0.70209  -0.66064  -0.57418  -0.54559
  Beta  occ. eigenvalues --   -0.50575  -0.48238  -0.46314  -0.44788  -0.42684
  Beta  occ. eigenvalues --   -0.41370  -0.40093  -0.36917  -0.36291  -0.32959
  Beta  occ. eigenvalues --   -0.32152  -0.29410  -0.27684
  Beta virt. eigenvalues --   -0.14597   0.01648   0.04018   0.06572   0.07431
  Beta virt. eigenvalues --    0.07567   0.09759   0.10141   0.12261   0.13007
  Beta virt. eigenvalues --    0.13930   0.17831   0.19402   0.20821   0.22205
  Beta virt. eigenvalues --    0.25937   0.27910   0.29594   0.31985   0.34766
  Beta virt. eigenvalues --    0.39546   0.40705   0.44357   0.46572   0.48225
  Beta virt. eigenvalues --    0.49276   0.50410   0.52925   0.53957   0.56110
  Beta virt. eigenvalues --    0.56648   0.56827   0.58095   0.60469   0.61212
  Beta virt. eigenvalues --    0.63248   0.67020   0.68081   0.73941   0.76397
  Beta virt. eigenvalues --    0.78886   0.82670   0.85900   0.88318   0.90033
  Beta virt. eigenvalues --    0.92141   0.93140   0.96587   1.00486   1.06437
  Beta virt. eigenvalues --    1.11658   1.14904   1.20036   1.27053   1.29645
  Beta virt. eigenvalues --    1.30654   1.33963   1.36392   1.38099   1.38742
  Beta virt. eigenvalues --    1.41737   1.43957   1.46363   1.49357   1.50663
  Beta virt. eigenvalues --    1.52184   1.53762   1.54216   1.57261   1.59575
  Beta virt. eigenvalues --    1.62568   1.63164   1.66673   1.68919   1.70282
  Beta virt. eigenvalues --    1.73418   1.76582   1.79577   1.81867   1.84518
  Beta virt. eigenvalues --    1.91771   1.93209   1.95177   1.96952   2.01361
  Beta virt. eigenvalues --    2.06001   2.07696   2.09618   2.14093   2.20335
  Beta virt. eigenvalues --    2.24570   2.28425   2.36391   2.38271   2.39616
  Beta virt. eigenvalues --    2.42067   2.45215   2.47076   2.49305   2.50012
  Beta virt. eigenvalues --    2.51906   2.54871   2.56931   2.60005   2.60988
  Beta virt. eigenvalues --    2.64130   2.69740   2.70378   2.72828   2.75875
  Beta virt. eigenvalues --    2.81195   2.84582   2.86231   2.87092   2.95624
  Beta virt. eigenvalues --    3.00702   3.06870   3.11222   3.12637   3.15108
  Beta virt. eigenvalues --    3.23904   3.29337   3.34300   3.36188   3.52610
  Beta virt. eigenvalues --    3.61430   3.67562   3.71604   3.77288   3.78144
  Beta virt. eigenvalues --    3.79324   3.87246   3.95496   4.05110   4.16655
  Beta virt. eigenvalues --    4.35402   4.69805   4.80919   4.87862   4.91733
  Beta virt. eigenvalues --    5.13487   5.25509   5.29054   5.50757   5.69192
  Beta virt. eigenvalues --   23.66160  23.79916  23.83490  23.91353  49.77476
  Beta virt. eigenvalues --   49.84084  49.90891
          Condensed to atoms (all electrons):
              1          2          3          4          5          6
     1  O    7.933253   0.281521   0.084339  -0.050277   0.007898  -0.005991
     2  H    0.281521   0.476511  -0.036084  -0.007356   0.000364   0.022699
     3  O    0.084339  -0.036084   8.113605   0.192643  -0.043792  -0.057708
     4  C   -0.050277  -0.007356   0.192643   4.852804   0.410265   0.269339
     5  H    0.007898   0.000364  -0.043792   0.410265   0.568855  -0.039956
     6  O   -0.005991   0.022699  -0.057708   0.269339  -0.039956   8.115373
     7  H    0.000163   0.000581   0.005275  -0.063013   0.007710   0.168964
     8  C    0.008201  -0.000733  -0.029108   0.287534  -0.052591  -0.047308
     9  H   -0.000287  -0.000027   0.008114  -0.044407  -0.000260   0.005156
    10  C   -0.000209   0.000033   0.002278  -0.054368   0.003013  -0.003732
    11  H   -0.000035   0.000011  -0.000064  -0.003219   0.002588  -0.000451
    12  H    0.000007   0.000001  -0.000185   0.007797   0.000510  -0.000355
    13  H   -0.000005  -0.000077   0.000545  -0.008170  -0.003051   0.011324
    14  C   -0.000518   0.000696  -0.001468  -0.070550   0.007958  -0.079893
    15  H   -0.000163  -0.000152   0.005009   0.003239   0.000047  -0.000679
    16  H    0.000016  -0.000020  -0.000053   0.006951  -0.000130   0.000766
              7          8          9         10         11         12
     1  O    0.000163   0.008201  -0.000287  -0.000209  -0.000035   0.000007
     2  H    0.000581  -0.000733  -0.000027   0.000033   0.000011   0.000001
     3  O    0.005275  -0.029108   0.008114   0.002278  -0.000064  -0.000185
     4  C   -0.063013   0.287534  -0.044407  -0.054368  -0.003219   0.007797
     5  H    0.007710  -0.052591  -0.000260   0.003013   0.002588   0.000510
     6  O    0.168964  -0.047308   0.005156  -0.003732  -0.000451  -0.000355
     7  H    0.489651  -0.041734   0.002961   0.001935  -0.000323  -0.000091
     8  C   -0.041734   5.261049   0.400278   0.328087  -0.032926  -0.031904
     9  H    0.002961   0.400278   0.547950  -0.027998  -0.005766  -0.006323
    10  C    0.001935   0.328087  -0.027998   4.883183   0.402561   0.402478
    11  H   -0.000323  -0.032926  -0.005766   0.402561   0.564323  -0.025287
    12  H   -0.000091  -0.031904  -0.006323   0.402478  -0.025287   0.570537
    13  H    0.001170  -0.038846   0.008032   0.400136  -0.027734  -0.029973
    14  C    0.254846   0.297883  -0.032602  -0.059373   0.007640  -0.005999
    15  H   -0.011686  -0.028491  -0.005595   0.005742  -0.000399   0.000208
    16  H   -0.009237  -0.036947   0.001788  -0.005111   0.000191   0.003188
             13         14         15         16
     1  O   -0.000005  -0.000518  -0.000163   0.000016
     2  H   -0.000077   0.000696  -0.000152  -0.000020
     3  O    0.000545  -0.001468   0.005009  -0.000053
     4  C   -0.008170  -0.070550   0.003239   0.006951
     5  H   -0.003051   0.007958   0.000047  -0.000130
     6  O    0.011324  -0.079893  -0.000679   0.000766
     7  H    0.001170   0.254846  -0.011686  -0.009237
     8  C   -0.038846   0.297883  -0.028491  -0.036947
     9  H    0.008032  -0.032602  -0.005595   0.001788
    10  C    0.400136  -0.059373   0.005742  -0.005111
    11  H   -0.027734   0.007640  -0.000399   0.000191
    12  H   -0.029973  -0.005999   0.000208   0.003188
    13  H    0.571766  -0.002463   0.000109  -0.000450
    14  C   -0.002463   5.164605   0.387898   0.392058
    15  H    0.000109   0.387898   0.522959  -0.026130
    16  H   -0.000450   0.392058  -0.026130   0.537755
 Mulliken atomic charges:
              1
     1  O   -0.257912
     2  H    0.262032
     3  O   -0.243347
     4  C    0.270787
     5  H    0.130572
     6  O   -0.357547
     7  H    0.192828
     8  C   -0.242445
     9  H    0.148986
    10  C   -0.278657
    11  H    0.118891
    12  H    0.115392
    13  H    0.117687
    14  C   -0.260718
    15  H    0.148087
    16  H    0.135364
 Sum of Mulliken charges=   0.00000
 Atomic charges with hydrogens summed into heavy atoms:
              1
     1  O    0.004120
     2  H    0.000000
     3  O   -0.243347
     4  C    0.401359
     5  H    0.000000
     6  O   -0.164719
     7  H    0.000000
     8  C   -0.093459
     9  H    0.000000
    10  C    0.073313
    11  H    0.000000
    12  H    0.000000
    13  H    0.000000
    14  C    0.022733
    15  H    0.000000
    16  H    0.000000
 Sum of Mulliken charges=   0.00000
          Atomic-Atomic Spin Densities.
              1          2          3          4          5          6
     1  O    0.005110   0.000491  -0.000681  -0.000545   0.000641  -0.000596
     2  H    0.000491  -0.001086   0.000335  -0.000347  -0.000307  -0.000953
     3  O   -0.000681   0.000335  -0.003828   0.002496  -0.000540   0.001133
     4  C   -0.000545  -0.000347   0.002496   0.006824   0.009398   0.003401
     5  H    0.000641  -0.000307  -0.000540   0.009398   0.019809  -0.004276
     6  O   -0.000596  -0.000953   0.001133   0.003401  -0.004276   0.605208
     7  H   -0.000023   0.000184   0.000224   0.000893  -0.001438  -0.035185
     8  C   -0.000120   0.000113   0.000484  -0.022937  -0.007246  -0.005736
     9  H    0.000003   0.000042   0.000232  -0.004615  -0.000570  -0.000732
    10  C    0.000004  -0.000004  -0.000074   0.001227   0.001060   0.000678
    11  H    0.000002  -0.000003  -0.000020   0.000973   0.000428   0.000084
    12  H    0.000000   0.000000  -0.000002   0.000121   0.000051   0.000060
    13  H   -0.000002   0.000009  -0.000020  -0.000806  -0.000206  -0.000924
    14  C   -0.000061   0.000297   0.000238  -0.011610  -0.002274  -0.087814
    15  H   -0.000004  -0.000032   0.000125   0.001303   0.000159   0.003109
    16  H    0.000001  -0.000008   0.000002   0.001167   0.000118   0.002423
              7          8          9         10         11         12
     1  O   -0.000023  -0.000120   0.000003   0.000004   0.000002   0.000000
     2  H    0.000184   0.000113   0.000042  -0.000004  -0.000003   0.000000
     3  O    0.000224   0.000484   0.000232  -0.000074  -0.000020  -0.000002
     4  C    0.000893  -0.022937  -0.004615   0.001227   0.000973   0.000121
     5  H   -0.001438  -0.007246  -0.000570   0.001060   0.000428   0.000051
     6  O   -0.035185  -0.005736  -0.000732   0.000678   0.000084   0.000060
     7  H   -0.066663   0.011218  -0.000614   0.000231   0.000014  -0.000041
     8  C    0.011218   0.014582   0.011420  -0.001174  -0.000870  -0.000190
     9  H   -0.000614   0.011420   0.001794   0.000754  -0.000121  -0.000108
    10  C    0.000231  -0.001174   0.000754   0.002729  -0.000272   0.000082
    11  H    0.000014  -0.000870  -0.000121  -0.000272  -0.000190   0.000352
    12  H   -0.000041  -0.000190  -0.000108   0.000082   0.000352  -0.000690
    13  H    0.000163   0.000533   0.000020   0.000580  -0.000188  -0.000069
    14  C    0.059976  -0.002346  -0.002966  -0.004740  -0.000010   0.000349
    15  H    0.000673  -0.002999  -0.000208  -0.000241   0.000035   0.000027
    16  H   -0.001668   0.000387  -0.000563  -0.000441   0.000038   0.000250
             13         14         15         16
     1  O   -0.000002  -0.000061  -0.000004   0.000001
     2  H    0.000009   0.000297  -0.000032  -0.000008
     3  O   -0.000020   0.000238   0.000125   0.000002
     4  C   -0.000806  -0.011610   0.001303   0.001167
     5  H   -0.000206  -0.002274   0.000159   0.000118
     6  O   -0.000924  -0.087814   0.003109   0.002423
     7  H    0.000163   0.059976   0.000673  -0.001668
     8  C    0.000533  -0.002346  -0.002999   0.000387
     9  H    0.000020  -0.002966  -0.000208  -0.000563
    10  C    0.000580  -0.004740  -0.000241  -0.000441
    11  H   -0.000188  -0.000010   0.000035   0.000038
    12  H   -0.000069   0.000349   0.000027   0.000250
    13  H   -0.000534   0.001116  -0.000068  -0.000286
    14  C    0.001116   0.643344  -0.003507  -0.006956
    15  H   -0.000068  -0.003507  -0.019961   0.003756
    16  H   -0.000286  -0.006956   0.003756  -0.015102
 Mulliken atomic spin densities:
              1
     1  O    0.004221
     2  H   -0.001268
     3  O    0.000105
     4  C   -0.013055
     5  H    0.014806
     6  O    0.479879
     7  H   -0.032054
     8  C   -0.004883
     9  H    0.003767
    10  C    0.000398
    11  H    0.000253
    12  H    0.000191
    13  H   -0.000683
    14  C    0.583038
    15  H   -0.017833
    16  H   -0.016882
 Sum of Mulliken spin densities=   1.00000
 APT atomic charges:
              1
     1  O   -0.298916
     2  H    0.258294
     3  O   -0.346383
     4  C    0.650524
     5  H   -0.019185
     6  O   -0.403873
     7  H   -0.085759
     8  C    0.052511
     9  H    0.002115
    10  C    0.064589
    11  H   -0.010812
    12  H   -0.017483
    13  H   -0.003323
    14  C    0.159228
    15  H   -0.004900
    16  H    0.003372
 Sum of APT charges=   0.00000
 APT Atomic charges with hydrogens summed into heavy atoms:
              1
     1  O   -0.040622
     2  H    0.000000
     3  O   -0.346383
     4  C    0.631339
     5  H    0.000000
     6  O   -0.489632
     7  H    0.000000
     8  C    0.054626
     9  H    0.000000
    10  C    0.032971
    11  H    0.000000
    12  H    0.000000
    13  H    0.000000
    14  C    0.157700
    15  H    0.000000
    16  H    0.000000
 Sum of APT charges=   0.00000
 Electronic spatial extent (au):  <R**2>=  2230.8175
 Charge=     0.0000 electrons
 Dipole moment (field-independent basis, Debye):
    X=     0.2570    Y=     2.8163    Z=    -0.6139  Tot=     2.8939
 Quadrupole moment (field-independent basis, Debye-Ang):
   XX=   -45.2827   YY=   -30.0943   ZZ=   -39.9866
   XY=    -1.7129   XZ=     2.7657   YZ=    -3.1072
 Traceless Quadrupole moment (field-independent basis, Debye-Ang):
   XX=    -6.8282   YY=     8.3602   ZZ=    -1.5320
   XY=    -1.7129   XZ=     2.7657   YZ=    -3.1072
 Octapole moment (field-independent basis, Debye-Ang**2):
  XXX=   -34.1838  YYY=  -265.0325  ZZZ=   136.8981  XYY=    -9.8181
  XXY=  -114.1569  XXZ=    52.2127  XZZ=   -12.2300  YZZ=  -101.4648
  YYZ=    36.2366  XYZ=     4.3098
 Hexadecapole moment (field-independent basis, Debye-Ang**3):
 XXXX=  -190.3817 YYYY= -1942.2362 ZZZZ=  -609.8290 XXXY=   -78.6274
 XXXZ=    21.6466 YYYX=   -46.4475 YYYZ=   404.9777 ZZZX=    17.5606
 ZZZY=   447.5665 XXYY=  -403.5731 XXZZ=  -137.0198 YYZZ=  -453.0954
 XXYZ=   158.5164 YYXZ=    11.3039 ZZXY=   -28.3818
 N-N= 3.348572000924D+02 E-N=-1.569197052333D+03  KE= 3.821286313817D+02
  Exact polarizability:  51.801  -4.013  76.754   2.379  -2.741  57.615
 Approx polarizability:  81.774  -9.372 106.101  -0.152   1.621  75.429
                          Isotropic Fermi Contact Couplings
        Atom                 a.u.       MegaHertz       Gauss      10(-4) cm-1
     1  O(17)             -0.00048       0.28978       0.10340       0.09666
     2  H(1)              -0.00007      -0.33092      -0.11808      -0.11038
     3  O(17)             -0.00290       1.75745       0.62710       0.58622
     4  C(13)             -0.00002      -0.01732      -0.00618      -0.00578
     5  H(1)               0.00746      33.35796      11.90295      11.12702
     6  O(17)              0.05035     -30.52354     -10.89156     -10.18156
     7  H(1)              -0.01886     -84.29114     -30.07717     -28.11650
     8  C(13)             -0.00939     -10.55617      -3.76670      -3.52116
     9  H(1)               0.00407      18.18235       6.48792       6.06498
    10  C(13)              0.00022       0.24479       0.08735       0.08165
    11  H(1)               0.00009       0.41715       0.14885       0.13915
    12  H(1)               0.00027       1.20891       0.43137       0.40325
    13  H(1)              -0.00014      -0.61943      -0.22103      -0.20662
    14  C(13)              0.08733      98.18066      35.03330      32.74954
    15  H(1)              -0.00413     -18.45542      -6.58535      -6.15607
    16  H(1)              -0.00389     -17.37231      -6.19887      -5.79478
 --------------------------------------------------------
       Center         ----  Spin Dipole Couplings  ----
                      3XX-RR        3YY-RR        3ZZ-RR
 --------------------------------------------------------
     1   Atom        0.004743     -0.006788      0.002044
     2   Atom       -0.005035      0.005752     -0.000717
     3   Atom       -0.005582     -0.002962      0.008544
     4   Atom        0.013078     -0.006704     -0.006374
     5   Atom        0.001589     -0.000279     -0.001311
     6   Atom       -0.967066      1.301519     -0.334453
     7   Atom       -0.026643      0.115706     -0.089063
     8   Atom        0.000361      0.013998     -0.014359
     9   Atom        0.009196     -0.003545     -0.005652
    10   Atom       -0.003911     -0.002530      0.006441
    11   Atom       -0.000813     -0.002237      0.003051
    12   Atom       -0.002519     -0.001712      0.004231
    13   Atom       -0.005112     -0.002690      0.007802
    14   Atom        0.375238     -0.025125     -0.350113
    15   Atom       -0.010610     -0.028427      0.039037
    16   Atom        0.000302      0.036935     -0.037237
 --------------------------------------------------------
                        XY            XZ            YZ
 --------------------------------------------------------
     1   Atom        0.007060     -0.021984     -0.004862
     2   Atom        0.003191     -0.001777     -0.007384
     3   Atom       -0.000477      0.000341     -0.001022
     4   Atom        0.005636      0.015360      0.001570
     5   Atom        0.004350      0.008465      0.009136
     6   Atom       -0.527407     -0.291190      1.317490
     7   Atom       -0.107585     -0.019119      0.066639
     8   Atom        0.006129      0.009601      0.008885
     9   Atom        0.001714      0.003659      0.003826
    10   Atom       -0.002590      0.003926     -0.000132
    11   Atom       -0.000632      0.003282     -0.000015
    12   Atom       -0.002017      0.003381     -0.003138
    13   Atom       -0.001223      0.000527     -0.002803
    14   Atom       -0.485585      0.027482     -0.016966
    15   Atom       -0.016411     -0.022135     -0.007835
    16   Atom        0.014233     -0.009357     -0.020720
 --------------------------------------------------------


 ---------------------------------------------------------------------------------
              Anisotropic Spin Dipole Couplings in Principal Axis System
 ---------------------------------------------------------------------------------

       Atom             a.u.   MegaHertz   Gauss  10(-4) cm-1        Axes

              Baa    -0.0188     1.360     0.485     0.454  0.6969 -0.1238  0.7064
     1 O(17)  Bbb    -0.0087     0.631     0.225     0.211 -0.0878  0.9628  0.2554
              Bcc     0.0275    -1.991    -0.710    -0.664  0.7117  0.2401 -0.6601
 
              Baa    -0.0060    -3.195    -1.140    -1.066  0.8486 -0.4271 -0.3123
     2 H(1)   Bbb    -0.0054    -2.881    -1.028    -0.961  0.4827  0.3833  0.7875
              Bcc     0.0114     6.076     2.168     2.027  0.2166  0.8190 -0.5314
 
              Baa    -0.0057     0.410     0.146     0.137  0.9855  0.1694 -0.0115
     3 O(17)  Bbb    -0.0030     0.215     0.077     0.072 -0.1677  0.9815  0.0920
              Bcc     0.0086    -0.625    -0.223    -0.209  0.0268 -0.0888  0.9957
 
              Baa    -0.0151    -2.022    -0.722    -0.674 -0.4985  0.1766  0.8487
     4 C(13)  Bbb    -0.0076    -1.016    -0.362    -0.339 -0.0794  0.9656 -0.2475
              Bcc     0.0226     3.038     1.084     1.013  0.8632  0.1908  0.4673
 
              Baa    -0.0111    -5.930    -2.116    -1.978 -0.3422 -0.5216  0.7816
     5 H(1)   Bbb    -0.0036    -1.912    -0.682    -0.638  0.7428 -0.6596 -0.1150
              Bcc     0.0147     7.842     2.798     2.616  0.5755  0.5412  0.6131
 
              Baa    -1.0837    78.415    27.980    26.156  0.9757  0.2190 -0.0058
     6 O(17)  Bbb    -1.0670    77.209    27.550    25.754  0.1095 -0.4645  0.8788
              Bcc     2.1507  -155.624   -55.531   -51.911 -0.1897  0.8581  0.4771
 
              Baa    -0.1127   -60.155   -21.465   -20.066 -0.3005 -0.3948  0.8683
     7 H(1)   Bbb    -0.0773   -41.231   -14.712   -13.753  0.8416  0.3186  0.4361
              Bcc     0.1900   101.387    36.177    33.819 -0.4488  0.8618  0.2365
 
              Baa    -0.0200    -2.684    -0.958    -0.895 -0.3780 -0.1697  0.9101
     8 C(13)  Bbb    -0.0005    -0.063    -0.023    -0.021  0.8271 -0.5036  0.2496
              Bcc     0.0205     2.748     0.980     0.917  0.4160  0.8471  0.3307
 
              Baa    -0.0088    -4.684    -1.672    -1.563 -0.1132 -0.5618  0.8195
     9 H(1)   Bbb    -0.0017    -0.933    -0.333    -0.311 -0.2972  0.8062  0.5116
              Bcc     0.0105     5.618     2.004     1.874  0.9481  0.1857  0.2583
 
              Baa    -0.0067    -0.894    -0.319    -0.298  0.8255  0.5098 -0.2422
    10 C(13)  Bbb    -0.0012    -0.160    -0.057    -0.053 -0.4550  0.8550  0.2489
              Bcc     0.0079     1.054     0.376     0.351  0.3339 -0.0952  0.9378
 
              Baa    -0.0031    -1.630    -0.582    -0.544  0.7311  0.5587 -0.3916
    11 H(1)   Bbb    -0.0019    -1.007    -0.359    -0.336 -0.4657  0.8281  0.3120
              Bcc     0.0049     2.637     0.941     0.880  0.4986 -0.0457  0.8656
 
              Baa    -0.0043    -2.285    -0.815    -0.762  0.8653  0.4717 -0.1697
    12 H(1)   Bbb    -0.0029    -1.535    -0.548    -0.512 -0.3330  0.7939  0.5088
              Bcc     0.0072     3.820     1.363     1.274  0.3748 -0.3838  0.8440
 
              Baa    -0.0057    -3.016    -1.076    -1.006  0.9046  0.4230  0.0527
    13 H(1)   Bbb    -0.0029    -1.547    -0.552    -0.516 -0.4221  0.8716  0.2491
              Bcc     0.0086     4.563     1.628     1.522  0.0594 -0.2476  0.9670
 
              Baa    -0.3519   -47.223   -16.851   -15.752 -0.3346 -0.4543  0.8257
    14 C(13)  Bbb    -0.3494   -46.881   -16.728   -15.638  0.4451  0.6961  0.5633
              Bcc     0.7013    94.105    33.579    31.390  0.8306 -0.5560  0.0307
 
              Baa    -0.0425   -22.662    -8.086    -7.559  0.5671  0.7909  0.2300
    15 H(1)   Bbb    -0.0050    -2.683    -0.957    -0.895  0.7452 -0.6116  0.2656
              Bcc     0.0475    25.345     9.044     8.454 -0.3507 -0.0208  0.9362
 
              Baa    -0.0434   -23.139    -8.257    -7.718  0.1333  0.2254  0.9651
    16 H(1)   Bbb    -0.0045    -2.387    -0.852    -0.796  0.9369 -0.3463 -0.0486
              Bcc     0.0478    25.526     9.108     8.515  0.3233  0.9106 -0.2573
 

 ---------------------------------------------------------------------------------

 Use density number 0.
 Entering OneElI...
 Calculate overlap and kinetic energy integrals
    NBasis = 187  MinDer = 2  MaxDer = 2
 Requested accuracy = 0.1000D-12
 PrsmSu:  NPrtUS=   1 ThrOK=F
 PRISM was handed   130759976 working-precision words and  2542 shell-pairs
 Entering OneElI...
 Calculate potential energy integrals
    NBasis = 187  MinDer = 2  MaxDer = 2
 Requested accuracy = 0.1000D-12
 PrsmSu:  NPrtUS=   8 ThrOK=T
 PRISM was handed    16301407 working-precision words and  2382 shell-pairs
 PRISM was handed    16301407 working-precision words and  2382 shell-pairs
 PRISM was handed    16301407 working-precision words and  2382 shell-pairs
 PRISM was handed    16301407 working-precision words and  2382 shell-pairs
 PRISM was handed    16301407 working-precision words and  2382 shell-pairs
 PRISM was handed    16301407 working-precision words and  2382 shell-pairs
 PRISM was handed    16301407 working-precision words and  2382 shell-pairs
 PRISM was handed    16301407 working-precision words and  2382 shell-pairs
 Polarizability after L701:
                1             2             3
      1  0.518011D+02
      2 -0.401316D+01  0.767539D+02
      3  0.237885D+01 -0.274146D+01  0.576153D+02
 Dipole Derivatives after L701:
               1            2            3            4            5
      1-0.167384D+00 0.111759D-01 0.714366D-01 0.189667D+00-0.758075D-01
      2 0.159027D+00-0.368192D+00 0.168748D+00-0.186321D-01 0.256010D+00
      3 0.279232D-01 0.192152D+00-0.361172D+00-0.373187D-01-0.625012D-01
               6            7            8            9           10
      1-0.158598D-01-0.334219D+00-0.904017D-01 0.125403D+00 0.645489D+00
      2-0.121835D+00-0.338758D+00-0.300420D+00 0.165844D+00 0.581503D+00
      3 0.329205D+00 0.693174D-01 0.287098D-01-0.404511D+00-0.681924D-01
              11           12           13           14           15
      1 0.101665D+00-0.118189D+00 0.298032D-01-0.138402D-01-0.399478D-02
      2 0.674706D+00-0.232916D+00-0.930482D-01 0.917896D-03-0.280941D-01
      3-0.123319D+00 0.631376D+00-0.735731D-02-0.848207D-01-0.882746D-01
              16           17           18           19           20
      1-0.711212D+00 0.481511D-01-0.962595D-01 0.107703D+00 0.125865D+00
      2-0.168216D+00-0.176453D+00 0.221352D+00 0.244831D+00-0.454072D+00
      3 0.121959D-01 0.189658D+00-0.323953D+00 0.104764D+00-0.214180D+00
              21           22           23           24           25
      1 0.520426D-01 0.948466D-01 0.681590D-01 0.473512D-01-0.100542D+00
      2-0.186883D+00 0.148648D-01-0.690660D-01 0.742743D-02-0.162988D-01
      3 0.890930D-01 0.129648D-01 0.458966D-01 0.131753D+00 0.229330D-01
              26           27           28           29           30
      1-0.429250D-01 0.185040D-01 0.769976D-01-0.204111D-01 0.216850D-01
      2 0.987559D-01 0.367851D-01 0.183624D-01 0.846840D-01 0.187875D-02
      3 0.197174D-02 0.813209D-02-0.196624D-01 0.319992D-01 0.320852D-01
              31           32           33           34           35
      1 0.216453D-01-0.705838D-01-0.670334D-01 0.562622D-01 0.684340D-01
      2-0.588750D-01 0.345917D-02-0.298006D-01 0.577457D-01-0.133474D+00
      3-0.719027D-01-0.868099D-01-0.575409D-01-0.702804D-04 0.502826D-01
              36           37           38           39           40
      1 0.616560D-02-0.108301D+00 0.185302D-01 0.644958D-02 0.862891D-01
      2-0.152094D-03-0.161962D-01 0.563237D-01 0.823094D-02-0.469587D+00
      3 0.247623D-01 0.710537D-01-0.591581D-02 0.420079D-01-0.218885D+00
              41           42           43           44           45
      1-0.395759D-01-0.698276D-01 0.468164D-01-0.217845D-01 0.210492D-02
      2 0.418567D+00-0.762090D-01 0.696298D-01 0.329195D-02 0.240314D-01
      3 0.735343D-01-0.271723D-01 0.764070D-01-0.368228D-01-0.648075D-01
              46           47           48
      1 0.661384D-01-0.666498D-01 0.200221D-01
      2 0.336484D-01-0.950387D-01 0.415921D-01
      3 0.258300D-01 0.165466D-03 0.390163D-01
 Hessian after L701:
                1             2             3             4             5
      1  0.713840D+01
      2  0.144101D+01  0.331946D+01
      3 -0.198464D+01  0.171296D+01  0.112016D+02
      4 -0.228360D+01  0.104684D+01  0.162885D+01  0.215264D+01
      5  0.715934D+00 -0.605883D+01  0.304109D+00 -0.114393D+01  0.616056D+01
      6  0.178331D+01  0.454899D+00 -0.587223D+01 -0.177321D+01 -0.251313D+00
      7 -0.416315D+01 -0.315473D+01  0.596941D+00  0.285880D+00  0.310824D+00
      8 -0.307369D+01  0.159845D+01 -0.117923D+01  0.179070D+00 -0.174496D+00
      9  0.599021D+00 -0.125265D+01 -0.471844D+01  0.757290D-01  0.917048D-01
     10 -0.185724D+00  0.328045D+00 -0.101996D+00  0.404899D-01  0.341180D-02
     11  0.353230D+00  0.120204D+00 -0.190945D+00 -0.285364D-01 -0.787557D-01
     12 -0.120833D+00 -0.787191D-01 -0.294733D-01  0.291772D-01  0.539840D-01
     13 -0.848168D-01 -0.370454D-02  0.119567D-02 -0.132198D-02  0.260098D-03
     14 -0.532445D-03 -0.137626D-01 -0.467170D-01  0.611000D-02 -0.600462D-02
     15 -0.356877D-01 -0.147108D+00  0.207179D-01  0.150114D-01  0.438186D-02
     16  0.469766D-02  0.477313D+00 -0.196352D+00 -0.178464D+00  0.123749D+00
     17  0.573904D+00  0.206462D+00 -0.252304D+00  0.288083D-01  0.133507D+00
     18 -0.263735D+00 -0.291544D+00 -0.322497D+00 -0.166256D-01 -0.183395D+00
     19 -0.902900D-02  0.309708D-01 -0.820542D-04 -0.720494D-02  0.125894D-02
     20  0.344278D-01  0.388307D-01 -0.360867D-02 -0.233532D-02  0.792778D-02
     21 -0.652794D-03 -0.531453D-02 -0.231090D-01  0.417389D-03 -0.167397D-02
     22 -0.193744D+00 -0.109480D+00  0.427006D-01 -0.935812D-02 -0.210703D-02
     23 -0.988472D-01  0.493257D+00 -0.236868D+00 -0.272261D-01 -0.230177D-02
     24  0.367810D-01 -0.257058D+00 -0.112267D+00  0.185347D-01 -0.596286D-02
     25 -0.164561D-02 -0.455921D-01  0.107189D-01  0.948905D-02 -0.117201D-02
     26 -0.208102D-01  0.159039D-01 -0.814245D-02 -0.413045D-02  0.539814D-03
     27  0.455956D-02 -0.219269D-02 -0.170749D-01  0.138235D-04 -0.967679D-03
     28 -0.748354D-01 -0.134361D-01  0.569345D-02 -0.100698D-02 -0.187406D-02
     29  0.261422D-02  0.413537D-01 -0.800204D-01 -0.120068D-01 -0.329160D-03
     30  0.576507D-03 -0.644183D-01 -0.222144D-01  0.495474D-02 -0.517378D-02
     31 -0.102131D-01 -0.104145D-01  0.101205D-01  0.310813D-02  0.148803D-03
     32 -0.278617D-02 -0.519060D-02 -0.484901D-02  0.152064D-02  0.124457D-03
     33 -0.428893D-03 -0.208181D-01  0.122684D-01  0.572373D-02 -0.809420D-04
     34 -0.708276D-02 -0.629687D-02  0.238425D-02  0.149965D-02 -0.322953D-04
     35  0.335311D-02  0.188246D-01 -0.112127D-01 -0.607163D-02 -0.466124D-03
     36 -0.552772D-03 -0.685438D-02 -0.221776D-02  0.147460D-02 -0.229726D-03
     37  0.121499D-02  0.166609D-01 -0.114622D-01 -0.537144D-02 -0.500328D-03
     38  0.541978D-02  0.654149D-02 -0.114820D-01 -0.149926D-02 -0.117812D-02
     39 -0.775530D-02 -0.162959D-01  0.311474D-02  0.298871D-02  0.916150D-03
     40 -0.109635D+00  0.458888D-02 -0.566022D-03 -0.574660D-02 -0.533892D-02
     41  0.487053D-01  0.162652D+00 -0.229144D-03 -0.265242D-01  0.210690D-01
     42 -0.157366D-01 -0.547212D-01 -0.108294D+00  0.129643D-01 -0.621663D-02
     43 -0.175087D-01 -0.112064D-01 -0.334187D-02  0.198282D-02 -0.240545D-03
     44  0.256560D-02  0.231164D-01  0.970194D-02 -0.283333D-02 -0.160529D-02
     45  0.918437D-02  0.375621D-01 -0.273871D-02 -0.788612D-02  0.239503D-03
     46 -0.332526D-02  0.943577D-02 -0.164292D-03 -0.301503D-02 -0.392867D-03
     47  0.154983D-01  0.327295D-01 -0.115957D-02 -0.725531D-02  0.243247D-03
     48 -0.340916D-02 -0.772624D-02 -0.711052D-02  0.188404D-02 -0.321695D-03
                6             7             8             9            10
      6  0.571363D+01
      7  0.432633D-01  0.101064D+02
      8  0.757571D-01 -0.808049D-01  0.306695D+01
      9  0.206173D+00  0.344488D+01  0.545658D+01  0.822221D+01
     10  0.251891D-01 -0.583364D+01  0.219880D+01 -0.411472D+01  0.156766D+02
     11  0.225386D-01  0.212841D+01 -0.597088D+01 -0.354831D+01 -0.160558D+01
     12  0.300719D-02 -0.405710D+01 -0.358859D+01 -0.316682D+01  0.119232D+01
     13  0.178436D-02  0.128916D-01 -0.430322D-01  0.254749D+00 -0.518883D+01
     14  0.694534D-02 -0.536963D-01  0.192618D+00  0.181913D+00  0.417830D-01
     15  0.602605D-02  0.262895D+00  0.137758D+00  0.143913D+00  0.675708D-01
     16 -0.991298D-01  0.310708D+00  0.424703D+00 -0.238028D+00  0.958179D+00
     17 -0.243027D+00  0.416211D+00  0.126381D+00 -0.162427D+00  0.154368D+01
     18 -0.510164D-01 -0.268814D+00 -0.178646D+00 -0.103875D+00  0.267568D+01
     19 -0.592139D-03  0.100067D-01  0.103588D+00 -0.258671D-01  0.103442D+00
     20 -0.811949D-02  0.913309D-01  0.281670D-01 -0.274329D-01 -0.148751D+00
     21 -0.322147D-02 -0.172090D-01 -0.203118D-01 -0.646316D-01 -0.103069D+00
     22  0.472716D-02 -0.192701D+00  0.137535D+00  0.846554D-02 -0.536534D+01
     23 -0.200298D-01  0.502542D-01  0.376334D+00 -0.222741D+00 -0.214222D+01
     24  0.286746D-02  0.594099D-01 -0.220415D+00 -0.317659D+00  0.365501D+00
     25  0.519747D-02 -0.774398D-01 -0.127533D+00  0.546703D-01 -0.136505D-01
     26 -0.201729D-02 -0.299416D-01  0.114974D+00 -0.914105D-01  0.150649D+00
     27 -0.961975D-03  0.550416D-02 -0.720668D-01 -0.696143D-01 -0.241741D-01
     28  0.485529D-02 -0.168024D+00  0.182424D-01 -0.212041D-01  0.515530D-02
     29 -0.119408D-01  0.239418D-01  0.706175D-01 -0.273655D+00 -0.111921D+00
     30  0.116821D-02 -0.212401D-01 -0.238102D+00  0.105520D+00  0.595393D-01
     31  0.266091D-02 -0.160212D-01 -0.123640D-01  0.206871D-01 -0.720700D-02
     32  0.370241D-03  0.246722D-04 -0.141292D-01 -0.652962D-02  0.503297D-02
     33  0.346966D-02  0.467335D-02 -0.376258D-01  0.428190D-01  0.166770D-01
     34  0.119065D-02 -0.103966D-01 -0.773473D-02  0.493716D-02 -0.346636D-01
     35 -0.355090D-02 -0.100661D-02  0.280088D-01 -0.286658D-01 -0.525940D-01
     36  0.473419D-03 -0.109711D-02 -0.136364D-01  0.139882D-02  0.276352D-01
     37 -0.312626D-02 -0.158701D-02  0.341441D-01 -0.368914D-01 -0.698285D-02
     38 -0.705256D-03  0.144009D-01  0.102569D-01 -0.305109D-01 -0.226466D-01
     39  0.102259D-02 -0.187975D-01 -0.380019D-01  0.226484D-01  0.290483D-01
     40  0.305153D-02 -0.197990D+00  0.211975D+00 -0.217744D-01 -0.616562D-01
     41 -0.148139D-01  0.225129D+00  0.378996D+00 -0.107674D+00 -0.220038D+00
     42 -0.683157D-02 -0.523371D-01 -0.182797D+00 -0.253128D+00 -0.955159D-01
     43  0.139790D-02 -0.579400D-01  0.108305D-01  0.105095D-02 -0.433495D-01
     44 -0.113764D-02  0.365108D-01  0.112125D+00  0.363912D-01 -0.152102D-01
     45 -0.374078D-02  0.232317D-01  0.113221D+00 -0.376401D-01 -0.225868D-01
     46 -0.566237D-03 -0.698503D-02  0.262721D-01 -0.570336D-02 -0.428591D-01
     47 -0.385490D-02  0.231470D-01  0.556212D-01 -0.145750D-01  0.475593D-01
     48  0.158713D-03 -0.420062D-02 -0.138932D-01 -0.128811D-01  0.289587D-02
               11            12            13            14            15
     11  0.189327D+02
     12  0.218717D+01  0.205224D+02
     13  0.540905D-01  0.868613D-01  0.539666D+01
     14 -0.398307D+01  0.181855D+01  0.685394D-01  0.364190D+01
     15  0.185789D+01 -0.245981D+01 -0.295278D+00 -0.193341D+01  0.185512D+01
     16  0.163311D+01  0.264700D+01 -0.210122D+00 -0.164426D+00 -0.963318D-01
     17 -0.864786D+01  0.560209D+00 -0.181462D+00  0.827606D-01 -0.211329D-01
     18  0.535430D+00 -0.909820D+01 -0.134131D+00 -0.551917D-02  0.258532D+00
     19 -0.189756D+00 -0.118760D+00 -0.547704D-02  0.566638D-01  0.536136D-01
     20  0.806611D-01 -0.132091D+00  0.446223D-01  0.508332D-01  0.844897D-01
     21 -0.131609D+00  0.173511D+00  0.372332D-01  0.732543D-01  0.353056D-01
     22 -0.217205D+01  0.326398D+00  0.195876D+00  0.937948D-01  0.465283D-01
     23 -0.166705D+01 -0.803503D+00  0.776105D-01 -0.226805D+00 -0.175764D+00
     24 -0.885304D+00 -0.612071D+01  0.376949D-01 -0.164878D+00  0.154353D+00
     25  0.120336D+00  0.786322D-02  0.458309D-02 -0.199184D-01 -0.194268D-01
     26  0.710050D-01 -0.112930D-01 -0.628246D-02  0.511217D-02  0.828608D-02
     27  0.114888D-01  0.145132D+00 -0.429859D-02  0.819877D-02  0.264445D-02
     28 -0.843922D-01  0.570290D-01 -0.527826D-01 -0.606724D-02 -0.738583D-02
     29  0.218339D+00 -0.144695D+00 -0.938950D-03  0.972629D-01  0.721933D-02
     30 -0.238021D-01 -0.306529D-01 -0.309026D-03 -0.406962D-01 -0.420757D-01
     31 -0.949463D-02  0.326238D-01 -0.626934D-02 -0.224491D-01  0.204662D-02
     32 -0.186014D-01  0.496680D-02 -0.999323D-02  0.828841D-02 -0.125878D-01
     33 -0.174368D-01  0.319780D-01  0.108778D-01 -0.319280D-01 -0.103084D-01
     34 -0.502056D-01  0.304938D-01 -0.282624D-02 -0.659581D-02 -0.236536D-02
     35  0.141029D+00 -0.109714D+00 -0.400773D-02  0.229406D-01  0.745871D-02
     36 -0.984618D-01  0.582461D-03  0.779861D-03 -0.463902D-02 -0.437134D-02
     37 -0.146207D-02 -0.756982D-02  0.527134D-02  0.538221D-02  0.947055D-02
     38 -0.410166D-02  0.210121D-01 -0.547965D-02 -0.169355D-01  0.112044D-01
     39  0.262901D-01 -0.385578D-01  0.157077D-02  0.723635D-02 -0.204443D-02
     40 -0.183804D+00 -0.921613D-01 -0.617182D-01  0.138642D-02 -0.566688D-03
     41  0.628557D+00  0.126443D+00  0.926045D-02  0.134312D+00  0.155022D+00
     42  0.130773D+00  0.536301D-01  0.487944D-03  0.122356D+00  0.305244D-01
     43 -0.208634D-01 -0.206501D-01 -0.864304D-03 -0.320938D-02 -0.361051D-02
     44  0.106865D-01  0.689494D-01 -0.701824D-03  0.122426D-02  0.439245D-02
     45  0.100438D+00  0.625273D-01  0.494847D-03  0.109343D-01  0.132404D-01
     46  0.569788D-01  0.730374D-02 -0.259015D-03  0.323497D-02  0.351716D-02
     47  0.167147D+00  0.273107D-01  0.121890D-02  0.932010D-02  0.118977D-01
     48  0.238539D-01 -0.485022D-01  0.287635D-03 -0.160790D-02 -0.176275D-02
               16            17            18            19            20
     16  0.175513D+01
     17 -0.125226D+01  0.740909D+01
     18 -0.204876D+01 -0.965887D+00  0.117858D+02
     19 -0.279671D+01 -0.262687D+00 -0.108992D+00  0.374442D+01
     20 -0.567919D+00  0.344723D+00  0.134210D+01  0.200489D+01  0.860458D+00
     21 -0.237364D+00  0.141535D+01 -0.228517D+01  0.379135D+00 -0.129450D+01
     22  0.143397D+00 -0.397534D+00 -0.208505D+00 -0.687347D-01 -0.949422D-01
     23 -0.458933D+00  0.236159D+00  0.311355D-01 -0.368843D-01  0.138222D+00
     24 -0.201441D+00  0.544722D-02 -0.855316D-01 -0.838749D-01 -0.624609D-01
     25  0.197791D+00 -0.896084D-01  0.434037D-02  0.834682D-01 -0.794135D-03
     26 -0.679707D-01 -0.406151D-01  0.251527D-02 -0.258884D-02 -0.169595D-01
     27 -0.925842D-02  0.292890D-02 -0.590851D-01  0.166289D-01  0.460540D-02
     28  0.200674D-01 -0.223353D+00  0.256208D+00 -0.213667D-02 -0.976887D-02
     29 -0.182374D+00 -0.762270D-01 -0.203613D+00 -0.592928D-02 -0.303572D-01
     30  0.179605D+00 -0.166032D+00 -0.110330D-01  0.386471D-01 -0.200513D-01
     31  0.166759D-01 -0.163519D-01  0.380366D-01  0.111547D-02 -0.269581D-04
     32  0.412843D-02 -0.203746D-01  0.199173D-02  0.269017D-02 -0.133170D-02
     33  0.414349D-01 -0.202128D-01  0.258223D-01  0.243547D-02  0.215982D-03
     34  0.318450D-02 -0.226119D-01  0.139955D-01  0.172467D-02 -0.258163D-02
     35 -0.317146D-01  0.249897D-01 -0.251200D-01 -0.626704D-02  0.169253D-02
     36  0.109837D-01 -0.142224D-01 -0.411127D-02  0.312766D-02 -0.277173D-02
     37 -0.834545D-01 -0.141846D-01  0.152192D-01 -0.114375D-01  0.103957D-02
     38 -0.679048D-01  0.156882D-01 -0.129015D+00 -0.113836D-02 -0.976305D-02
     39  0.867850D-01 -0.149746D+00  0.739136D-01  0.119958D-01 -0.684807D-02
     40 -0.100655D+00 -0.516716D-01  0.977300D-01 -0.104332D+01 -0.141806D+01
     41  0.189066D+00  0.925556D-01  0.357084D-01 -0.175294D+01 -0.147290D+01
     42  0.225545D+00 -0.433429D-01 -0.127559D+00 -0.202350D+00  0.136355D+00
     43  0.142915D-02 -0.435310D-01 -0.518604D-01 -0.171078D-01  0.272166D-01
     44 -0.226930D-01 -0.185438D-01  0.369288D-01  0.450286D-01  0.130796D-01
     45 -0.698993D-01  0.725605D-01  0.455059D-01  0.326831D-01 -0.924938D-02
     46 -0.418544D-01 -0.735474D-02  0.211828D-03  0.169767D-01  0.416607D-01
     47 -0.358748D-01  0.131301D+00 -0.307601D-02  0.130998D-01 -0.332801D-01
     48  0.521044D-02 -0.181618D-01 -0.415151D-01  0.225143D-02 -0.639162D-03
               21            22            23            24            25
     21  0.483885D+01
     22 -0.112491D+00  0.170781D+02
     23 -0.245584D-01  0.100729D+01  0.147415D+02
     24  0.809903D-01 -0.861510D+00  0.145458D+01  0.157148D+02
     25  0.268573D-01 -0.191919D+01  0.233178D+00 -0.724816D+00  0.135761D+01
     26 -0.704333D-03  0.492729D-01 -0.480789D+01  0.759723D-02 -0.197959D-01
     27 -0.119544D-01 -0.644103D+00 -0.296136D-01 -0.462806D+01  0.802640D+00
     28  0.391117D-01 -0.574066D+01  0.164652D+00 -0.394538D+00  0.141472D+00
     29 -0.114828D-01  0.178666D+00 -0.517931D+01 -0.169053D+01 -0.174719D-01
     30  0.108998D-01 -0.438921D+00 -0.163003D+01 -0.149507D+01 -0.720231D-02
     31  0.153756D-02  0.832691D-01  0.115100D-01  0.296295D-01  0.483516D-02
     32  0.184972D-02  0.297227D-01  0.796373D-01  0.498877D-01 -0.773919D-02
     33  0.360851D-03  0.172624D-01 -0.201526D-01 -0.127192D-02  0.817521D-02
     34  0.301623D-02  0.590269D-01 -0.216947D-01  0.414369D-02  0.505812D-02
     35 -0.474073D-02 -0.270558D-01  0.717317D-01  0.203319D-03 -0.257069D-02
     36  0.149957D-03 -0.551812D-02  0.639738D-01  0.149496D-01  0.147587D-01
     37 -0.461653D-03  0.107666D+00  0.165584D-02 -0.111442D-01  0.816733D-01
     38 -0.781060D-02 -0.368922D-01  0.901450D-01  0.272699D-01  0.268587D-01
     39  0.253581D-01  0.757204D-01  0.109206D-01  0.444496D-01 -0.932590D-01
     40 -0.596060D-01 -0.427434D+01  0.130351D+01  0.182840D+01  0.112006D+00
     41  0.358512D-01  0.143131D+01 -0.445318D+01  0.184397D+01 -0.730853D-01
     42 -0.281223D+01  0.186598D+01  0.168303D+01 -0.334328D+01 -0.760555D-01
     43  0.488913D-01  0.543267D-01 -0.111905D-01 -0.774611D-01 -0.128283D-01
     44 -0.370175D-01 -0.167524D-01  0.576404D-01 -0.590437D-01 -0.172807D-01
     45  0.114469D-01 -0.619554D-01  0.477844D-02  0.149465D-01 -0.171851D-01
     46 -0.534509D-02  0.424441D-01 -0.526742D-01 -0.253074D-01  0.267731D-01
     47  0.134167D-01 -0.707745D-01  0.519183D-01 -0.433093D-01  0.421901D-01
     48  0.234421D-01 -0.547795D-01 -0.851546D-01  0.765270D-01  0.272312D-02
               26            27            28            29            30
     26  0.458936D+01
     27  0.964750D-01  0.469629D+01
     28 -0.160723D-01  0.142096D-01  0.147825D+02
     29  0.335387D-01  0.441987D-01  0.208620D+00  0.142329D+02
     30  0.337170D-01 -0.335655D-01 -0.149011D+00  0.139368D+01  0.120555D+02
     31  0.977615D-03  0.173958D-01 -0.345317D+01  0.772508D+00  0.919747D+00
     32  0.144625D-01  0.500882D-02  0.682293D+00 -0.339632D+01  0.923552D+00
     33 -0.209835D-02 -0.395098D-01  0.975915D+00  0.110946D+01 -0.284296D+01
     34 -0.133098D-01  0.141222D-01 -0.378334D+01 -0.801565D+00  0.489975D-01
     35 -0.728058D-02  0.232751D-01 -0.791567D+00 -0.165233D+01 -0.151284D+00
     36  0.266810D-01 -0.143067D-01  0.956494D-01 -0.296604D+00 -0.404840D+01
     37  0.203938D-01 -0.796794D-01 -0.159282D+01 -0.749911D-01 -0.703041D+00
     38 -0.266245D-01 -0.170551D-01  0.842176D-01 -0.430147D+01  0.652667D-03
     39 -0.145621D-01  0.313465D-01 -0.970087D+00  0.493718D-01 -0.406934D+01
     40 -0.503476D-01 -0.845315D-01 -0.144657D-01  0.180970D-01  0.555009D-01
     41  0.365771D-01 -0.566577D-01 -0.198658D-01 -0.128957D-01 -0.498063D-01
     42 -0.351363D-01  0.315777D-01  0.856012D-01  0.996309D-01  0.254303D+00
     43 -0.113344D-01 -0.312647D-01 -0.420934D-01 -0.281989D-02  0.350119D-02
     44  0.889175D-02 -0.187549D-01  0.109738D-02 -0.441383D-01  0.144483D-01
     45 -0.122395D-01 -0.229411D-01  0.153372D-01  0.116321D-01  0.161684D+00
     46  0.212910D-01  0.223510D-02 -0.239083D-01  0.557019D-02  0.865529D-02
     47  0.900001D-02  0.112907D-02  0.727411D-02 -0.603625D-03  0.233462D-01
     48  0.233230D-02 -0.991538D-02 -0.738442D-02 -0.265870D-02  0.623830D-02
               31            32            33            34            35
     31  0.339713D+01
     32 -0.666540D+00  0.335976D+01
     33 -0.112112D+01 -0.975801D+00  0.249525D+01
     34  0.676855D-01 -0.322674D-01 -0.284137D-02  0.374360D+01
     35 -0.328915D-02 -0.413357D-01 -0.437444D-01  0.854927D+00  0.138285D+01
     36  0.777384D-02 -0.526280D-01  0.514050D-01 -0.181562D+00  0.405238D+00
     37 -0.633314D-01 -0.315418D-01 -0.362377D-01 -0.305694D-01  0.772510D-01
     38 -0.746627D-01  0.615146D-01 -0.123485D-01  0.107628D+00  0.300828D-01
     39 -0.474351D-01 -0.505347D-02  0.794978D-01  0.260404D-01 -0.243515D-01
     40 -0.184000D-01  0.203146D-01  0.734164D-01 -0.128097D-01 -0.306157D-02
     41  0.214425D-01 -0.335668D-01  0.608768D-01 -0.816981D-02  0.526128D-02
     42  0.787390D-01  0.604481D-01  0.145851D+00  0.861370D-02 -0.151585D-01
     43 -0.135687D-02 -0.679329D-03 -0.430139D-02 -0.332133D-02  0.148988D-02
     44  0.785164D-05  0.393559D-04 -0.225406D-02 -0.119203D-02 -0.568948D-03
     45  0.403634D-02  0.543544D-02  0.180079D-02  0.652341D-02 -0.151610D-01
     46  0.215442D-02  0.581963D-02  0.834037D-02  0.323380D-02 -0.781446D-02
     47  0.899789D-02  0.701920D-02  0.139466D-01  0.117027D-01 -0.254279D-01
     48  0.352234D-02  0.393827D-02  0.352241D-02  0.223104D-01 -0.347192D-02
               36            37            38            39            40
     36  0.389881D+01
     37  0.769041D-02  0.162279D+01
     38 -0.160028D-01 -0.284037D-01  0.417068D+01
     39  0.819496D-01  0.893204D+00  0.147388D+00  0.371616D+01
     40 -0.802395D-02 -0.167197D-01 -0.160932D-02  0.109817D-01  0.136777D+02
     41 -0.365217D-03  0.665175D-02 -0.225637D-01  0.167075D-03 -0.818494D+00
     42 -0.871168D-02 -0.190117D-01  0.147025D-01  0.154064D-01 -0.735737D+00
     43  0.434101D-03  0.130933D-02  0.398114D-04 -0.403644D-02 -0.407427D+01
     44 -0.275424D-02  0.381165D-03 -0.271285D-02  0.208430D-03 -0.155607D-01
     45  0.123987D-01 -0.134099D-01  0.577997D-03  0.138956D-01 -0.843481D+00
     46  0.264466D-01 -0.764676D-02  0.167190D-02  0.303457D-02 -0.379797D+01
     47  0.132768D-01 -0.124768D-01  0.437384D-03  0.123610D-01  0.988077D+00
     48  0.199964D-01 -0.354895D-02  0.212324D-02  0.118239D-02 -0.222630D+00
               41            42            43            44            45
     41  0.108215D+02
     42 -0.121975D+01  0.118829D+02
     43  0.548384D-01 -0.803947D+00  0.416091D+01
     44 -0.438410D+01 -0.182716D-01  0.605061D-01  0.419877D+01
     45 -0.281455D+00 -0.164408D+01  0.878104D+00 -0.135816D+00  0.140186D+01
     46  0.932712D+00 -0.277240D+00  0.506811D-01 -0.538733D-01  0.668093D-01
     47 -0.190229D+01 -0.671906D+00 -0.498466D-01  0.260950D-01  0.965410D-01
     48 -0.527296D+00 -0.411013D+01  0.670947D-01  0.104029D+00 -0.281706D-01
               46            47            48
     46  0.378556D+01
     47 -0.982538D+00  0.147077D+01
     48  0.187773D+00  0.524655D+00  0.412892D+01
 ReadGW:  IGet=0 IStart=         114 Next=        7241 LGW=        7127.
 ICntrl=12127.
 Symmetry not used in FoFDir.
 MinBra= 0 MaxBra= 2 Meth= 1.
 IRaf=       0 NMat=   1 IRICut=       1 DoRegI=T DoRafI=F ISym2E= 0 JSym2E=0.
 PrsmSu:  NPrtUS=   8 ThrOK=T
 PRISM was handed    16287333 working-precision words and  2455 shell-pairs
 PRISM was handed    16287333 working-precision words and  2455 shell-pairs
 PRISM was handed    16287333 working-precision words and  2455 shell-pairs
 PRISM was handed    16287333 working-precision words and  2455 shell-pairs
 PRISM was handed    16287333 working-precision words and  2455 shell-pairs
 PRISM was handed    16287333 working-precision words and  2455 shell-pairs
 PRISM was handed    16287333 working-precision words and  2455 shell-pairs
 PRISM was handed    16287333 working-precision words and  2455 shell-pairs
 Pruned (  75, 302) grid will be used in CalDFT.
 CkSvGd:  ISavGI=        -1 IRadAn=       4 IRASav=       4 ISavGd=        -1.
 CalDSu:  NPrtUS=   8 ThrOK=T
 IPart= 0 IRanGd=          0 ScrnBf=T ScrnGd=T RCrit=4.00D+00 DoMicB=T.
 IPart= 3 IRanGd=          0 ScrnBf=T ScrnGd=T RCrit=4.00D+00 DoMicB=T.
 IPart= 1 IRanGd=          0 ScrnBf=T ScrnGd=T RCrit=4.00D+00 DoMicB=T.
 CutRad = 1000.00    CtRdIn =    0.00    XCrit =  15.00   ICut = 0
 CutRad = 1000.00    CtRdIn =    0.00    XCrit =  15.00   ICut = 0
 IPart= 7 IRanGd=          0 ScrnBf=T ScrnGd=T RCrit=4.00D+00 DoMicB=T.
 IPart= 2 IRanGd=          0 ScrnBf=T ScrnGd=T RCrit=4.00D+00 DoMicB=T.
 IPart= 6 IRanGd=          0 ScrnBf=T ScrnGd=T RCrit=4.00D+00 DoMicB=T.
 CutRad = 1000.00    CtRdIn =    0.00    XCrit =  15.00   ICut = 0
 CutRad = 1000.00    CtRdIn =    0.00    XCrit =  15.00   ICut = 0
 IPart= 4 IRanGd=          0 ScrnBf=T ScrnGd=T RCrit=4.00D+00 DoMicB=T.
 CutRad = 1000.00    CtRdIn =    0.00    XCrit =  15.00   ICut = 0
 IPart= 5 IRanGd=          0 ScrnBf=T ScrnGd=T RCrit=4.00D+00 DoMicB=T.
 CutRad = 1000.00    CtRdIn =    0.00    XCrit =  15.00   ICut = 0
 CutRad = 1000.00    CtRdIn =    0.00    XCrit =  15.00   ICut = 0
 CutRad = 1000.00    CtRdIn =    0.00    XCrit =  15.00   ICut = 0
 IPart= 7        15168 of        17252 points in      36 batches and       99 microbatches, Max-NSigAt=      16 Max-NSgAt2=      16
 IPart= 0        14718 of        16826 points in      36 batches and      112 microbatches, Max-NSigAt=      16 Max-NSgAt2=      16
 IPart= 5        15881 of        18796 points in      40 batches and       98 microbatches, Max-NSigAt=      16 Max-NSgAt2=      16
 IPart= 3        14801 of        16830 points in      35 batches and      105 microbatches, Max-NSigAt=      16 Max-NSgAt2=      16
 IPart= 2        11690 of        13048 points in      25 batches and       66 microbatches, Max-NSigAt=      16 Max-NSgAt2=      16
 IPart= 6        13143 of        14994 points in      30 batches and       90 microbatches, Max-NSigAt=      16 Max-NSgAt2=      16
 IPart= 4        12191 of        13790 points in      28 batches and       87 microbatches, Max-NSigAt=      16 Max-NSgAt2=      16
 IPart= 1        14420 of        16400 points in      33 batches and      114 microbatches, Max-NSigAt=      16 Max-NSgAt2=      16
 Polarizability after L703:
                1             2             3
      1  0.518011D+02
      2 -0.401316D+01  0.767539D+02
      3  0.237885D+01 -0.274146D+01  0.576153D+02
 Dipole Derivatives after L703:
               1            2            3            4            5
      1-0.167384D+00 0.111759D-01 0.714366D-01 0.189667D+00-0.758075D-01
      2 0.159027D+00-0.368192D+00 0.168748D+00-0.186321D-01 0.256010D+00
      3 0.279232D-01 0.192152D+00-0.361172D+00-0.373187D-01-0.625012D-01
               6            7            8            9           10
      1-0.158598D-01-0.334219D+00-0.904017D-01 0.125403D+00 0.645489D+00
      2-0.121835D+00-0.338758D+00-0.300420D+00 0.165844D+00 0.581503D+00
      3 0.329205D+00 0.693174D-01 0.287098D-01-0.404511D+00-0.681924D-01
              11           12           13           14           15
      1 0.101665D+00-0.118189D+00 0.298032D-01-0.138402D-01-0.399478D-02
      2 0.674706D+00-0.232916D+00-0.930482D-01 0.917896D-03-0.280941D-01
      3-0.123319D+00 0.631376D+00-0.735731D-02-0.848207D-01-0.882746D-01
              16           17           18           19           20
      1-0.711212D+00 0.481511D-01-0.962595D-01 0.107703D+00 0.125865D+00
      2-0.168216D+00-0.176453D+00 0.221352D+00 0.244831D+00-0.454072D+00
      3 0.121959D-01 0.189658D+00-0.323953D+00 0.104764D+00-0.214180D+00
              21           22           23           24           25
      1 0.520426D-01 0.948466D-01 0.681590D-01 0.473512D-01-0.100542D+00
      2-0.186883D+00 0.148648D-01-0.690660D-01 0.742743D-02-0.162988D-01
      3 0.890930D-01 0.129648D-01 0.458966D-01 0.131753D+00 0.229330D-01
              26           27           28           29           30
      1-0.429250D-01 0.185040D-01 0.769976D-01-0.204111D-01 0.216850D-01
      2 0.987559D-01 0.367851D-01 0.183624D-01 0.846840D-01 0.187875D-02
      3 0.197174D-02 0.813209D-02-0.196624D-01 0.319992D-01 0.320852D-01
              31           32           33           34           35
      1 0.216453D-01-0.705838D-01-0.670334D-01 0.562622D-01 0.684340D-01
      2-0.588750D-01 0.345917D-02-0.298006D-01 0.577457D-01-0.133474D+00
      3-0.719027D-01-0.868099D-01-0.575409D-01-0.702804D-04 0.502826D-01
              36           37           38           39           40
      1 0.616560D-02-0.108301D+00 0.185302D-01 0.644958D-02 0.862891D-01
      2-0.152094D-03-0.161962D-01 0.563237D-01 0.823094D-02-0.469587D+00
      3 0.247623D-01 0.710537D-01-0.591581D-02 0.420079D-01-0.218885D+00
              41           42           43           44           45
      1-0.395759D-01-0.698276D-01 0.468164D-01-0.217845D-01 0.210492D-02
      2 0.418567D+00-0.762090D-01 0.696298D-01 0.329195D-02 0.240314D-01
      3 0.735343D-01-0.271723D-01 0.764070D-01-0.368228D-01-0.648075D-01
              46           47           48
      1 0.661384D-01-0.666498D-01 0.200221D-01
      2 0.336484D-01-0.950387D-01 0.415921D-01
      3 0.258300D-01 0.165466D-03 0.390163D-01
 Hessian after L703:
                1             2             3             4             5
      1  0.444703D+00
      2  0.579444D-01  0.300607D+00
      3  0.161814D+00  0.119214D-01  0.111569D+00
      4 -0.358673D+00 -0.976134D-01 -0.149577D+00  0.373230D+00
      5 -0.144793D+00 -0.875844D-01 -0.630488D-01  0.928214D-01  0.994965D-01
      6 -0.149783D+00 -0.446500D-01 -0.727578D-01  0.155509D+00  0.431235D-01
      7 -0.903314D-01  0.283927D-01  0.450589D-02 -0.165632D-01  0.468424D-01
      8  0.105567D+00 -0.171763D+00  0.103656D-01  0.380131D-02 -0.138530D-01
      9 -0.157770D-01  0.160889D-01 -0.380690D-01 -0.349607D-02  0.216739D-01
     10 -0.269346D-02  0.118282D-01 -0.187998D-01  0.497112D-02  0.941704D-02
     11 -0.800662D-02 -0.494724D-01  0.361081D-01  0.172416D-03  0.123686D-02
     12  0.132397D-02  0.137634D-01 -0.380263D-02 -0.186007D-02  0.189153D-02
     13  0.464310D-03 -0.960137D-04 -0.288969D-02 -0.367049D-03 -0.442056D-03
     14 -0.171586D-02  0.440811D-02  0.189637D-03  0.209213D-03 -0.341310D-03
     15 -0.122089D-02 -0.238713D-02  0.426100D-02  0.361705D-03  0.198590D-03
     16  0.408701D-02  0.391647D-02  0.579152D-03 -0.181005D-02 -0.278987D-02
     17 -0.626820D-02  0.318007D-02 -0.503101D-03  0.329168D-03  0.175418D-02
     18  0.284359D-02 -0.149541D-02  0.304144D-02 -0.157654D-02 -0.431157D-02
     19  0.182140D-03  0.395119D-03 -0.253207D-03 -0.167321D-03 -0.455781D-03
     20 -0.127819D-02 -0.250145D-03  0.488145D-03  0.740088D-03  0.374568D-03
     21  0.312964D-04  0.484780D-03 -0.596754D-03  0.719046D-04  0.370509D-03
     22  0.140044D-02 -0.644339D-02  0.476645D-02 -0.139668D-02 -0.860546D-03
     23 -0.210223D-02  0.308038D-02  0.213767D-02  0.161157D-03 -0.879864D-04
     24 -0.428116D-04  0.703233D-02 -0.335109D-02  0.828303D-03  0.499356D-03
     25  0.986346D-03  0.104749D-03 -0.280657D-04 -0.681538D-04 -0.434174D-03
     26 -0.921855D-03  0.106953D-02 -0.385248D-03  0.220925D-03  0.326197D-03
     27  0.471708D-03 -0.614117D-03 -0.122222D-03 -0.229903D-03 -0.229540D-03
     28  0.530731D-03  0.895722D-03 -0.578486D-03  0.107174D-03 -0.195207D-03
     29  0.271684D-03 -0.260736D-02  0.169421D-02 -0.373365D-03 -0.208215D-03
     30  0.563159D-03 -0.188812D-02  0.918313D-03 -0.145950D-03 -0.846125D-04
     31 -0.556381D-04  0.757537D-04 -0.267982D-04 -0.145941D-04 -0.939556D-05
     32 -0.249181D-04  0.153889D-03 -0.146768D-03  0.204752D-04 -0.480940D-05
     33  0.484230D-04  0.108636D-03  0.252895D-04 -0.288561D-04 -0.902755D-04
     34  0.563687D-04 -0.245861D-03  0.858362D-04 -0.186585D-04 -0.112855D-04
     35  0.822997D-04 -0.289568D-03  0.306165D-03 -0.703327D-04 -0.132152D-04
     36 -0.141497D-03  0.114070D-02 -0.674701D-03  0.165335D-03  0.527982D-04
     37  0.768888D-04 -0.837456D-04  0.966769D-04 -0.683086D-05 -0.977838D-05
     38  0.166261D-03 -0.105592D-03 -0.589202D-04 -0.162796D-04 -0.782655D-04
     39 -0.289448D-03  0.227341D-03  0.292038D-05  0.818845D-04  0.179655D-03
     40 -0.111169D-02  0.113881D-02  0.141204D-03  0.107688D-02  0.126504D-02
     41  0.106780D-02 -0.573606D-04  0.446095D-03 -0.533290D-03 -0.102083D-02
     42  0.492335D-04  0.493898D-03 -0.127890D-02 -0.135620D-03  0.115374D-04
     43 -0.196799D-04  0.171442D-03  0.338801D-04 -0.846628D-04 -0.684582D-04
     44 -0.175586D-03 -0.204699D-03  0.191288D-03  0.157567D-03  0.000000D+00
     45 -0.324006D-04  0.000000D+00  0.418072D-03  0.899387D-05 -0.112067D-03
     46  0.397482D-03 -0.380863D-03  0.130746D-03 -0.214854D-03 -0.276109D-03
     47  0.186725D-03 -0.164000D-03  0.294444D-03 -0.269717D-04  0.309680D-05
     48  0.142121D-03 -0.227376D-03  0.416739D-03  0.230393D-04 -0.124488D-03
                6             7             8             9            10
      6  0.752691D-01
      7 -0.145310D-02  0.251785D+00
      8  0.256064D-02 -0.673892D-01  0.293347D+00
      9 -0.402360D-03 -0.839976D-01 -0.782106D-01  0.216511D+00
     10 -0.541577D-02 -0.895206D-01 -0.128356D-01  0.590694D-01  0.394535D+00
     11  0.228401D-02  0.161632D-01 -0.732992D-01 -0.432665D-03 -0.305615D-01
     12 -0.150651D-02  0.470408D-01  0.320840D-01 -0.153035D+00  0.117789D-01
     13  0.448207D-04 -0.255218D-02  0.579015D-02  0.261298D-01 -0.446162D-01
     14 -0.271992D-03 -0.427362D-02  0.451149D-02  0.201903D-01  0.369894D-02
     15 -0.456061D-03  0.146191D-01 -0.513032D-02 -0.350137D-01 -0.640352D-02
     16  0.788568D-03 -0.596886D-01 -0.260243D-01  0.194510D-01 -0.165370D+00
     17 -0.176267D-02 -0.277504D-01 -0.730248D-02  0.788405D-02 -0.152176D-01
     18 -0.732175D-03  0.299303D-01  0.691729D-02  0.124272D-01 -0.364676D-01
     19  0.816223D-03  0.644122D-03 -0.818874D-03 -0.184905D-03 -0.809823D-02
     20 -0.203775D-02 -0.106728D-02  0.116262D-02  0.337653D-02 -0.358240D-02
     21  0.264620D-03  0.246116D-03  0.134361D-02  0.674216D-03 -0.491758D-02
     22  0.452656D-03  0.999345D-02 -0.753312D-02 -0.305560D-02 -0.846990D-01
     23  0.000000D+00  0.258771D-02 -0.292365D-01  0.117996D-01  0.463021D-01
     24 -0.370360D-04 -0.956189D-02  0.263962D-01 -0.511942D-02  0.123051D-01
     25  0.174357D-03  0.201988D-03 -0.108862D-02  0.362372D-03 -0.116636D-01
     26 -0.126854D-04  0.414844D-03  0.784518D-04  0.322602D-03  0.248943D-01
     27  0.188991D-03 -0.146613D-03  0.132145D-02 -0.294926D-03 -0.322906D-02
     28  0.926902D-04 -0.137032D-02  0.123740D-02  0.163940D-05  0.230485D-02
     29 -0.381117D-04  0.346657D-02 -0.358775D-02 -0.218812D-03 -0.512853D-02
     30 -0.958720D-04  0.197228D-03 -0.259841D-03 -0.266919D-03 -0.514828D-02
     31 -0.142717D-04 -0.735260D-04  0.188107D-03  0.338087D-03  0.964927D-04
     32  0.324724D-04 -0.656984D-04  0.782182D-04 -0.317685D-04  0.242294D-03
     33  0.271570D-04  0.192809D-03  0.137835D-03  0.375439D-03 -0.490995D-03
     34  0.724525D-05  0.706151D-04 -0.408328D-04 -0.678147D-04  0.133269D-03
     35 -0.626204D-04  0.428476D-03 -0.454660D-03  0.182871D-03 -0.216444D-02
     36  0.294773D-04 -0.119105D-02  0.937604D-03  0.505115D-03  0.296808D-02
     37 -0.620693D-05  0.141027D-03 -0.165537D-03 -0.243344D-03 -0.608275D-03
     38  0.640386D-04  0.121812D-03  0.214232D-03 -0.357475D-03 -0.168115D-02
     39 -0.635445D-04 -0.226716D-03 -0.381122D-03  0.303258D-03  0.193976D-02
     40 -0.182406D-02 -0.415254D-02 -0.297818D-03  0.309939D-02  0.108408D-01
     41  0.112572D-02  0.257072D-02  0.402224D-04 -0.342818D-02 -0.229567D-01
     42  0.330876D-03 -0.756601D-03  0.107067D-02  0.123959D-02 -0.224404D-02
     43  0.243711D-03  0.403419D-03 -0.376086D-03 -0.995637D-03 -0.224061D-02
     44 -0.241733D-03 -0.458838D-03  0.116878D-04  0.146521D-02  0.756952D-03
     45  0.524482D-05  0.307007D-03  0.413145D-03  0.946894D-04 -0.140376D-02
     46  0.366982D-03  0.101320D-02 -0.144765D-04 -0.633684D-03 -0.337206D-02
     47 -0.113755D-03  0.166407D-04  0.530963D-04 -0.304442D-03 -0.301193D-02
     48 -0.641302D-04  0.294350D-03  0.433786D-03  0.707702D-04 -0.354073D-02
               11            12            13            14            15
     11  0.535028D+00
     12  0.103523D+00  0.546777D+00
     13  0.116173D-02 -0.554558D-02  0.595985D-01
     14 -0.136762D+00 -0.121395D+00  0.960004D-02  0.143961D+00
     15 -0.116368D+00 -0.205209D+00  0.265990D-02  0.126851D+00  0.234783D+00
     16  0.142751D-01 -0.326870D-01 -0.136563D-01 -0.642742D-02 -0.965783D-02
     17 -0.757797D-01 -0.107953D-01 -0.199595D-01 -0.398114D-02 -0.104941D-01
     18  0.282635D-02 -0.802044D-01 -0.254268D-01 -0.694348D-02 -0.644043D-02
     19 -0.165030D-01 -0.101839D-01 -0.610138D-03 -0.141431D-02 -0.156672D-02
     20 -0.139539D-01 -0.181721D-01 -0.386912D-02  0.249704D-02  0.254458D-02
     21 -0.115847D-01 -0.661720D-02 -0.339481D-02 -0.675073D-03  0.861520D-03
     22  0.240015D-01  0.250592D-02  0.328289D-02 -0.874961D-03  0.162465D-03
     23 -0.139777D+00  0.768226D-02  0.514072D-02 -0.105220D-01  0.179839D-02
     24 -0.532751D-02 -0.758643D-01  0.883821D-02 -0.166069D-01  0.440756D-02
     25 -0.168867D-02  0.281585D-02 -0.247551D-03  0.565706D-03 -0.207270D-03
     26  0.517237D-02 -0.925277D-02  0.315899D-04 -0.107526D-02  0.156252D-03
     27 -0.100629D-02 -0.779340D-03  0.137254D-04 -0.866992D-04 -0.645480D-04
     28  0.313436D-02 -0.122433D-01  0.713577D-03 -0.478061D-03 -0.174865D-03
     29 -0.149803D-01  0.316884D-01 -0.574128D-03  0.135756D-02  0.528418D-03
     30  0.962451D-02 -0.458126D-02  0.686176D-03 -0.172764D-02  0.662795D-03
     31 -0.909350D-03 -0.695702D-03 -0.560021D-04  0.502907D-03  0.486547D-04
     32  0.115623D-02  0.351689D-03 -0.341398D-04 -0.824804D-05 -0.172946D-04
     33 -0.204024D-02  0.577119D-04 -0.168621D-03  0.747912D-03  0.429728D-03
     34 -0.369522D-03  0.116585D-02 -0.163294D-03 -0.131982D-04  0.173499D-04
     35  0.106815D-02  0.160337D-02 -0.578749D-04  0.358839D-03  0.826098D-04
     36 -0.416088D-04 -0.592726D-02  0.522107D-04  0.200370D-03  0.176780D-03
     37  0.100084D-02  0.121382D-03 -0.254755D-04 -0.339794D-03  0.427885D-04
     38  0.288964D-03  0.464139D-03 -0.782115D-04 -0.225174D-03 -0.175194D-03
     39 -0.490105D-03  0.716995D-03 -0.254759D-03  0.213496D-03  0.101859D-03
     40 -0.310916D-02 -0.442354D-02 -0.342640D-02  0.190134D-02  0.141783D-02
     41 -0.382128D-01 -0.281424D-01  0.394346D-02 -0.365496D-02  0.183422D-02
     42 -0.153787D-01 -0.429377D-02 -0.156411D-02  0.464412D-03  0.892326D-03
     43  0.122835D-02  0.857019D-03  0.973067D-03 -0.606690D-03  0.644038D-04
     44 -0.853172D-03 -0.276770D-02 -0.800660D-03 -0.782453D-04  0.162836D-03
     45  0.518402D-03 -0.157849D-02  0.407163D-03 -0.331991D-03  0.251758D-03
     46  0.103635D-04  0.294499D-04  0.688302D-03 -0.334218D-03 -0.163053D-03
     47 -0.860757D-03 -0.252674D-02  0.243998D-03 -0.446092D-03  0.415403D-03
     48 -0.221425D-02 -0.415202D-02  0.412320D-03 -0.818533D-03  0.355104D-03
               16            17            18            19            20
     16  0.317462D+00
     17 -0.887081D-02  0.103319D+00
     18  0.323186D-01 -0.338582D-02  0.729437D-01
     19 -0.278554D-01 -0.342334D-01 -0.191284D-01  0.758859D-01
     20 -0.895516D-03  0.599369D-01  0.406805D-01  0.606998D-01 -0.850340D-01
     21 -0.190544D-02  0.225323D-01 -0.521403D-02  0.389482D-01 -0.374690D-01
     22 -0.450296D-01  0.246069D-01 -0.182814D-01 -0.233438D-01  0.147206D-01
     23  0.507161D-02 -0.528730D-02 -0.406550D-02 -0.658579D-03 -0.243330D-02
     24 -0.113263D-01 -0.186110D-02 -0.639368D-03 -0.110607D-01  0.312570D-02
     25 -0.142083D-02  0.202673D-02 -0.105464D-02 -0.119826D-02 -0.534780D-03
     26  0.608377D-02 -0.496659D-02  0.299215D-02 -0.100580D-02  0.236938D-02
     27 -0.218977D-02 -0.328171D-04 -0.816579D-03 -0.320994D-02  0.441237D-02
     28 -0.122316D-02  0.180664D-03  0.750397D-03 -0.131512D-03  0.714414D-03
     29 -0.202164D-03 -0.540450D-03 -0.479292D-03 -0.579465D-03  0.196581D-02
     30  0.179607D-02  0.315632D-03  0.639932D-04 -0.111470D-04 -0.281495D-03
     31  0.540831D-04  0.358061D-03 -0.283945D-03  0.182163D-04 -0.165233D-04
     32  0.357664D-03  0.313920D-04  0.159203D-03  0.613179D-04 -0.114800D-03
     33  0.212677D-03  0.957871D-04  0.189176D-03 -0.177661D-03  0.782333D-03
     34  0.525598D-03  0.252313D-03 -0.209697D-03  0.534449D-05 -0.161216D-03
     35  0.555728D-03  0.171669D-04  0.161222D-03 -0.121467D-03  0.148460D-03
     36 -0.463412D-03  0.215560D-03  0.325863D-03  0.286741D-03 -0.583644D-03
     37  0.821474D-03  0.356684D-03 -0.376548D-03  0.235996D-03 -0.414519D-03
     38  0.462053D-03  0.400531D-03 -0.327768D-03  0.318660D-03 -0.676173D-03
     39 -0.106758D-02 -0.560610D-03  0.665234D-03  0.531931D-04  0.975872D-04
     40 -0.668525D-02  0.921043D-01  0.416598D-01 -0.832590D-02 -0.904368D-01
     41  0.128034D-01 -0.759736D-01 -0.352064D-01 -0.949228D-02  0.501799D-01
     42  0.391823D-02 -0.118310D-02  0.300628D-02  0.522748D-02  0.823820D-04
     43  0.553656D-04 -0.371371D-02 -0.234556D-02 -0.784769D-02  0.791355D-02
     44  0.402548D-03  0.380342D-02  0.239779D-02  0.623007D-02 -0.606955D-02
     45  0.794743D-05 -0.205103D-02  0.390381D-03 -0.225272D-03  0.329767D-02
     46 -0.266141D-03 -0.420120D-02 -0.235157D-02  0.606550D-03  0.174678D-01
     47  0.128178D-02  0.138845D-02  0.807430D-04 -0.242199D-02 -0.101028D-01
     48  0.225137D-03  0.158625D-02  0.993756D-03  0.670049D-03 -0.343803D-03
               21            22            23            24            25
     21  0.357750D-01
     22 -0.651033D-02  0.591872D+00
     23 -0.328299D-03  0.606182D-02  0.425154D+00
     24 -0.207358D-02 -0.251641D-01 -0.280072D-01  0.468053D+00
     25 -0.480384D-03 -0.284659D+00 -0.225822D-02  0.581080D-01  0.310285D+00
     26 -0.100968D-03 -0.835232D-02 -0.513957D-01  0.687408D-03  0.503728D-02
     27  0.776709D-03  0.573296D-01 -0.174312D-03 -0.610154D-01 -0.618654D-01
     28 -0.410537D-03 -0.835035D-01 -0.491690D-02  0.153445D-01 -0.132477D-02
     29  0.861230D-03 -0.533974D-02 -0.899730D-01  0.369682D-01 -0.231015D-03
     30 -0.479133D-04  0.150886D-01  0.346800D-01 -0.165908D+00  0.116296D-02
     31  0.345446D-03  0.207554D-02  0.340691D-02  0.357592D-02  0.489790D-03
     32 -0.594498D-04  0.751379D-02  0.624680D-02  0.885477D-02  0.124074D-03
     33  0.248380D-03 -0.165704D-01 -0.164914D-01 -0.195520D-01  0.459049D-03
     34  0.590172D-04  0.110314D-02 -0.554249D-02  0.227562D-04  0.266957D-03
[...]
    Z6       -1.81036   0.00261   0.00000   0.01434   0.01525  -1.79511
    X7        2.77100   0.00112   0.00000   0.00851   0.00627   2.77727
    Y7        6.19497  -0.00581   0.00000  -0.02607  -0.02197   6.17300
    Z7       -0.85410  -0.00261   0.00000  -0.01542  -0.01374  -0.86784
    X8       -0.67406   0.00049   0.00000   0.00824   0.00781  -0.66625
    Y8        6.30608   0.00001   0.00000  -0.00051   0.00053   6.30661
    Z8       -2.72918   0.00041   0.00000   0.00144  -0.00045  -2.72964
    X9       -2.68630   0.00171   0.00000   0.01555   0.01466  -2.67164
    Y9        6.25668  -0.00024   0.00000  -0.00913  -0.01068   6.24601
    Z9       -2.23763  -0.00024   0.00000   0.00986   0.00581  -2.23182
   X10       -0.33587  -0.00009   0.00000  -0.00886  -0.00768  -0.34355
   Y10        7.34891   0.00031   0.00000   0.00081   0.00357   7.35248
   Z10       -5.40786  -0.00111   0.00000   0.00212   0.00109  -5.40677
   X11       -1.39960   0.00082   0.00000  -0.00927  -0.00533  -1.40493
   Y11        6.22683   0.00094   0.00000   0.00138   0.00359   6.23043
   Z11       -6.78447   0.00114   0.00000   0.00973   0.00702  -6.77746
   X12       -1.00973   0.00048   0.00000  -0.01388  -0.01485  -1.02458
   Y12        9.30321  -0.00156   0.00000  -0.00577  -0.00375   9.29946
   Z12       -5.52181   0.00003   0.00000   0.00658   0.00581  -5.51600
   X13        1.66024  -0.00155   0.00000  -0.01533  -0.01353   1.64671
   Y13        7.31973  -0.00003   0.00000   0.00732   0.01267   7.33240
   Z13       -5.95894   0.00057   0.00000  -0.00390  -0.00284  -5.96178
   X14        0.86421  -0.00217   0.00000  -0.00188  -0.00612   0.85809
   Y14        7.79459   0.00227   0.00000   0.00750   0.00932   7.80391
   Z14       -0.76592   0.00093   0.00000  -0.00507  -0.00460  -0.77052
   X15        0.20551   0.00078   0.00000   0.01216   0.00598   0.21149
   Y15        7.69913  -0.00015   0.00000   0.00569   0.00578   7.70491
   Z15        1.18416  -0.00157   0.00000  -0.00760  -0.00786   1.17631
   X16        1.58135  -0.00025   0.00000   0.01600   0.01020   1.59155
   Y16        9.64954  -0.00168   0.00000  -0.00941  -0.00646   9.64308
   Z16       -1.31038   0.00028   0.00000  -0.01115  -0.00898  -1.31936
         Item               Value     Threshold  Converged?
 Maximum Force            0.005815     0.000450     NO 
 RMS     Force            0.002148     0.000300     NO 
 Maximum Displacement     0.047841     0.001800     NO 
 RMS     Displacement     0.013543     0.001200     NO 
 Predicted change in Energy=-6.338249D-04
 GradGradGradGradGradGradGradGradGradGradGradGradGradGradGradGradGradGrad


 Test job not archived.
 1\1\GINC-NODE57\Freq\UB3LYP\CBSB7\C4H9O3(2)\NYEE\08-Jul-2014\0\\# freq
  nosymm b3lyp/cbsb7 iop(7/33=1)\\Title Card Required\\0,2\O,0.157196,-
 0.008561,-0.070794\H,1.026313,0.258291,0.290881\O,-0.449802,1.295631,-
 0.256183\C,0.264994,1.934302,-1.301083\H,0.244803,1.300131,-2.196239\O
 ,1.613217,2.138812,-0.958001\H,1.466351,3.278235,-0.451968\C,-0.356695
 ,3.337033,-1.44422\H,-1.421529,3.310895,-1.184103\C,-0.177734,3.888876
 ,-2.861716\H,-0.740636,3.295098,-3.590189\H,-0.534326,4.923048,-2.9220
 18\H,0.878559,3.873434,-3.153335\C,0.457321,4.124722,-0.405309\H,0.108
 752,4.074206,0.626633\H,0.836814,5.106316,-0.693424\\Version=AM64L-G03
 RevD.01\HF=-383.436023\S2=0.75766\S2-1=0.\S2A=0.750025\RMSD=2.721e-09\
 RMSF=2.148e-03\ZeroPoint=0.1263612\Thermal=0.1338829\Dipole=0.1011088,
 1.1080185,-0.2415112\DipoleDeriv=-0.167384,0.1590268,0.0279232,0.01117
 59,-0.368192,0.1921515,0.0714366,0.1687476,-0.3611716,0.1896667,-0.018
 6321,-0.0373187,-0.0758075,0.2560102,-0.0625012,-0.0158598,-0.1218354,
 0.3292047,-0.3342189,-0.3387583,0.0693174,-0.0904017,-0.3004195,0.0287
 098,0.1254028,0.1658443,-0.4045106,0.645489,0.5815033,-0.0681924,0.101
 6648,0.6747062,-0.123319,-0.1181892,-0.2329162,0.6313761,0.0298032,-0.
 0930482,-0.0073573,-0.0138402,0.0009179,-0.0848207,-0.0039948,-0.02809
 41,-0.0882746,-0.7112118,-0.1682158,0.0121959,0.0481511,-0.1764533,0.1
 896579,-0.0962595,0.2213522,-0.3239533,0.1077031,0.2448307,0.1047638,0
 .1258646,-0.4540724,-0.2141798,0.0520426,-0.1868825,0.089093,0.0948466
 ,0.0148648,0.0129648,0.068159,-0.069066,0.0458966,0.0473512,0.0074274,
 0.1317531,-0.1005423,-0.0162988,0.022933,-0.042925,0.0987559,0.0019717
 ,0.018504,0.0367851,0.0081321,0.0769976,0.0183624,-0.0196624,-0.020411
 1,0.084684,0.0319992,0.021685,0.0018787,0.0320852,0.0216453,-0.058875,
 -0.0719027,-0.0705838,0.0034592,-0.0868099,-0.0670334,-0.0298006,-0.05
 75409,0.0562622,0.0577457,-0.0000703,0.068434,-0.1334738,0.0502826,0.0
 061656,-0.0001521,0.0247623,-0.1083006,-0.0161962,0.0710537,0.0185302,
 0.0563237,-0.0059158,0.0064496,0.0082309,0.0420079,0.0862891,-0.469587
 5,-0.218885,-0.0395759,0.4185667,0.0735343,-0.0698276,-0.076209,-0.027
 1723,0.0468164,0.0696298,0.076407,-0.0217845,0.0032919,-0.0368228,0.00
 21049,0.0240314,-0.0648075,0.0661384,0.0336484,0.02583,-0.0666498,-0.0
 950387,0.0001655,0.0200221,0.0415921,0.0390163\Polar=51.8011412,-4.013
 1632,76.7539304,2.378854,-2.7414614,57.6152801\PG=C01 [X(C4H9O3)]\NIma
 g=1\\0.44470298,0.05794441,0.30060671,0.16181364,0.01192144,0.11156939
 ,-0.35867283,-0.09761344,-0.14957739,0.37322976,-0.14479314,-0.0875844
 4,-0.06304875,0.09282136,0.09949653,-0.14978309,-0.04465002,-0.0727578
 2,0.15550923,0.04312348,0.07526914,-0.09033139,0.02839266,0.00450589,-
 0.01656325,0.04684237,-0.00145310,0.25178461,0.10556742,-0.17176316,0.
 01036561,0.00380131,-0.01385300,0.00256064,-0.06738918,0.29334677,-0.0
 1577701,0.01608891,-0.03806904,-0.00349607,0.02167386,-0.00040236,-0.0
 8399756,-0.07821060,0.21651135,-0.00269346,0.01182820,-0.01879984,0.00
 497112,0.00941704,-0.00541577,-0.08952063,-0.01283556,0.05906938,0.394
 53530,-0.00800662,-0.04947237,0.03610809,0.00017242,0.00123686,0.00228
 401,0.01616319,-0.07329919,-0.00043267,-0.03056148,0.53502796,0.001323
 97,0.01376341,-0.00380263,-0.00186007,0.00189153,-0.00150651,0.0470407
 7,0.03208399,-0.15303524,0.01177892,0.10352294,0.54677661,0.00046431,-
 0.00009601,-0.00288969,-0.00036705,-0.00044206,0.00004482,-0.00255218,
 0.00579015,0.02612979,-0.04461622,0.00116173,-0.00554558,0.05959848,-0
 .00171586,0.00440811,0.00018964,0.00020921,-0.00034131,-0.00027199,-0.
 00427362,0.00451149,0.02019028,0.00369894,-0.13676171,-0.12139471,0.00
 960004,0.14396106,-0.00122089,-0.00238713,0.00426100,0.00036170,0.0001
 9859,-0.00045606,0.01461906,-0.00513032,-0.03501373,-0.00640352,-0.116
 36819,-0.20520890,0.00265990,0.12685088,0.23478324,0.00408701,0.003916
 47,0.00057915,-0.00181005,-0.00278987,0.00078857,-0.05968859,-0.026024
 27,0.01945097,-0.16536981,0.01427507,-0.03268698,-0.01365632,-0.006427
 42,-0.00965783,0.31746170,-0.00626820,0.00318007,-0.00050310,0.0003291
 7,0.00175418,-0.00176267,-0.02775037,-0.00730248,0.00788405,-0.0152176
 0,-0.07577974,-0.01079528,-0.01995948,-0.00398114,-0.01049405,-0.00887
 081,0.10331917,0.00284359,-0.00149541,0.00304144,-0.00157654,-0.004311
 57,-0.00073217,0.02993031,0.00691729,0.01242720,-0.03646763,0.00282635
 ,-0.08020443,-0.02542676,-0.00694348,-0.00644043,0.03231858,-0.0033858
 2,0.07294369,0.00018214,0.00039512,-0.00025321,-0.00016732,-0.00045578
 ,0.00081622,0.00064412,-0.00081887,-0.00018490,-0.00809823,-0.01650304
 ,-0.01018393,-0.00061014,-0.00141431,-0.00156672,-0.02785543,-0.034233
 37,-0.01912842,0.07588588,-0.00127819,-0.00025015,0.00048815,0.0007400
 9,0.00037457,-0.00203775,-0.00106728,0.00116262,0.00337653,-0.00358240
 ,-0.01395390,-0.01817208,-0.00386912,0.00249704,0.00254458,-0.00089552
 ,0.05993689,0.04068048,0.06069980,-0.08503402,0.00003130,0.00048478,-0
 .00059675,0.00007190,0.00037051,0.00026462,0.00024612,0.00134361,0.000
 67422,-0.00491758,-0.01158475,-0.00661720,-0.00339481,-0.00067507,0.00
 086152,-0.00190544,0.02253230,-0.00521403,0.03894820,-0.03746900,0.035
 77505,0.00140044,-0.00644339,0.00476645,-0.00139668,-0.00086055,0.0004
 5266,0.00999345,-0.00753312,-0.00305560,-0.08469896,0.02400152,0.00250
 592,0.00328289,-0.00087496,0.00016247,-0.04502965,0.02460686,-0.018281
 35,-0.02334377,0.01472061,-0.00651033,0.59187200,-0.00210223,0.0030803
 8,0.00213767,0.00016116,-0.00008799,0.00000098,0.00258771,-0.02923655,
 0.01179962,0.04630210,-0.13977657,0.00768226,0.00514072,-0.01052196,0.
 00179839,0.00507161,-0.00528730,-0.00406550,-0.00065858,-0.00243330,-0
 .00032830,0.00606182,0.42515426,-0.00004281,0.00703233,-0.00335109,0.0
 0082830,0.00049936,-0.00003704,-0.00956189,0.02639625,-0.00511942,0.01
 230506,-0.00532751,-0.07586428,0.00883821,-0.01660688,0.00440756,-0.01
 132632,-0.00186110,-0.00063937,-0.01106069,0.00312570,-0.00207358,-0.0
 2516411,-0.02800724,0.46805323,0.00098635,0.00010475,-0.00002807,-0.00
 006815,-0.00043417,0.00017436,0.00020199,-0.00108862,0.00036237,-0.011
 66360,-0.00168867,0.00281585,-0.00024755,0.00056571,-0.00020727,-0.001
 42083,0.00202673,-0.00105464,-0.00119826,-0.00053478,-0.00048038,-0.28
 465938,-0.00225822,0.05810796,0.31028504,-0.00092186,0.00106953,-0.000
 38525,0.00022093,0.00032620,-0.00001269,0.00041484,0.00007845,0.000322
 60,0.02489432,0.00517237,-0.00925277,0.00003159,-0.00107526,0.00015625
 ,0.00608377,-0.00496659,0.00299215,-0.00100580,0.00236938,-0.00010097,
 -0.00835232,-0.05139573,0.00068741,0.00503728,0.05125764,0.00047171,-0
 .00061412,-0.00012222,-0.00022990,-0.00022954,0.00018899,-0.00014661,0
 .00132145,-0.00029493,-0.00322906,-0.00100629,-0.00077934,0.00001373,-
 0.00008670,-0.00006455,-0.00218977,-0.00003282,-0.00081658,-0.00320994
 ,0.00441237,0.00077671,0.05732960,-0.00017431,-0.06101539,-0.06186538,
 -0.00280562,0.07055135,0.00053073,0.00089572,-0.00057849,0.00010717,-0
 .00019521,0.00009269,-0.00137032,0.00123740,0.00000164,0.00230485,0.00
 313436,-0.01224334,0.00071358,-0.00047806,-0.00017487,-0.00122316,0.00
 018066,0.00075040,-0.00013151,0.00071441,-0.00041054,-0.08350348,-0.00
 491690,0.01534455,-0.00132477,-0.01242388,0.03078564,0.56148736,0.0002
 7168,-0.00260736,0.00169421,-0.00037336,-0.00020822,-0.00003811,0.0034
 6657,-0.00358775,-0.00021881,-0.00512853,-0.01498031,0.03168838,-0.000
 57413,0.00135756,0.00052842,-0.00020216,-0.00054045,-0.00047929,-0.000
 57946,0.00196581,0.00086123,-0.00533974,-0.08997298,0.03696823,-0.0002
 3101,-0.00006986,0.00040116,-0.00506119,0.55360329,0.00056316,-0.00188
 812,0.00091831,-0.00014595,-0.00008461,-0.00009587,0.00019723,-0.00025
 984,-0.00026692,-0.00514828,0.00962451,-0.00458126,0.00068618,-0.00172
 764,0.00066279,0.00179607,0.00031563,0.00006399,-0.00001115,-0.0002814
 9,-0.00004791,0.01508856,0.03468005,-0.16590828,0.00116296,0.00387524,
 -0.00952985,0.01577842,0.03612821,0.47497540,-0.00005564,0.00007575,-0
 .00002680,-0.00001459,-0.00000940,-0.00001427,-0.00007353,0.00018811,0
 .00033809,0.00009649,-0.00090935,-0.00069570,-0.00005600,0.00050291,0.
 00004865,0.00005408,0.00035806,-0.00028395,0.00001822,-0.00001652,0.00
 034545,0.00207554,0.00340691,0.00357592,0.00048979,0.00051966,-0.00022
 822,-0.11743768,-0.07334491,-0.08752481,0.12288912,-0.00002492,0.00015
 389,-0.00014677,0.00002048,-0.00000481,0.00003247,-0.00006570,0.000078
 22,-0.00003177,0.00024229,0.00115623,0.00035169,-0.00003414,-0.0000082
 5,-0.00001729,0.00035766,0.00003139,0.00015920,0.00006132,-0.00011480,
 -0.00005945,0.00751379,0.00624680,0.00885477,0.00012407,0.00046519,-0.
 00075322,-0.07359436,-0.12560262,-0.09309786,0.08107671,0.13341270,0.0
 0004842,0.00010864,0.00002529,-0.00002886,-0.00009028,0.00002716,0.000
 19281,0.00013783,0.00037544,-0.00049100,-0.00204024,0.00005771,-0.0001
 6862,0.00074791,0.00042973,0.00021268,0.00009579,0.00018918,-0.0001776
 6,0.00078233,0.00024838,-0.01657039,-0.01649143,-0.01955197,0.00045905
 ,-0.00039489,0.00094591,-0.08651795,-0.09108087,-0.15686594,0.09565762
 ,0.09997335,0.17295234,0.00005637,-0.00024586,0.00008584,-0.00001866,-
 0.00001129,0.00000725,0.00007062,-0.00004083,-0.00006781,0.00013327,-0
 .00036952,0.00116585,-0.00016329,-0.00001320,0.00001735,0.00052560,0.0
 0025231,-0.00020970,0.00000534,-0.00016122,0.00005902,0.00110314,-0.00
 554249,0.00002276,0.00026696,-0.00021587,-0.00052234,-0.07579191,0.080
 23444,-0.00367744,0.00571714,-0.01659044,0.00174514,0.07729780,0.00008
 230,-0.00028957,0.00030617,-0.00007033,-0.00001322,-0.00006262,0.00042
 848,-0.00045466,0.00018287,-0.00216444,0.00106815,0.00160337,-0.000057
 87,0.00035884,0.00008261,0.00055573,0.00001717,0.00016122,-0.00012147,
 0.00014846,-0.00007288,0.00388564,-0.01098776,0.00033202,-0.00049781,0
 .00022121,0.00009789,0.07981124,-0.27509906,0.01010384,0.00585418,-0.0
 1585787,0.00077189,-0.08775309,0.29905388,-0.00014150,0.00114070,-0.00
 067470,0.00016533,0.00005280,0.00002948,-0.00119105,0.00093760,0.00050
 511,0.00296808,-0.00004161,-0.00592726,0.00005221,0.00020037,0.0001767
 8,-0.00046341,0.00021556,0.00032586,0.00028674,-0.00058364,-0.00007819
 ,-0.01162559,0.03028570,-0.00320734,0.00020205,-0.00066433,0.00142880,
 -0.00335451,0.00832328,-0.04699057,0.00832171,-0.01963908,0.00113924,0
 .00341664,-0.01279340,0.05197894,0.00007689,-0.00008375,0.00009668,-0.
 00000683,-0.00000978,-0.00000621,0.00014103,-0.00016554,-0.00024334,-0
 .00060828,0.00100084,0.00012138,-0.00002548,-0.00033979,0.00004279,0.0
 0082147,0.00035668,-0.00037655,0.00023600,-0.00041452,0.00004485,-0.00
 333148,-0.00113293,0.00173987,0.00143225,0.00004089,0.00034545,-0.2866
 6139,0.00453464,0.06270584,-0.01480492,0.00095417,0.00391744,-0.008972
 70,-0.00007964,0.00168811,0.31105995,0.00016626,-0.00010559,-0.0000589
 2,-0.00001628,-0.00007827,0.00006404,0.00012181,0.00021423,-0.00035748
 ,-0.00168115,0.00028896,0.00046414,-0.00007821,-0.00022517,-0.00017519
 ,0.00046205,0.00040053,-0.00032777,0.00031866,-0.00067617,-0.00000423,
 -0.01253800,-0.00069344,0.00362179,-0.00008020,-0.00007728,0.00276866,
 0.00592607,-0.04886949,-0.00246504,-0.01758908,0.00012170,0.00560883,0
 .02991561,0.00070699,-0.00806943,-0.00496203,0.04843922,-0.00028945,0.
 00022734,0.00000292,0.00008188,0.00017966,-0.00006354,-0.00022672,-0.0
 0038112,0.00030326,0.00193976,-0.00049010,0.00071699,-0.00025476,0.000
 21350,0.00010186,-0.00106758,-0.00056061,0.00066523,0.00005319,0.00009
 759,-0.00050817,0.03140420,0.00015384,-0.00978100,-0.00000189,0.002563
 44,-0.00555196,0.06043723,-0.00212656,-0.06405080,-0.02072748,0.001638
 81,0.00604371,-0.00169885,-0.00047074,-0.00060257,-0.07012525,-0.00025
 100,0.07096933,-0.00111169,0.00113881,0.00014120,0.00107688,0.00126504
 ,-0.00182406,-0.00415254,-0.00029782,0.00309939,0.01084082,-0.00310916
 ,-0.00442354,-0.00342640,0.00190134,0.00141783,-0.00668525,0.09210426,
 0.04165978,-0.00832590,-0.09043676,-0.03495632,-0.08982654,-0.03839764
 ,-0.02924119,-0.01325641,-0.01460358,-0.01688571,0.00267063,0.00537587
 ,-0.00101988,0.00114739,-0.00059918,0.00285243,0.00000651,-0.00030306,
 -0.00014166,0.00037134,-0.00031711,0.00092058,0.24011752,0.00106780,-0
 .00005736,0.00044610,-0.00053329,-0.00102083,0.00112572,0.00257072,0.0
 0004022,-0.00342818,-0.02295675,-0.03821281,-0.02814243,0.00394346,-0.
 00365496,0.00183422,0.01280337,-0.07597356,-0.03520638,-0.00949228,0.0
 5017992,0.03189045,-0.04319144,-0.09063962,-0.02982708,-0.00105205,-0.
 00347051,-0.00306314,0.00574622,0.00542670,0.00412478,-0.00060598,-0.0
 0075057,0.00231443,0.00088711,0.00047582,0.00141018,-0.00011591,0.0008
 5404,-0.00007643,0.15761191,0.46772269,0.00004923,0.00049390,-0.001278
 90,-0.00013562,0.00001154,0.00033088,-0.00075660,0.00107067,0.00123959
 ,-0.00224404,-0.01537870,-0.00429377,-0.00156411,0.00046441,0.00089233
 ,0.00391823,-0.00118310,0.00300628,0.00522748,0.00008238,-0.02247438,-
 0.03261882,-0.02451226,-0.11976090,0.00109071,0.00374694,0.00420222,-0
 .01748441,-0.01862530,-0.02872292,0.00095511,0.00206020,-0.00514864,-0
 .00005721,-0.00069550,0.00171913,-0.00034932,-0.00071596,0.00164734,-0
 .07433348,-0.02271920,0.53495908,-0.00001968,0.00017144,0.00003388,-0.
 00008466,-0.00006846,0.00024371,0.00040342,-0.00037609,-0.00099564,-0.
 00224061,0.00122835,0.00085702,0.00097307,-0.00060669,0.00006440,0.000
 05537,-0.00371371,-0.00234556,-0.00784769,0.00791355,0.01358860,0.0070
 6625,0.00035968,-0.01838667,0.00132711,0.00055907,0.00036681,-0.001489
 46,-0.00259030,-0.00186068,-0.00000525,0.00037254,-0.00128114,-0.00006
 481,0.00004423,0.00006055,0.00016788,0.00007834,-0.00013058,-0.0660444
 1,-0.01884255,0.09477530,0.06730530,-0.00017559,-0.00020470,0.00019129
 ,0.00015757,0.00000063,-0.00024173,-0.00045884,0.00001169,0.00146521,0
 .00075695,-0.00085317,-0.00276770,-0.00080066,-0.00007825,0.00016284,0
 .00040255,0.00380342,0.00239779,0.00623007,-0.00606955,-0.00986780,0.0
 0621310,0.00405688,-0.01070256,-0.00026274,0.00117712,0.00027804,-0.00
 128777,-0.00192869,-0.00062840,0.00025560,0.00041149,-0.00057757,-0.00
 021419,0.00022530,-0.00005202,0.00013068,-0.00022153,-0.00010778,-0.01
 553735,-0.04496568,0.00760433,0.01499153,0.04206948,-0.00003240,0.0000
 0072,0.00041807,0.00000899,-0.00011207,0.00000524,0.00030701,0.0004131
 5,0.00009469,-0.00140376,0.00051840,-0.00157849,0.00040716,-0.00033199
 ,0.00025176,0.00000795,-0.00205103,0.00039038,-0.00022527,0.00329767,-
 0.00066388,0.00774637,0.00285709,-0.01301679,-0.00004193,0.00018310,0.
 00093713,-0.00234630,-0.00326200,-0.00134476,0.00009443,0.00050235,-0.
 00104838,0.00004650,0.00003655,0.00018446,0.00004857,0.00006097,0.0002
 7007,0.08577303,0.01194978,-0.29297410,-0.09285617,-0.01221944,0.31158
 938,0.00039748,-0.00038086,0.00013075,-0.00021485,-0.00027611,0.000366
 98,0.00101320,-0.00001448,-0.00063368,-0.00337206,0.00001036,0.0000294
 5,0.00068830,-0.00033422,-0.00016305,-0.00026614,-0.00420120,-0.002351
 57,0.00060655,0.01746784,-0.00076004,-0.00100378,-0.01408271,0.0040210
 7,-0.00115053,-0.00027902,-0.00080599,0.00111936,-0.00045839,0.0014097
 6,-0.00004017,0.00018569,0.00015002,-0.00017136,0.00038592,-0.00024371
 ,0.00010427,0.00027325,-0.00031429,-0.06340195,-0.08784034,0.02352754,
 0.00049819,-0.01040091,0.00246582,0.06519349,0.00018672,-0.00016400,0.
 00029444,-0.00002697,0.00000310,-0.00011375,0.00001664,0.00005310,-0.0
 0030444,-0.00301193,-0.00086076,-0.00252674,0.00024400,-0.00044609,0.0
 0041540,0.00128178,0.00138845,0.00008074,-0.00242199,-0.01010280,0.002
 67957,-0.00186982,-0.00750512,0.00481450,0.00026976,-0.00108185,-0.000
 51381,0.00031127,0.00111344,0.00158077,0.00023734,0.00026130,0.0001342
 7,-0.00013147,0.00042632,-0.00072269,0.00028599,-0.00007873,-0.0006098
 2,-0.09579557,-0.26595348,0.06829566,0.00047907,0.00256557,-0.00184326
 ,0.09994518,0.28038157,0.00014212,-0.00022738,0.00041674,0.00002304,-0
 .00012449,-0.00006413,0.00029435,0.00043379,0.00007077,-0.00354073,-0.
 00221425,-0.00415202,0.00041232,-0.00081853,0.00035510,0.00022514,0.00
 158625,0.00099376,0.00067005,-0.00034380,-0.00032640,-0.00563002,-0.01
 781656,0.00686566,-0.00069575,-0.00091062,-0.00085630,-0.00008016,-0.0
 0076217,0.00178457,0.00016424,0.00017259,0.00018085,-0.00033298,0.0004
 1672,-0.00000718,0.00034969,-0.00016341,-0.00016267,0.02696160,0.06736
 719,-0.07334324,0.00786616,0.02506552,-0.00351478,-0.02682906,-0.07166
 085,0.07175925\\-0.00574135,-0.00405788,-0.00311996,0.00569279,0.00313
 600,0.00213703,-0.00102675,0.00185051,0.00110489,0.00055432,-0.0017186
 7,0.00159344,0.00025117,-0.00058435,-0.00128824,0.00161988,-0.00457061
 ,-0.00260647,-0.00112196,0.00581474,0.00261065,-0.00049186,-0.00000706
 ,-0.00041155,-0.00170684,0.00023946,0.00023644,0.00009460,-0.00031399,
 0.00111220,-0.00082004,-0.00093922,-0.00113567,-0.00048346,0.00156300,
 -0.00002862,0.00154804,0.00002712,-0.00056877,0.00216605,-0.00226695,-
 0.00092728,-0.00078352,0.00014681,0.00157086,0.00024891,0.00168111,-0.
 00027896\\\@


 WE LEARN WISDOM FROM FAILURE MUCH MORE THAN FROM SUCCESS.
 WE DISCOVER WHAT WILL DO BY FINDING OUT WHAT WILL NOT DO...
 AND HE WHO NEVER MADE A MISTAKE NEVER MADE A DISCOVERY
 Job cpu time:  0 days  1 hours 18 minutes 42.3 seconds.
 File lengths (MBytes):  RWF=    125 Int=      0 D2E=      0 Chk=      8 Scr=      1
 Normal termination of Gaussian 03 at Tue Jul  8 23:48:25 2014.
