 Entering Gaussian System, Link 0=g03
 Input=p17.gjf
 Output=p17.log
 Initial command:
 /opt/g03/l1.exe /scratch/goldmanm/Gau-5616.inp -scrdir=/scratch/goldmanm/
 Entering Link 1 = /opt/g03/l1.exe PID=      5618.
  
 Copyright (c) 1988,1990,1992,1993,1995,1998,2003,2004, Gaussian, Inc.
                  All Rights Reserved.
  
 This is the Gaussian(R) 03 program.  It is based on the
 the Gaussian(R) 98 system (copyright 1998, Gaussian, Inc.),
 the Gaussian(R) 94 system (copyright 1995, Gaussian, Inc.),
 the Gaussian 92(TM) system (copyright 1992, Gaussian, Inc.),
 the Gaussian 90(TM) system (copyright 1990, Gaussian, Inc.),
 the Gaussian 88(TM) system (copyright 1988, Gaussian, Inc.),
 the Gaussian 86(TM) system (copyright 1986, Carnegie Mellon
 University), and the Gaussian 82(TM) system (copyright 1983,
 Carnegie Mellon University). Gaussian is a federally registered
 trademark of Gaussian, Inc.
  
 This software contains proprietary and confidential information,
 including trade secrets, belonging to Gaussian, Inc.
  
 This software is provided under written license and may be
 used, copied, transmitted, or stored only in accord with that
 written license.
  
 The following legend is applicable only to US Government
 contracts under FAR:
  
                    RESTRICTED RIGHTS LEGEND
  
 Use, reproduction and disclosure by the US Government is
 subject to restrictions as set forth in subparagraphs (a)
 and (c) of the Commercial Computer Software - Restricted
 Rights clause in FAR 52.227-19.
  
 Gaussian, Inc.
 340 Quinnipiac St., Bldg. 40, Wallingford CT 06492
  
  
 ---------------------------------------------------------------
 Warning -- This program may not be used in any manner that
 competes with the business of Gaussian, Inc. or will provide
 assistance to any competitor of Gaussian, Inc.  The licensee
 of this program is prohibited from giving any competitor of
 Gaussian, Inc. access to this program.  By using this program,
 the user acknowledges that Gaussian, Inc. is engaged in the
 business of creating and licensing software in the field of
 computational chemistry and represents and warrants to the
 licensee that it is not a competitor of Gaussian, Inc. and that
 it will not use this program in any manner prohibited above.
 ---------------------------------------------------------------
  

 Cite this work as:
 Gaussian 03, Revision D.01,
 M. J. Frisch, G. W. Trucks, H. B. Schlegel, G. E. Scuseria, 
 M. A. Robb, J. R. Cheeseman, J. A. Montgomery, Jr., T. Vreven, 
 K. N. Kudin, J. C. Burant, J. M. Millam, S. S. Iyengar, J. Tomasi, 
 V. Barone, B. Mennucci, M. Cossi, G. Scalmani, N. Rega, 
 G. A. Petersson, H. Nakatsuji, M. Hada, M. Ehara, K. Toyota, 
 R. Fukuda, J. Hasegawa, M. Ishida, T. Nakajima, Y. Honda, O. Kitao, 
 H. Nakai, M. Klene, X. Li, J. E. Knox, H. P. Hratchian, J. B. Cross, 
 V. Bakken, C. Adamo, J. Jaramillo, R. Gomperts, R. E. Stratmann, 
 O. Yazyev, A. J. Austin, R. Cammi, C. Pomelli, J. W. Ochterski, 
 P. Y. Ayala, K. Morokuma, G. A. Voth, P. Salvador, J. J. Dannenberg, 
 V. G. Zakrzewski, S. Dapprich, A. D. Daniels, M. C. Strain, 
 O. Farkas, D. K. Malick, A. D. Rabuck, K. Raghavachari, 
 J. B. Foresman, J. V. Ortiz, Q. Cui, A. G. Baboul, S. Clifford, 
 J. Cioslowski, B. B. Stefanov, G. Liu, A. Liashenko, P. Piskorz, 
 I. Komaromi, R. L. Martin, D. J. Fox, T. Keith, M. A. Al-Laham, 
 C. Y. Peng, A. Nanayakkara, M. Challacombe, P. M. W. Gill, 
 B. Johnson, W. Chen, M. W. Wong, C. Gonzalez, and J. A. Pople, 
 Gaussian, Inc., Wallingford CT, 2004.
 
 ******************************************
 Gaussian 03:  AM64L-G03RevD.01 13-Oct-2005
                10-Mar-2019 
 ******************************************
 %chk=input.chk
 %mem=1500mb
 %nproc=8
 Will use up to    8 processors via shared memory.
 -------------------------------------
 # freq nosymm b3lyp/cbsb7 iop(7/33=1)
 -------------------------------------
 1/10=4,30=1,38=1/1,3;
 2/15=1,17=6,18=5,40=1/2;
 3/5=4,6=6,7=700,11=2,16=1,25=1,30=1,74=-5/1,2,3;
 4//1;
 5/5=2,38=5/2;
 8/6=4,10=90,11=11/1;
 11/6=1,8=1,9=11,15=111,16=1,31=1/1,2,10;
 10/6=1,31=1/2;
 6/7=2,8=2,9=2,10=2,18=1,28=1/1;
 7/8=1,10=1,25=1,30=1,33=1/1,2,3,16;
 1/10=4,30=1/3;
 99//99;
 -------
 NBO NRT
 -------
 Symbolic Z-matrix:
 Charge =  0 Multiplicity = 1
 C                     0.91568  -0.16358   0.04589 
 C                     2.40907  -0.20755  -0.0927 
 C                     3.18425   0.83333  -0.38097 
 H                     0.60343  -0.48734   1.04506 
 H                     0.43389  -0.84125  -0.66768 
 H                     0.52675   0.84325  -0.12342 
 H                     2.87316  -1.18068   0.05964 
 H                     2.76942   1.82426  -0.54165 
 H                     4.26054   0.73495  -0.46685 
 

 GradGradGradGradGradGradGradGradGradGradGradGradGradGradGradGradGradGrad
 Berny optimization.
 Initialization pass.
 Trust Radius=3.00D-01 FncErr=1.00D-07 GrdErr=1.00D-07
 Number of steps in this run=   2 maximum allowed number of steps=   2.
 GradGradGradGradGradGradGradGradGradGradGradGradGradGradGradGradGradGrad

                          Input orientation:                          
 ---------------------------------------------------------------------
 Center     Atomic     Atomic              Coordinates (Angstroms)
 Number     Number      Type              X           Y           Z
 ---------------------------------------------------------------------
    1          6             0        0.915680   -0.163580    0.045890
    2          6             0        2.409070   -0.207550   -0.092700
    3          6             0        3.184250    0.833330   -0.380970
    4          1             0        0.603430   -0.487340    1.045060
    5          1             0        0.433890   -0.841250   -0.667680
    6          1             0        0.526750    0.843250   -0.123420
    7          1             0        2.873160   -1.180680    0.059640
    8          1             0        2.769420    1.824260   -0.541650
    9          1             0        4.260540    0.734950   -0.466850
 ---------------------------------------------------------------------
                    Distance matrix (angstroms):
                    1          2          3          4          5
     1  C    0.000000
     2  C    1.500451   0.000000
     3  C    2.514448   1.329449   0.000000
     4  H    1.095747   2.152467   3.230846   0.000000
     5  H    1.095692   2.152560   3.232785   1.757121   0.000000
     6  H    1.092538   2.155981   2.669969   1.772483   1.772677
     7  H    2.205994   1.088838   2.084982   2.569717   2.567926
     8  H    2.780839   2.111791   1.086206   3.542973   3.546199
     9  H    3.501192   2.110980   1.084184   4.141777   4.143427
                    6          7          8          9
     6  H    0.000000
     7  H    3.104101   0.000000
     8  H    2.483317   3.066264   0.000000
     9  H    3.751115   2.423149   1.848142   0.000000
 Symmetry turned off by external request.
 Stoichiometry    C3H6
 Framework group  C1[X(C3H6)]
 Deg. of freedom    21
 Full point group                 C1
 Rotational constants (GHZ):     46.9943694      9.2814464      8.1390843
 Standard basis: CBSB7 (5D, 7F)
 Integral buffers will be    131072 words long.
 Raffenetti 2 integral format.
 Two-electron integral symmetry is turned off.
    90 basis functions,   144 primitive gaussians,    93 cartesian basis functions
    12 alpha electrons       12 beta electrons
       nuclear repulsion energy        70.7328302334 Hartrees.
 NAtoms=    9 NActive=    9 NUniq=    9 SFac= 7.50D-01 NAtFMM=   80 NAOKFM=F Big=F
 One-electron integrals computed using PRISM.
 NBasis=    90 RedAO= T  NBF=    90
 NBsUse=    90 1.00D-06 NBFU=    90
 Harris functional with IExCor=  402 diagonalized for initial guess.
 ExpMin= 1.03D-01 ExpMax= 4.56D+03 ExpMxC= 6.82D+02 IAcc=1 IRadAn=         1 AccDes= 1.00D-06
 HarFok:  IExCor= 402 AccDes= 1.00D-06 IRadAn=         1 IDoV=1
 ScaDFX=  1.000000  1.000000  1.000000  1.000000
 Requested convergence on RMS density matrix=1.00D-08 within 128 cycles.
 Requested convergence on MAX density matrix=1.00D-06.
 Requested convergence on             energy=1.00D-06.
 No special actions if energy rises.
 Keep R1 integrals in memory in canonical form, NReq=    11412908.
 Integral accuracy reduced to 1.0D-05 until final iterations.
 Initial convergence to 1.0D-05 achieved.  Increase integral accuracy.
 SCF Done:  E(RB+HF-LYP) =  -117.944051933     A.U. after   12 cycles
             Convg  =    0.4264D-08             -V/T =  2.0051
             S**2   =   0.0000
 Range of M.O.s used for correlation:     1    90
 NBasis=    90 NAE=    12 NBE=    12 NFC=     0 NFV=     0
 NROrb=     90 NOA=    12 NOB=    12 NVA=    78 NVB=    78
 Symmetrizing basis deriv contribution to polar:
 IMax=3 JMax=2 DiffMx= 0.00D+00
 G2DrvN: will do   10 centers at a time, making    1 passes doing MaxLOS=2.
 FoFDir/FoFCou used for L=0 through L=2.
 DoAtom=TTTTTTTTT
          Differentiating once with respect to electric field.
                with respect to dipole field.
          Differentiating once with respect to nuclear coordinates.
          Store integrals in memory, NReq=    10377712.
          There are  30 degrees of freedom in the 1st order CPHF.
    27 vectors were produced by pass  0.
 AX will form  27 AO Fock derivatives at one time.
    27 vectors were produced by pass  1.
    27 vectors were produced by pass  2.
    27 vectors were produced by pass  3.
    27 vectors were produced by pass  4.
    10 vectors were produced by pass  5.
     3 vectors were produced by pass  6.
 Inv2:  IOpt= 1 Iter= 1 AM= 1.61D-15 Conv= 1.00D-12.
 Inverted reduced A of dimension  148 with in-core refinement.
 Isotropic polarizability for W=    0.000000       34.71 Bohr**3.
 End of Minotr Frequency-dependent properties file   721 does not exist.

 **********************************************************************

            Population analysis using the SCF density.

 **********************************************************************

 Alpha  occ. eigenvalues --  -10.17343 -10.16662 -10.15774  -0.78779  -0.68722
 Alpha  occ. eigenvalues --   -0.55532  -0.46892  -0.42399  -0.41486  -0.37483
 Alpha  occ. eigenvalues --   -0.34774  -0.25987
 Alpha virt. eigenvalues --    0.01450   0.05329   0.07747   0.08679   0.11742
 Alpha virt. eigenvalues --    0.12700   0.14004   0.23337   0.29515   0.30988
 Alpha virt. eigenvalues --    0.32302   0.33616   0.38066   0.42396   0.43779
 Alpha virt. eigenvalues --    0.47028   0.51816   0.55206   0.57632   0.58557
 Alpha virt. eigenvalues --    0.59929   0.62193   0.66568   0.69417   0.79162
 Alpha virt. eigenvalues --    0.84468   0.87279   0.96462   1.05910   1.11412
 Alpha virt. eigenvalues --    1.19538   1.37055   1.38142   1.40801   1.45569
 Alpha virt. eigenvalues --    1.47993   1.50769   1.52209   1.57171   1.58935
 Alpha virt. eigenvalues --    1.61422   1.72206   1.73758   1.75049   1.83324
 Alpha virt. eigenvalues --    1.87105   2.00713   2.01066   2.05104   2.11347
 Alpha virt. eigenvalues --    2.11899   2.17774   2.26059   2.33120   2.33537
 Alpha virt. eigenvalues --    2.37424   2.43781   2.45746   2.48291   2.53695
 Alpha virt. eigenvalues --    2.55714   2.61096   2.67010   2.68670   2.79397
 Alpha virt. eigenvalues --    2.84589   2.88949   3.06115   3.14897   3.46292
 Alpha virt. eigenvalues --    3.71595   3.77793   3.83228   3.96464   4.29826
 Alpha virt. eigenvalues --   23.70774  23.91980  24.28061
          Condensed to atoms (all electrons):
              1          2          3          4          5          6
     1  C    4.820346   0.370030  -0.065165   0.398401   0.398443   0.407540
     2  C    0.370030   4.899898   0.658153  -0.035258  -0.035239  -0.038935
     3  C   -0.065165   0.658153   4.836656   0.000675   0.000756  -0.005151
     4  H    0.398401  -0.035258   0.000675   0.584358  -0.033117  -0.027880
     5  H    0.398443  -0.035239   0.000756  -0.033117   0.584358  -0.027890
     6  H    0.407540  -0.038935  -0.005151  -0.027880  -0.027890   0.572957
     7  H   -0.047642   0.409265  -0.038781  -0.002701  -0.002761   0.007099
     8  H   -0.012354  -0.040325   0.409746   0.000214   0.000212   0.005524
     9  H    0.007630  -0.033442   0.408590  -0.000414  -0.000414   0.000003
              7          8          9
     1  C   -0.047642  -0.012354   0.007630
     2  C    0.409265  -0.040325  -0.033442
     3  C   -0.038781   0.409746   0.408590
     4  H   -0.002701   0.000214  -0.000414
     5  H   -0.002761   0.000212  -0.000414
     6  H    0.007099   0.005524   0.000003
     7  H    0.581281   0.008633  -0.012385
     8  H    0.008633   0.574653  -0.042886
     9  H   -0.012385  -0.042886   0.569146
 Mulliken atomic charges:
              1
     1  C   -0.277229
     2  C   -0.154146
     3  C   -0.205478
     4  H    0.115720
     5  H    0.115652
     6  H    0.106733
     7  H    0.097992
     8  H    0.096585
     9  H    0.104171
 Sum of Mulliken charges=   0.00000
 Atomic charges with hydrogens summed into heavy atoms:
              1
     1  C    0.060876
     2  C   -0.056154
     3  C   -0.004722
     4  H    0.000000
     5  H    0.000000
     6  H    0.000000
     7  H    0.000000
     8  H    0.000000
     9  H    0.000000
 Sum of Mulliken charges=   0.00000
 APT atomic charges:
              1
     1  C    0.053377
     2  C    0.075017
     3  C   -0.125884
     4  H   -0.017476
     5  H   -0.017404
     6  H   -0.015415
     7  H   -0.001424
     8  H    0.022935
     9  H    0.026275
 Sum of APT charges=   0.00000
 APT Atomic charges with hydrogens summed into heavy atoms:
              1
     1  C    0.003081
     2  C    0.073593
     3  C   -0.076674
     4  H    0.000000
     5  H    0.000000
     6  H    0.000000
     7  H    0.000000
     8  H    0.000000
     9  H    0.000000
 Sum of APT charges=   0.00000
 Electronic spatial extent (au):  <R**2>=   581.7980
 Charge=     0.0000 electrons
 Dipole moment (field-independent basis, Debye):
    X=    -0.3066    Y=    -0.2126    Z=     0.0744  Tot=     0.3805
 Quadrupole moment (field-independent basis, Debye-Ang):
   XX=   -20.6830   YY=   -19.1741   ZZ=   -21.7054
   XY=    -0.5475   XZ=    -0.0301   YZ=    -0.5055
 Traceless Quadrupole moment (field-independent basis, Debye-Ang):
   XX=    -0.1622   YY=     1.3467   ZZ=    -1.1846
   XY=    -0.5475   XZ=    -0.0301   YZ=    -0.5055
 Octapole moment (field-independent basis, Debye-Ang**2):
  XXX=  -124.1854  YYY=    -8.4558  ZZZ=    10.1310  XYY=   -40.5119
  XXY=    -4.5348  XXZ=     1.5691  XZZ=   -47.5659  YZZ=    -4.0945
  YYZ=     1.9061  XYZ=    -1.5903
 Hexadecapole moment (field-independent basis, Debye-Ang**3):
 XXXX=  -669.3480 YYYY=   -73.6390 ZZZZ=   -39.3423 XXXY=   -44.8051
 XXXZ=    21.0730 YYYX=   -41.6842 YYYZ=     6.7393 ZZZX=    33.2763
 ZZZY=     8.5074 XXYY=  -125.6696 XXZZ=  -138.9290 YYZZ=   -19.6215
 XXYZ=    -2.1877 YYXZ=     8.0547 ZZXY=   -15.7371
 N-N= 7.073283023342D+01 E-N=-4.142889550506D+02  KE= 1.173502957963D+02
  Exact polarizability:  41.397   6.938  38.528  -3.220  -3.827  24.194
 Approx polarizability:  53.003  12.132  56.742  -4.578  -6.301  33.413
 Use density number 0.
 Entering OneElI...
 Calculate overlap and kinetic energy integrals
    NBasis =  93  MinDer = 2  MaxDer = 2
 Requested accuracy = 0.1000D-12
 PrsmSu:  NPrtUS=   1 ThrOK=F
 PRISM was handed   196517801 working-precision words and   780 shell-pairs
 Entering OneElI...
 Calculate potential energy integrals
    NBasis =  93  MinDer = 2  MaxDer = 2
 Requested accuracy = 0.1000D-12
 PrsmSu:  NPrtUS=   8 ThrOK=T
 PRISM was handed    24549151 working-precision words and   776 shell-pairs
 PRISM was handed    24549151 working-precision words and   776 shell-pairs
 PRISM was handed    24549151 working-precision words and   776 shell-pairs
 PRISM was handed    24549151 working-precision words and   776 shell-pairs
 PRISM was handed    24549151 working-precision words and   776 shell-pairs
 PRISM was handed    24549151 working-precision words and   776 shell-pairs
 PRISM was handed    24549151 working-precision words and   776 shell-pairs
 PRISM was handed    24549151 working-precision words and   776 shell-pairs
 Polarizability after L701:
                1             2             3
      1  0.413965D+02
      2  0.693828D+01  0.385280D+02
      3 -0.322002D+01 -0.382660D+01  0.241941D+02
 Dipole Derivatives after L701:
               1            2            3            4            5
      1-0.617446D-01-0.378644D-01 0.307413D-01 0.307722D+00-0.468117D-02
      2-0.179436D-01 0.659839D-01 0.220492D-01 0.719411D-01 0.120598D+00
      3 0.259737D-01 0.236178D-01 0.155891D+00-0.672504D-01-0.697186D-01
               6            7            8            9           10
      1-0.520177D-01-0.547249D-01-0.147984D+00 0.432235D-02-0.154022D-01
      2-0.777384D-01-0.127813D+00-0.135545D-01-0.493363D-01-0.377838D-01
      3-0.203270D+00-0.160663D-04-0.475506D-01-0.309373D+00 0.439196D-01
              11           12           13           14           15
      1-0.201192D-02 0.846520D-01-0.396142D-01-0.538784D-01-0.802948D-01
      2 0.715350D-01 0.705334D-01-0.713646D-01-0.109166D-02-0.100234D+00
      3 0.629280D-01-0.108562D+00-0.285778D-01-0.979359D-01-0.115075D-01
              16           17           18           19           20
      1 0.219926D-02 0.102367D+00-0.141168D-01-0.322578D-01 0.708832D-01
      2 0.200959D-01-0.115905D+00 0.370231D-01 0.710215D-01-0.997801D-01
      3 0.287148D-02 0.290516D-01 0.674604D-01 0.212285D-02 0.410815D-01
              21           22           23           24           25
      1 0.221411D-02 0.121803D-01 0.446951D-01 0.364654D-02-0.118358D+00
      2 0.410486D-01 0.952813D-01-0.778849D-01 0.353345D-01-0.343455D-02
      3 0.127766D+00-0.654591D-02 0.402858D-01 0.134509D+00 0.275026D-01
              26           27
      1 0.284750D-01 0.208530D-01
      2 0.500990D-01 0.213196D-01
      3 0.182405D-01 0.147085D+00
 Hessian after L701:
                1             2             3             4             5
      1  0.647512D+01
      2 -0.218075D+00  0.100534D+02
      3  0.414256D+00  0.549785D-01  0.101660D+02
      4  0.328968D+00 -0.377360D-01 -0.465866D+00  0.633837D+01
      5 -0.967661D-01 -0.448232D+01  0.131452D-01 -0.252320D+01  0.807554D+01
      6 -0.453846D+00  0.728749D-02 -0.441978D+01  0.148489D+01  0.189819D+01
      7  0.363225D+00  0.206621D+00 -0.873535D-01 -0.439776D+01  0.342539D+01
      8  0.202263D+00 -0.959594D-01 -0.204146D-01  0.338372D+01 -0.262836D+01
      9 -0.865011D-01 -0.208842D-01 -0.859143D-01 -0.114688D+01 -0.164325D+01
     10 -0.250127D+01  0.188822D+00 -0.589922D+00  0.164973D-01  0.296860D-02
     11  0.176092D+00 -0.251503D+01 -0.526697D+00  0.165979D-01  0.252727D-02
     12 -0.532732D+00 -0.514640D+00 -0.105617D+01 -0.800282D-01 -0.264344D-01
     13 -0.226474D+01  0.582264D+00  0.618561D+00  0.402285D-01  0.279408D-01
     14  0.550506D+00 -0.194421D+01  0.784491D+00  0.577703D-01  0.373847D-01
     15  0.570675D+00  0.768251D+00 -0.186412D+01  0.761513D-01  0.508088D-01
     16 -0.251027D+01 -0.788561D+00  0.135617D+00  0.294338D-01 -0.214389D-01
     17 -0.672521D+00 -0.106737D+01 -0.287457D+00 -0.708964D-01  0.981688D-01
     18  0.111732D+00 -0.276133D+00 -0.273729D+01  0.130555D-01 -0.153238D-01
     19 -0.145245D-01  0.343887D-01 -0.187461D-02 -0.252355D+01 -0.828130D+00
     20  0.136492D-01  0.701189D-01 -0.780133D-02 -0.868125D+00 -0.124358D+01
     21  0.237569D-02 -0.987552D-02  0.400246D-01  0.142768D+00 -0.249192D+00
     22 -0.136181D-01 -0.111816D-01  0.130467D-02  0.257171D-01 -0.526035D-01
     23  0.103656D-01  0.951854D-02 -0.768982D-02  0.535635D-01  0.130750D+00
     24 -0.306079D-02 -0.555576D-02 -0.216531D-01 -0.118517D-01 -0.181502D-01
     25  0.137113D+00  0.434599D-01 -0.247221D-01  0.142089D+00  0.658364D-01
     26  0.344869D-01 -0.282031D-01 -0.255480D-02 -0.116950D-01  0.988804D-02
     27 -0.228987D-01 -0.342780D-02 -0.211305D-01 -0.122323D-01 -0.979331D-02
                6             7             8             9            10
      6  0.156430D+02
      7 -0.115532D+01  0.710297D+01
      8 -0.163910D+01 -0.272129D+01  0.632919D+01
      9 -0.859372D+01  0.128726D+01  0.194053D+01  0.140235D+02
     10 -0.373019D-01  0.246800D-01  0.297480D-01 -0.575148D-01  0.236755D+01
     11 -0.300702D-01  0.298437D-01 -0.119954D-01 -0.302826D-01 -0.231567D+00
     12  0.114079D+00 -0.765309D-01 -0.426757D-01  0.357652D-01  0.719433D+00
     13  0.424418D-01  0.473409D-01  0.577170D-01  0.341051D-01  0.494899D-01
     14  0.502371D-01  0.629531D-01  0.175099D-01  0.233476D-01  0.687332D-02
     15  0.550527D-01  0.519683D-01  0.362199D-01 -0.160013D-01 -0.166062D-01
     16  0.283633D-02  0.549793D-01  0.118738D-01 -0.104640D-01  0.385111D-01
     17 -0.104297D-01 -0.450099D-01 -0.348571D-01  0.560859D-02  0.115890D-02
     18  0.155143D-01  0.121985D-02  0.499074D-04 -0.289842D-01 -0.125356D-01
     19  0.134643D+00  0.141680D-01 -0.720487D-01  0.142889D-01  0.122535D-02
     20 -0.245277D+00 -0.184109D-02  0.136248D+00 -0.255005D-01 -0.686215D-02
     21 -0.283180D+01 -0.158345D-04 -0.185612D-01  0.141070D-01  0.571232D-03
     22  0.974364D-02 -0.252309D+01 -0.661536D+00  0.113230D+00 -0.139046D-03
     23 -0.286682D-01 -0.821792D+00 -0.999598D+00 -0.272663D+00  0.104538D-01
     24  0.207660D-01  0.145834D+00 -0.288542D+00 -0.269473D+01 -0.318219D-02
     25 -0.280827D-01 -0.686518D+00 -0.230451D+00 -0.147525D+00  0.346094D-02
     26 -0.217088D-02 -0.134880D+00 -0.271218D+01  0.230941D-01 -0.159542D-02
     27 -0.315627D-02 -0.167065D+00  0.324918D-01 -0.265407D+01 -0.294166D-02
               11            12            13            14            15
     11  0.247055D+01
     12  0.574077D+00  0.933906D+00
     13  0.601954D-02 -0.530906D-02  0.207782D+01
     14  0.477356D-01 -0.424741D-02 -0.681168D+00  0.185762D+01
     15 -0.364840D-01 -0.424932D-01 -0.701058D+00 -0.815559D+00  0.183732D+01
     16 -0.600092D-02 -0.410225D-02  0.413302D-01 -0.139680D-01  0.520963D-02
     17  0.228164D-02  0.164129D-01  0.318632D-02 -0.222567D-01 -0.259557D-02
     18  0.557967D-01  0.122556D-01  0.861222D-02 -0.395159D-01  0.340055D-01
     19  0.259160D-02 -0.868305D-02  0.261174D-02  0.610359D-02  0.651119D-02
     20 -0.316240D-02  0.129936D-01 -0.864685D-02 -0.697281D-02 -0.898655D-02
     21 -0.100432D-02 -0.637241D-03  0.223185D-02  0.257021D-02  0.159350D-02
     22  0.297549D-02 -0.175078D-02  0.216835D-03  0.373365D-02  0.109390D-03
     23  0.807471D-02 -0.154297D-01  0.131379D-01  0.137458D-01  0.807531D-02
     24 -0.423032D-02  0.256214D-02 -0.188548D-02 -0.139175D-02 -0.342305D-02
     25  0.344758D-02 -0.102969D-01  0.570409D-02  0.719694D-02  0.703864D-02
     26 -0.985736D-03 -0.556756D-04 -0.449906D-03 -0.563883D-03  0.270301D-03
     27 -0.110461D-02  0.730796D-03  0.230069D-02  0.681998D-04 -0.193989D-02
               16            17            18            19            20
     16  0.227056D+01
     17  0.838876D+00  0.100389D+01
     18 -0.122472D+00  0.284472D+00  0.273839D+01
     19  0.334730D-01 -0.544667D-01  0.634342D-02  0.251570D+01
     20 -0.580878D-01  0.407234D-01 -0.583666D-02  0.959175D+00  0.926473D+00
     21  0.703014D-02 -0.613858D-02 -0.150463D-01 -0.163471D+00  0.294475D+00
     22  0.273461D-01  0.120865D-01 -0.680145D-02 -0.194092D-01 -0.112314D-01
     23  0.383409D-01 -0.192979D-01 -0.329224D-02 -0.190902D-01  0.104799D+00
     24 -0.121547D-01 -0.772969D-03 -0.159749D-01  0.494052D-02 -0.219849D-01
     25  0.146383D-01 -0.124137D-01  0.846060D-03 -0.969636D-02 -0.180304D-01
     26 -0.103325D-02 -0.128537D-02 -0.216436D-03 -0.285233D-01 -0.246451D-01
     27 -0.150077D-02  0.900305D-03 -0.286886D-02  0.730167D-02  0.791862D-02
               21            22            23            24            25
     21  0.279328D+01
     22  0.334526D-02  0.255235D+01
     23 -0.212195D-01  0.616653D+00  0.739559D+00
     24 -0.470834D-02 -0.110225D+00  0.339177D+00  0.264814D+01
     25  0.516531D-02 -0.493723D-01  0.983668D-01 -0.841499D-02  0.442583D+00
     26  0.894587D-02  0.101103D+00  0.124489D-01  0.145077D-02  0.425872D-01
     27  0.318876D-02 -0.895593D-02  0.171011D-02  0.690200D-01  0.205992D+00
               26            27
     26  0.274553D+01
     27 -0.287633D-01  0.261023D+01
 ReadGW:  IGet=0 IStart=          72 Next=        4049 LGW=        3977.
 ICntrl=12127.
 Symmetry not used in FoFDir.
 MinBra= 0 MaxBra= 2 Meth= 1.
 IRaf=       0 NMat=   1 IRICut=       1 DoRegI=T DoRafI=F ISym2E= 0 JSym2E=0.
 PrsmSu:  NPrtUS=   8 ThrOK=T
 PRISM was handed    24547110 working-precision words and   778 shell-pairs
 PRISM was handed    24547110 working-precision words and   778 shell-pairs
 PRISM was handed    24547110 working-precision words and   778 shell-pairs
 PRISM was handed    24547110 working-precision words and   778 shell-pairs
 PRISM was handed    24547110 working-precision words and   778 shell-pairs
 PRISM was handed    24547110 working-precision words and   778 shell-pairs
 PRISM was handed    24547110 working-precision words and   778 shell-pairs
 PRISM was handed    24547110 working-precision words and   778 shell-pairs
 Pruned (  75, 302) grid will be used in CalDFT.
 CkSvGd:  ISavGI=        -1 IRadAn=       4 IRASav=       4 ISavGd=        -1.
 CalDSu:  NPrtUS=   8 ThrOK=T
 IPart= 0 IRanGd=          0 ScrnBf=T ScrnGd=T RCrit=4.00D+00 DoMicB=T.
 IPart= 7 IRanGd=          0 ScrnBf=T ScrnGd=T RCrit=4.00D+00 DoMicB=T.
 IPart= 2 IRanGd=          0 ScrnBf=T ScrnGd=T RCrit=4.00D+00 DoMicB=T.
 CutRad = 1000.00    CtRdIn =    0.00    XCrit =  15.00   ICut = 0
 IPart= 1 IRanGd=          0 ScrnBf=T ScrnGd=T RCrit=4.00D+00 DoMicB=T.
 IPart= 6 IRanGd=          0 ScrnBf=T ScrnGd=T RCrit=4.00D+00 DoMicB=T.
 CutRad = 1000.00    CtRdIn =    0.00    XCrit =  15.00   ICut = 0
 IPart= 4 IRanGd=          0 ScrnBf=T ScrnGd=T RCrit=4.00D+00 DoMicB=T.
 CutRad = 1000.00    CtRdIn =    0.00    XCrit =  15.00   ICut = 0
 IPart= 3 IRanGd=          0 ScrnBf=T ScrnGd=T RCrit=4.00D+00 DoMicB=T.
 CutRad = 1000.00    CtRdIn =    0.00    XCrit =  15.00   ICut = 0
 CutRad = 1000.00    CtRdIn =    0.00    XCrit =  15.00   ICut = 0
 CutRad = 1000.00    CtRdIn =    0.00    XCrit =  15.00   ICut = 0
 IPart= 5 IRanGd=          0 ScrnBf=T ScrnGd=T RCrit=4.00D+00 DoMicB=T.
 CutRad = 1000.00    CtRdIn =    0.00    XCrit =  15.00   ICut = 0
 CutRad = 1000.00    CtRdIn =    0.00    XCrit =  15.00   ICut = 0
 IPart= 6         8799 of         9974 points in      20 batches and       44 microbatches, Max-NSigAt=       9 Max-NSgAt2=       9
 IPart= 7         7888 of         8378 points in      16 batches and       54 microbatches, Max-NSigAt=       9 Max-NSgAt2=       9
 IPart= 5         7716 of         8258 points in      16 batches and       60 microbatches, Max-NSigAt=       9 Max-NSgAt2=       9
 IPart= 1         7853 of         8734 points in      19 batches and       71 microbatches, Max-NSigAt=       9 Max-NSgAt2=       9
 IPart= 2         8904 of        10030 points in      20 batches and       45 microbatches, Max-NSigAt=       9 Max-NSgAt2=       9
 IPart= 3         7999 of         8778 points in      18 batches and       70 microbatches, Max-NSigAt=       9 Max-NSgAt2=       9
 IPart= 4         7791 of         8560 points in      18 batches and       61 microbatches, Max-NSigAt=       9 Max-NSgAt2=       9
 IPart= 0         8064 of         8682 points in      17 batches and       69 microbatches, Max-NSigAt=       9 Max-NSgAt2=       9
 Polarizability after L703:
                1             2             3
      1  0.413965D+02
      2  0.693828D+01  0.385280D+02
      3 -0.322002D+01 -0.382660D+01  0.241941D+02
 Dipole Derivatives after L703:
               1            2            3            4            5
      1-0.617446D-01-0.378644D-01 0.307413D-01 0.307722D+00-0.468117D-02
      2-0.179436D-01 0.659839D-01 0.220492D-01 0.719411D-01 0.120598D+00
      3 0.259737D-01 0.236178D-01 0.155891D+00-0.672504D-01-0.697186D-01
               6            7            8            9           10
      1-0.520177D-01-0.547249D-01-0.147984D+00 0.432235D-02-0.154022D-01
      2-0.777384D-01-0.127813D+00-0.135545D-01-0.493363D-01-0.377838D-01
      3-0.203270D+00-0.160663D-04-0.475506D-01-0.309373D+00 0.439196D-01
              11           12           13           14           15
      1-0.201192D-02 0.846520D-01-0.396142D-01-0.538784D-01-0.802948D-01
      2 0.715350D-01 0.705334D-01-0.713646D-01-0.109166D-02-0.100234D+00
      3 0.629280D-01-0.108562D+00-0.285778D-01-0.979359D-01-0.115075D-01
              16           17           18           19           20
      1 0.219926D-02 0.102367D+00-0.141168D-01-0.322578D-01 0.708832D-01
      2 0.200959D-01-0.115905D+00 0.370231D-01 0.710215D-01-0.997801D-01
      3 0.287148D-02 0.290516D-01 0.674604D-01 0.212285D-02 0.410815D-01
              21           22           23           24           25
      1 0.221411D-02 0.121803D-01 0.446951D-01 0.364654D-02-0.118358D+00
      2 0.410486D-01 0.952813D-01-0.778849D-01 0.353345D-01-0.343455D-02
      3 0.127766D+00-0.654591D-02 0.402858D-01 0.134509D+00 0.275026D-01
              26           27
      1 0.284750D-01 0.208530D-01
      2 0.500990D-01 0.213196D-01
      3 0.182405D-01 0.147085D+00
 Hessian after L703:
                1             2             3             4             5
      1  0.482796D+00
      2 -0.630268D-02  0.570633D+00
      3  0.546114D-02 -0.879173D-02  0.525304D+00
      4 -0.217474D+00  0.142680D-01  0.114202D-01  0.627082D+00
      5  0.746791D-02 -0.886940D-01  0.260167D-02  0.105441D+00  0.758588D+00
      6  0.126567D-01  0.203288D-02 -0.738420D-01 -0.684348D-01 -0.134423D+00
      7 -0.244066D-01 -0.284722D-01  0.898282D-02 -0.257779D+00 -0.201148D+00
      8 -0.408141D-02  0.389204D-02  0.119000D-02 -0.200766D+00 -0.385917D+00
      9  0.400355D-02  0.361371D-02  0.660883D-02  0.612622D-01  0.880033D-01
     10 -0.629476D-01 -0.182491D-01  0.649823D-01 -0.115784D-01 -0.132532D-01
     11 -0.167665D-01 -0.684746D-01  0.697052D-01 -0.259083D-02 -0.862824D-03
     12  0.630485D-01  0.702962D-01 -0.258340D+00  0.183147D-02  0.937825D-03
     13 -0.913614D-01 -0.663998D-01 -0.738843D-01 -0.167660D-01 -0.238921D-01
     14 -0.642239D-01 -0.145127D+00 -0.104375D+00 -0.204307D-02  0.542719D-03
     15 -0.727299D-01 -0.104587D+00 -0.153605D+00  0.258069D-02  0.410665D-02
     16 -0.781895D-01  0.811772D-01 -0.136370D-01 -0.126991D-01  0.333458D-01
     17  0.839419D-01 -0.272029D+00  0.380303D-01  0.788848D-03 -0.101991D-02
     18 -0.140413D-01  0.382067D-01 -0.539037D-01  0.921056D-03 -0.317325D-02
     19 -0.112168D-01  0.279691D-01 -0.437288D-02 -0.105069D+00  0.104024D+00
     20 -0.116998D-02  0.125165D-02  0.361378D-03  0.998936D-01 -0.265999D+00
     21  0.157110D-02 -0.252213D-02  0.283736D-02 -0.141086D-01  0.355028D-01
     22  0.169045D-02 -0.180457D-02 -0.620422D-03  0.942090D-02 -0.170235D-01
     23  0.161587D-02  0.100865D-02 -0.203856D-02  0.125414D-01 -0.214868D-01
     24 -0.129229D-02 -0.174326D-02 -0.780961D-02 -0.288374D-02  0.727494D-02
     25  0.110987D-02 -0.218606D-02  0.166802D-02 -0.151373D-01  0.503797D-02
     26 -0.481261D-03 -0.246105D-02  0.331679D-02 -0.275327D-01  0.484960D-02
     27  0.132243D-02  0.349486D-02  0.127501D-01  0.741155D-02 -0.831256D-03
                6             7             8             9            10
      6  0.183871D+00
      7  0.613667D-01  0.706644D+00
      8  0.880339D-01  0.894113D-01  0.737971D+00
      9 -0.746204D-01 -0.774361D-01 -0.137577D+00  0.140638D+00
     10  0.318626D-01 -0.347725D-02  0.223728D-02 -0.374102D-03  0.715736D-01
     11 -0.137468D-02 -0.125512D-03  0.908531D-03  0.851072D-04  0.226971D-01
     12  0.514022D-03  0.154469D-04 -0.133444D-02  0.249114D-03 -0.709820D-01
     13 -0.207973D-01 -0.337935D-02  0.251624D-02  0.924132D-04  0.379077D-02
     14  0.320179D-02 -0.185573D-04  0.117092D-02 -0.485043D-03  0.480080D-02
     15  0.422593D-02  0.675913D-03  0.432228D-03 -0.138109D-03 -0.127507D-01
     16 -0.556878D-02  0.217560D-02  0.113713D-02 -0.485386D-03  0.254653D-02
     17 -0.658312D-04 -0.149488D-02  0.150244D-02 -0.267509D-03  0.221280D-02
     18 -0.288654D-03  0.170037D-04 -0.525163D-03 -0.397698D-03 -0.107367D-01
     19 -0.149414D-01  0.100419D-01 -0.188248D-01  0.348616D-02  0.785264D-03
     20  0.359011D-01  0.127201D-01 -0.220236D-01  0.455053D-02  0.518451D-03
     21 -0.471688D-01 -0.292608D-02  0.766330D-02  0.527066D-02 -0.878787D-03
     22  0.306869D-02 -0.993828D-01  0.100318D+00 -0.140744D-01  0.143319D-03
     23  0.431616D-02  0.960331D-01 -0.279103D+00  0.402329D-01  0.199827D-03
     24  0.468639D-02 -0.131950D-01  0.397841D-01 -0.416454D-01  0.119263D-02
     25  0.787600D-03 -0.330437D+00  0.280525D-01  0.235258D-01 -0.836319D-03
     26  0.237737D-02  0.330944D-01 -0.584010D-01  0.184381D-02 -0.116400D-02
     27  0.262257D-02  0.224992D-01  0.233285D-02 -0.359652D-01 -0.231528D-02
               11            12            13            14            15
     11  0.698224D-01
     12 -0.768225D-01  0.281993D+00
     13  0.599023D-02  0.524843D-02  0.102575D+00
     14  0.588137D-02  0.632278D-02  0.750728D-01  0.154237D+00
     15 -0.192387D-01 -0.210899D-01  0.789288D-01  0.115395D+00  0.166898D+00
     16 -0.874933D-02  0.218810D-03  0.470005D-02 -0.128539D-01  0.371085D-02
     17 -0.780024D-02  0.790581D-03  0.632349D-02 -0.172044D-01  0.390678D-02
     18  0.274736D-01 -0.345136D-02  0.843126D-02 -0.197995D-01  0.383414D-02
     19 -0.264219D-03  0.692201D-03  0.852082D-03 -0.548950D-03 -0.625368D-03
     20  0.193863D-03 -0.141536D-03  0.817098D-03  0.259072D-03  0.191759D-04
     21 -0.169496D-04  0.280969D-03  0.510909D-03  0.105779D-03  0.216497D-03
     22  0.144214D-03 -0.944896D-04 -0.776352D-04  0.374746D-04  0.549706D-04
     23  0.332285D-03 -0.132835D-03 -0.262551D-03  0.102726D-03  0.622438D-04
     24  0.597908D-03 -0.187812D-03 -0.116755D-02 -0.683181D-03  0.272082D-03
     25 -0.335190D-03  0.215861D-04 -0.333163D-03 -0.222786D-03  0.154795D-03
     26  0.000000D+00  0.839110D-04 -0.165482D-03  0.137676D-03 -0.963100D-04
     27 -0.408961D-03  0.327735D-04  0.263735D-02  0.317241D-03 -0.613988D-03
               16            17            18            19            20
     16  0.867304D-01
     17 -0.919793D-01  0.294422D+00
     18  0.146722D-01 -0.423258D-01  0.524409D-01
     19 -0.587097D-02 -0.418328D-03  0.855395D-03  0.110499D+00
     20 -0.511793D-03  0.134949D-02  0.153856D-03 -0.108761D+00  0.285841D+00
     21  0.862553D-03  0.150632D-03  0.173551D-02  0.138665D-01 -0.421673D-01
     22  0.765955D-04  0.659751D-03 -0.526204D-04 -0.107357D-02 -0.292622D-02
     23 -0.127871D-02  0.509076D-03  0.584401D-04 -0.304112D-02 -0.177720D-02
     24  0.237638D-03 -0.123300D-03  0.210761D-03  0.189032D-02  0.305397D-02
     25  0.530424D-03 -0.342971D-04 -0.663960D-04  0.105245D-02 -0.580194D-03
     26 -0.287105D-03  0.270964D-03 -0.688712D-04 -0.134612D-03  0.904381D-03
     27 -0.109534D-04 -0.958608D-04 -0.179866D-03 -0.850884D-03 -0.173112D-02
               21            22            23            24            25
     21  0.332574D-01
     22  0.186960D-02  0.962814D-01
     23  0.306272D-02 -0.104574D+00  0.300166D+00
     24  0.110095D-01  0.140894D-01 -0.460043D-01  0.313182D-01
     25 -0.767179D-03 -0.707865D-02 -0.123400D-02  0.112859D-02  0.351129D+00
     26 -0.177886D-02  0.251688D-01  0.248591D-03 -0.215690D-02 -0.284979D-01
     27 -0.743912D-02 -0.424066D-02  0.443187D-03  0.214581D-02 -0.264528D-01
               26            27
     26  0.544517D-01
     27 -0.352094D-02  0.266469D-01
 FrcOut:
 IF    =   462 IFX   =   489 IFXYZ =   516
 IFFX  =   543 IFFFX =   921 IFLen =    27
 IFFLen=   378 IFFFLn=     0 IEDerv=   921
 LEDerv=  1349 IFroze=  2274 ICStrt= 18753
 DipoleDeriv   =-6.17446403D-02-1.79436041D-02 2.59736653D-02
                -3.78644474D-02 6.59839067D-02 2.36177615D-02
                 3.07413117D-02 2.20491742D-02 1.55890736D-01
                 3.07722422D-01 7.19410912D-02-6.72504289D-02
                -4.68116573D-03 1.20597800D-01-6.97186311D-02
                -5.20177168D-02-7.77383678D-02-2.03269572D-01
                -5.47249253D-02-1.27813188D-01-1.60663209D-05
                -1.47984381D-01-1.35544642D-02-4.75505623D-02
                 4.32235487D-03-4.93362771D-02-3.09372578D-01
                -1.54022329D-02-3.77838355D-02 4.39195783D-02
                -2.01191958D-03 7.15350048D-02 6.29279620D-02
                 8.46519736D-02 7.05333658D-02-1.08561824D-01
                -3.96141846D-02-7.13646287D-02-2.85777812D-02
                -5.38784471D-02-1.09166211D-03-9.79359413D-02
                -8.02948421D-02-1.00233670D-01-1.15074540D-02
                 2.19926138D-03 2.00959351D-02 2.87148458D-03
                 1.02367002D-01-1.15904568D-01 2.90515937D-02
                -1.41167552D-02 3.70230685D-02 6.74604366D-02
                -3.22578217D-02 7.10215318D-02 2.12285470D-03
                 7.08832291D-02-9.97800738D-02 4.10814689D-02
                 2.21411169D-03 4.10486426D-02 1.27765616D-01
                 1.21803420D-02 9.52812527D-02-6.54590509D-03
                 4.46950915D-02-7.78849313D-02 4.02858037D-02
                 3.64654401D-03 3.53345087D-02 1.34509273D-01
                -1.18358221D-01-3.43455469D-03 2.75025986D-02
                 2.84750380D-02 5.00989884D-02 1.82405450D-02
                 2.08530183D-02 2.13195553D-02 1.47085366D-01
 Full mass-weighted force constant matrix:
 Low frequencies ---  -15.6359   -0.0006   -0.0006   -0.0004    7.7289   19.7847
 Low frequencies ---  201.7982  426.6492  590.6131
 Dipole derivatives wrt mode   1:  5.82470D-02  1.37652D-01  6.66485D-01
 Vibrational polarizability contributions from mode   1       0.0022431       0.0125276       0.2936875
 Vibrational hyperpolarizability contributions from mode   1       0.0000000       0.0000000       0.0000000
 Dipole derivatives wrt mode   2: -8.61088D-01 -4.94585D-01  1.65428D-01
 Vibrational polarizability contributions from mode   2       0.1096235       0.0361651       0.0040460
 Vibrational hyperpolarizability contributions from mode   2       0.0000000       0.0000000       0.0000000
 Dipole derivatives wrt mode   3: -3.41972D-01 -7.11386D-01 -3.52010D+00
 Vibrational polarizability contributions from mode   3       0.0090221       0.0390425       0.9559545
 Vibrational hyperpolarizability contributions from mode   3       0.0000000       0.0000000       0.0000000
 Dipole derivatives wrt mode   4: -9.19043D-01 -1.33207D+00  3.67787D-01
 Vibrational polarizability contributions from mode   4       0.0266256       0.0559351       0.0042640
 Vibrational hyperpolarizability contributions from mode   4       0.0000000       0.0000000       0.0000000
 Dipole derivatives wrt mode   5: -6.62063D-01 -1.36274D+00 -6.57233D+00
 Vibrational polarizability contributions from mode   5       0.0133346       0.0564946       1.3140693
 Vibrational hyperpolarizability contributions from mode   5       0.0000000       0.0000000       0.0000000
 Dipole derivatives wrt mode   6:  1.07287D+00  1.58392D+00 -5.41069D-01
 Vibrational polarizability contributions from mode   6       0.0344306       0.0750444       0.0087571
 Vibrational hyperpolarizability contributions from mode   6       0.0000000       0.0000000       0.0000000
 Dipole derivatives wrt mode   7: -3.36626D-01 -6.94394D-01 -3.43234D+00
 Vibrational polarizability contributions from mode   7       0.0028799       0.0122547       0.2994113
 Vibrational hyperpolarizability contributions from mode   7       0.0000000       0.0000000       0.0000000
 Dipole derivatives wrt mode   8:  1.37565D-01  2.72433D-01  1.27504D+00
 Vibrational polarizability contributions from mode   8       0.0004443       0.0017423       0.0381647
 Vibrational hyperpolarizability contributions from mode   8       0.0000000       0.0000000       0.0000000
 Dipole derivatives wrt mode   9:  6.55266D-01 -5.56269D-02 -5.40471D-02
 Vibrational polarizability contributions from mode   9       0.0081708       0.0000589       0.0000556
 Vibrational hyperpolarizability contributions from mode   9       0.0000000       0.0000000       0.0000000
 Dipole derivatives wrt mode  10: -1.60586D-01 -2.56525D-01  6.96937D-02
 Vibrational polarizability contributions from mode  10       0.0003941       0.0010058       0.0000742
 Vibrational hyperpolarizability contributions from mode  10       0.0000000       0.0000000       0.0000000
 Dipole derivatives wrt mode  11: -1.34809D+00  5.72912D-01  1.28837D-03
 Vibrational polarizability contributions from mode  11       0.0246431       0.0044508       0.0000000
 Vibrational hyperpolarizability contributions from mode  11       0.0000000       0.0000000       0.0000000
 Dipole derivatives wrt mode  12: -8.15777D-01  3.58357D-01 -2.03361D-02
 Vibrational polarizability contributions from mode  12       0.0085333       0.0016467       0.0000053
 Vibrational hyperpolarizability contributions from mode  12       0.0000000       0.0000000       0.0000000
 Dipole derivatives wrt mode  13:  2.36641D-01  4.35366D-01  2.80419D+00
 Vibrational polarizability contributions from mode  13       0.0006873       0.0023264       0.0965146
 Vibrational hyperpolarizability contributions from mode  13       0.0000000       0.0000000       0.0000000
 Dipole derivatives wrt mode  14: -5.21221D-01 -3.75233D+00  7.09572D-01
 Vibrational polarizability contributions from mode  14       0.0032713       0.1695427       0.0060627
 Vibrational hyperpolarizability contributions from mode  14       0.0000000       0.0000000       0.0000000
 Dipole derivatives wrt mode  15:  3.13072D+00  1.75387D+00 -6.65860D-01
 Vibrational polarizability contributions from mode  15       0.0899087       0.0282169       0.0040670
 Vibrational hyperpolarizability contributions from mode  15       0.0000000       0.0000000       0.0000000
 Dipole derivatives wrt mode  16:  4.86757D+00  1.32190D+00 -7.80818D-01
 Vibrational polarizability contributions from mode  16       0.0702415       0.0051805       0.0018075
 Vibrational hyperpolarizability contributions from mode  16       0.0000000       0.0000000       0.0000000
 Dipole derivatives wrt mode  17:  5.19183D-01  9.97664D-01  4.92138D+00
 Vibrational polarizability contributions from mode  17       0.0007764       0.0028671       0.0697659
 Vibrational hyperpolarizability contributions from mode  17       0.0000000       0.0000000       0.0000000
 Dipole derivatives wrt mode  18:  3.05152D-01 -3.23822D+00  6.17023D-01
 Vibrational polarizability contributions from mode  18       0.0002621       0.0295197       0.0010718
 Vibrational hyperpolarizability contributions from mode  18       0.0000000       0.0000000       0.0000000
 Dipole derivatives wrt mode  19: -1.04408D+00  5.71289D+00 -1.05809D+00
 Vibrational polarizability contributions from mode  19       0.0030138       0.0902323       0.0030952
 Vibrational hyperpolarizability contributions from mode  19       0.0000000       0.0000000       0.0000000
 Dipole derivatives wrt mode  20:  2.06705D+00 -1.02143D+00  5.89165D-03
 Vibrational polarizability contributions from mode  20       0.0117581       0.0028712       0.0000001
 Vibrational hyperpolarizability contributions from mode  20       0.0000000       0.0000000       0.0000000
 Dipole derivatives wrt mode  21:  3.90769D+00 -2.66695D+00  1.55271D-01
 Vibrational polarizability contributions from mode  21       0.0399432       0.0186051       0.0000631
 Vibrational hyperpolarizability contributions from mode  21       0.0000000       0.0000000       0.0000000
 Diagonal vibrational polarizability:
        0.4602075       0.6457302       3.1009375
 Harmonic frequencies (cm**-1), IR intensities (KM/Mole), Raman scattering
 activities (A**4/AMU), depolarization ratios for plane and unpolarized
 incident light, reduced masses (AMU), force constants (mDyne/A),
 and normal coordinates:
                           1         2         3         4         5
                           A         A         A         A         A
       Frequencies ---   201.7503  426.6406  590.6129  923.9583  940.5385
    Reduced masses ---     1.1598    1.9526    1.1961    2.4743    1.3264
   Force constants ---     0.0278    0.2094    0.2458    1.2445    0.6913
    IR Intensities ---     0.4665    1.0135   13.0141    2.7543   45.4909
 Coord Atom Element:
   1     1     6          0.00080  -0.10045  -0.00030   0.26456  -0.00066
   2     1     6          0.00171  -0.10563  -0.00114   0.04639  -0.00086
   3     1     6          0.01046   0.03143  -0.00711  -0.03543  -0.01231
   1     2     6         -0.00961  -0.08325   0.01236  -0.15883  -0.00401
   2     2     6         -0.01836   0.17207   0.02477   0.05603  -0.00767
   3     2     6         -0.09359  -0.02560   0.12381   0.00448  -0.03841
   1     3     6          0.00704   0.16193  -0.00346  -0.16930   0.01637
   2     3     6          0.01333   0.00304  -0.00626  -0.04774   0.03178
   3     3     6          0.06558  -0.01716  -0.03053   0.02605   0.16125
   1     4     1          0.11652   0.07500  -0.29998   0.41404   0.05989
   2     4     1          0.51405  -0.26133   0.02102  -0.10786   0.00349
   3     4     1          0.21584   0.03664  -0.09633  -0.03717   0.00886
   1     5     1         -0.05268   0.08070   0.27535   0.41838  -0.04630
   2     5     1         -0.38497  -0.25224  -0.06656  -0.09904  -0.00388
   3     5     1          0.41827   0.04689  -0.13508  -0.00344   0.02235
   1     6     1         -0.04841  -0.44391  -0.02047   0.08174  -0.00598
   2     6     1         -0.09624  -0.22889  -0.04487  -0.02714   0.00362
   3     6     1         -0.45984   0.09160  -0.22149  -0.00332   0.02720
   1     7     1         -0.02369  -0.11428  -0.03420  -0.17297  -0.00835
   2     7     1         -0.04718   0.15231  -0.07196   0.05695  -0.00697
   3     7     1         -0.23465  -0.01982  -0.35213   0.00499  -0.02069
   1     8     1          0.02438   0.52611   0.03976   0.22997  -0.07341
   2     8     1          0.04619   0.14430   0.08383   0.09784  -0.14220
   3     8     1          0.22370  -0.08177   0.41360  -0.04231  -0.68005
   1     9     1          0.00493   0.13557  -0.06283  -0.21422  -0.06522
   2     9     1          0.00765  -0.38145  -0.12828  -0.57186  -0.13086
   3     9     1          0.04555   0.06141  -0.63463   0.13963  -0.67371
                           6         7         8         9        10
                           A         A         A         A         A
       Frequencies ---   948.5072 1029.0162 1070.6797 1189.1907 1326.9327
    Reduced masses ---     1.1501    1.0516    1.5482    1.8084    1.2401
   Force constants ---     0.6096    0.6561    1.0457    1.5068    1.2865
    IR Intensities ---     3.9526   12.3764    1.7189    0.4354    0.0965
 Coord Atom Element:
   1     1     6         -0.01465   0.00473   0.01480  -0.07435  -0.01434
   2     1     6         -0.08601   0.01003   0.02969   0.13243   0.02284
   3     1     6          0.01869   0.04838   0.14656  -0.01943  -0.00305
   1     2     6          0.00711   0.00382  -0.01544   0.15424  -0.03676
   2     2     6         -0.00841   0.00748  -0.03192  -0.12100   0.07767
   3     2     6          0.00048   0.03726  -0.15682   0.00935  -0.01237
   1     3     6         -0.04357  -0.00074   0.00254  -0.09630   0.01121
   2     3     6          0.05424  -0.00169   0.00547   0.03990  -0.11077
   3     3     6         -0.00422  -0.00779   0.02638   0.00132   0.02147
   1     4     1         -0.26863  -0.22036  -0.56873   0.09951   0.06401
   2     4     1          0.20307  -0.00544  -0.10095  -0.19040  -0.00601
   3     4     1          0.02845  -0.02988  -0.09299  -0.06319   0.00641
   1     5     1         -0.28016   0.20949   0.53227   0.11699   0.06191
   2     5     1          0.18474  -0.01475   0.03656  -0.15125  -0.00961
   3     5     1         -0.05254  -0.07047  -0.23047   0.11121  -0.01599
   1     6     1          0.48318  -0.00750  -0.02889  -0.60363  -0.04127
   2     6     1          0.09841  -0.01423  -0.06314  -0.06414   0.01531
   3     6     1         -0.06634  -0.06841  -0.30612   0.07025  -0.00027
   1     7     1          0.36313  -0.06747   0.03894   0.40118   0.74348
   2     7     1          0.15158  -0.14065   0.08195  -0.01062   0.43138
   3     7     1         -0.06808  -0.69141   0.40421  -0.03629  -0.16009
   1     8     1          0.38163  -0.04629   0.00169   0.30156  -0.35584
   2     8     1          0.21460  -0.09457   0.00281   0.18172  -0.25903
   3     8     1         -0.09242  -0.46276   0.01251  -0.06614   0.08825
   1     9     1         -0.07050   0.03904   0.00201  -0.12016   0.00273
   2     9     1         -0.37405   0.08124   0.00412  -0.37643  -0.04987
   3     9     1          0.07302   0.39597   0.02104   0.08844   0.00966
                          11        12        13        14        15
                           A         A         A         A         A
       Frequencies ---  1408.7618 1448.7069 1480.7367 1494.9565 1712.8110
    Reduced masses ---     1.2119    1.2048    1.0444    1.0572    4.4853
   Force constants ---     1.4170    1.4898    1.3492    1.3921    7.7529
    IR Intensities ---     2.1456    0.7943    8.1090   14.8552   13.3208
 Coord Atom Element:
   1     1     6          0.13107   0.05533  -0.00495  -0.02425  -0.05091
   2     1     6         -0.01037   0.03729  -0.00860   0.04424  -0.02552
   3     1     6         -0.01080  -0.01246  -0.05341  -0.00457   0.01020
   1     2     6          0.01213  -0.09679  -0.00220   0.01360   0.29766
   2     2     6          0.03069  -0.04741  -0.00364   0.01428   0.28563
   3     2     6         -0.00715   0.01941  -0.01896  -0.00360  -0.08742
   1     3     6          0.00432   0.00009   0.00075   0.02200  -0.22403
   2     3     6          0.00097  -0.03560   0.00068   0.03116  -0.28060
   3     3     6         -0.00067   0.00722   0.00027  -0.00845   0.07915
   1     4     1         -0.52895  -0.16449  -0.31345  -0.13449  -0.14951
   2     4     1          0.06951  -0.23051   0.36442  -0.53120  -0.08425
   3     4     1         -0.17252  -0.15687  -0.00805  -0.21331  -0.04308
   1     5     1         -0.49528  -0.13115   0.30767  -0.09467  -0.13684
   2     5     1          0.15707  -0.13423  -0.38226  -0.37178  -0.05418
   3     5     1          0.22714   0.26025   0.11723   0.41882   0.10024
   1     6     1         -0.45459  -0.01706   0.07972   0.40161   0.17634
   2     6     1         -0.20417  -0.00121   0.14857   0.17179   0.05860
   3     6     1          0.08373  -0.00725   0.69311  -0.10357  -0.03009
   1     7     1         -0.06464   0.24636   0.00472  -0.07547  -0.41527
   2     7     1          0.00276   0.10643   0.00957  -0.02557   0.01797
   3     7     1          0.00577  -0.04625   0.04336   0.01043   0.03692
   1     8     1         -0.19522   0.49517  -0.00249  -0.22800   0.47407
   2     8     1         -0.08603   0.17580   0.00150  -0.06893  -0.05622
   3     8     1          0.03659  -0.08473   0.01297   0.03584  -0.03515
   1     9     1         -0.01780   0.06377   0.00015  -0.00404  -0.21932
   2     9     1         -0.19254   0.62814  -0.00422  -0.24221   0.36211
   3     9     1          0.04096  -0.13386  -0.00017   0.04967  -0.05187
                          16        17        18        19        20
                           A         A         A         A         A
       Frequencies ---  3012.8822 3056.5546 3091.8442 3119.9067 3127.1511
    Reduced masses ---     1.0367    1.0992    1.0983    1.0703    1.0811
   Force constants ---     5.5445    6.0506    6.1859    6.1380    6.2291
    IR Intensities ---    26.0504   25.4849   10.9599   34.8468    5.3161
 Coord Atom Element:
   1     1     6          0.04849   0.00916   0.00920  -0.00175  -0.00065
   2     1     6          0.01429   0.01796  -0.08496   0.02373  -0.01528
   3     1     6         -0.00828   0.08892   0.01611  -0.00463   0.00317
   1     2     6          0.00043   0.00003  -0.01139  -0.02637   0.01591
   2     2     6         -0.00134   0.00016   0.02277   0.05101  -0.05293
   3     2     6          0.00024   0.00061  -0.00352  -0.00779   0.00922
   1     3     6          0.00019   0.00001   0.00236   0.02506   0.01676
   2     3     6          0.00051   0.00003   0.00153   0.03206   0.05336
   3     3     6         -0.00013   0.00016  -0.00055  -0.00898  -0.01251
   1     4     1         -0.16759   0.20106   0.07708  -0.02381   0.02170
   2     4     1         -0.18438   0.21941   0.06438  -0.01883   0.01653
   3     4     1          0.58877  -0.63578  -0.25770   0.07382  -0.05968
   1     5     1         -0.26496  -0.31021   0.12502  -0.03714   0.03215
   2     5     1         -0.38928  -0.44596   0.16193  -0.04629   0.03813
   3     5     1         -0.42126  -0.45088   0.19697  -0.05549   0.04353
   1     6     1         -0.14343  -0.00053  -0.30025   0.08481  -0.04748
   2     6     1          0.40412   0.01096   0.79144  -0.21761   0.12625
   3     6     1         -0.06930   0.01921  -0.13347   0.03654  -0.02129
   1     7     1         -0.00530   0.00008   0.13049   0.29958  -0.26002
   2     7     1          0.01944  -0.00074  -0.27950  -0.62420   0.55049
   3     7     1         -0.00340  -0.00119   0.04414   0.09758  -0.08644
   1     8     1          0.00686   0.00010   0.01441   0.18277   0.25821
   2     8     1         -0.01288   0.00021  -0.02309  -0.41712  -0.60013
   3     8     1          0.00192   0.00084   0.00327   0.06685   0.09661
   1     9     1         -0.01030  -0.00006  -0.04869  -0.46978  -0.38575
   2     9     1          0.00269   0.00000   0.00716   0.05245   0.04561
   3     9     1          0.00048  -0.00014   0.00334   0.03554   0.02868
                          21
                           A
       Frequencies ---  3207.4857
    Reduced masses ---     1.1149
   Force constants ---     6.7580
    IR Intensities ---    22.4067
 Coord Atom Element:
   1     1     6         -0.00055
   2     1     6         -0.00176
   3     1     6          0.00042
   1     2     6          0.00508
   2     2     6         -0.01253
   3     2     6          0.00205
   1     3     6          0.08460
   2     3     6         -0.04889
   3     3     6          0.00162
   1     4     1          0.00266
   2     4     1          0.00280
   3     4     1         -0.00663
   1     5     1          0.00379
   2     5     1          0.00518
   3     5     1          0.00442
   1     6     1         -0.00954
   2     6     1          0.01575
   3     6     1         -0.00236
   1     7     1         -0.05668
   2     7     1          0.12090
   3     7     1         -0.01903
   1     8     1         -0.21683
   2     8     1          0.54070
   3     8     1         -0.08863
   1     9     1         -0.78476
   2     9     1          0.06696
   3     9     1          0.06359
 Harmonic frequencies (cm**-1), IR intensities (KM/Mole), Raman scattering
 activities (A**4/AMU), depolarization ratios for plane and unpolarized
 incident light, reduced masses (AMU), force constants (mDyne/A),
 and normal coordinates:
                     1                      2                      3
                     A                      A                      A
 Frequencies --   201.7503               426.6406               590.6129
 Red. masses --     1.1598                 1.9526                 1.1961
 Frc consts  --     0.0278                 0.2094                 0.2458
 IR Inten    --     0.4665                 1.0135                13.0141
 Atom AN      X      Y      Z        X      Y      Z        X      Y      Z
   1   6     0.00   0.00   0.01    -0.10  -0.11   0.03     0.00   0.00  -0.01
   2   6    -0.01  -0.02  -0.09    -0.08   0.17  -0.03     0.01   0.02   0.12
   3   6     0.01   0.01   0.07     0.16   0.00  -0.02     0.00  -0.01  -0.03
   4   1     0.12   0.51   0.22     0.07  -0.26   0.04    -0.30   0.02  -0.10
   5   1    -0.05  -0.38   0.42     0.08  -0.25   0.05     0.28  -0.07  -0.14
   6   1    -0.05  -0.10  -0.46    -0.44  -0.23   0.09    -0.02  -0.04  -0.22
   7   1    -0.02  -0.05  -0.23    -0.11   0.15  -0.02    -0.03  -0.07  -0.35
   8   1     0.02   0.05   0.22     0.53   0.14  -0.08     0.04   0.08   0.41
   9   1     0.00   0.01   0.05     0.14  -0.38   0.06    -0.06  -0.13  -0.63
                     4                      5                      6
                     A                      A                      A
 Frequencies --   923.9583               940.5385               948.5072
 Red. masses --     2.4743                 1.3264                 1.1501
 Frc consts  --     1.2445                 0.6913                 0.6096
 IR Inten    --     2.7543                45.4909                 3.9526
 Atom AN      X      Y      Z        X      Y      Z        X      Y      Z
   1   6     0.26   0.05  -0.04     0.00   0.00  -0.01    -0.01  -0.09   0.02
   2   6    -0.16   0.06   0.00     0.00  -0.01  -0.04     0.01  -0.01   0.00
   3   6    -0.17  -0.05   0.03     0.02   0.03   0.16    -0.04   0.05   0.00
   4   1     0.41  -0.11  -0.04     0.06   0.00   0.01    -0.27   0.20   0.03
   5   1     0.42  -0.10   0.00    -0.05   0.00   0.02    -0.28   0.18  -0.05
   6   1     0.08  -0.03   0.00    -0.01   0.00   0.03     0.48   0.10  -0.07
   7   1    -0.17   0.06   0.00    -0.01  -0.01  -0.02     0.36   0.15  -0.07
   8   1     0.23   0.10  -0.04    -0.07  -0.14  -0.68     0.38   0.21  -0.09
   9   1    -0.21  -0.57   0.14    -0.07  -0.13  -0.67    -0.07  -0.37   0.07
                     7                      8                      9
                     A                      A                      A
 Frequencies --  1029.0162              1070.6797              1189.1907
 Red. masses --     1.0516                 1.5482                 1.8084
 Frc consts  --     0.6561                 1.0457                 1.5068
 IR Inten    --    12.3764                 1.7189                 0.4354
 Atom AN      X      Y      Z        X      Y      Z        X      Y      Z
   1   6     0.00   0.01   0.05     0.01   0.03   0.15    -0.07   0.13  -0.02
   2   6     0.00   0.01   0.04    -0.02  -0.03  -0.16     0.15  -0.12   0.01
   3   6     0.00   0.00  -0.01     0.00   0.01   0.03    -0.10   0.04   0.00
   4   1    -0.22  -0.01  -0.03    -0.57  -0.10  -0.09     0.10  -0.19  -0.06
   5   1     0.21  -0.01  -0.07     0.53   0.04  -0.23     0.12  -0.15   0.11
   6   1    -0.01  -0.01  -0.07    -0.03  -0.06  -0.31    -0.60  -0.06   0.07
   7   1    -0.07  -0.14  -0.69     0.04   0.08   0.40     0.40  -0.01  -0.04
   8   1    -0.05  -0.09  -0.46     0.00   0.00   0.01     0.30   0.18  -0.07
   9   1     0.04   0.08   0.40     0.00   0.00   0.02    -0.12  -0.38   0.09
                    10                     11                     12
                     A                      A                      A
 Frequencies --  1326.9327              1408.7618              1448.7069
 Red. masses --     1.2401                 1.2119                 1.2048
 Frc consts  --     1.2865                 1.4170                 1.4898
 IR Inten    --     0.0965                 2.1456                 0.7943
 Atom AN      X      Y      Z        X      Y      Z        X      Y      Z
   1   6    -0.01   0.02   0.00     0.13  -0.01  -0.01     0.06   0.04  -0.01
   2   6    -0.04   0.08  -0.01     0.01   0.03  -0.01    -0.10  -0.05   0.02
   3   6     0.01  -0.11   0.02     0.00   0.00   0.00     0.00  -0.04   0.01
   4   1     0.06  -0.01   0.01    -0.53   0.07  -0.17    -0.16  -0.23  -0.16
   5   1     0.06  -0.01  -0.02    -0.50   0.16   0.23    -0.13  -0.13   0.26
   6   1    -0.04   0.02   0.00    -0.45  -0.20   0.08    -0.02   0.00  -0.01
   7   1     0.74   0.43  -0.16    -0.06   0.00   0.01     0.25   0.11  -0.05
   8   1    -0.36  -0.26   0.09    -0.20  -0.09   0.04     0.50   0.18  -0.08
   9   1     0.00  -0.05   0.01    -0.02  -0.19   0.04     0.06   0.63  -0.13
                    13                     14                     15
                     A                      A                      A
 Frequencies --  1480.7367              1494.9565              1712.8110
 Red. masses --     1.0444                 1.0572                 4.4853
 Frc consts  --     1.3492                 1.3921                 7.7529
 IR Inten    --     8.1090                14.8552                13.3208
 Atom AN      X      Y      Z        X      Y      Z        X      Y      Z
   1   6     0.00  -0.01  -0.05    -0.02   0.04   0.00    -0.05  -0.03   0.01
   2   6     0.00   0.00  -0.02     0.01   0.01   0.00     0.30   0.29  -0.09
   3   6     0.00   0.00   0.00     0.02   0.03  -0.01    -0.22  -0.28   0.08
   4   1    -0.31   0.36  -0.01    -0.13  -0.53  -0.21    -0.15  -0.08  -0.04
   5   1     0.31  -0.38   0.12    -0.09  -0.37   0.42    -0.14  -0.05   0.10
   6   1     0.08   0.15   0.69     0.40   0.17  -0.10     0.18   0.06  -0.03
   7   1     0.00   0.01   0.04    -0.08  -0.03   0.01    -0.42   0.02   0.04
   8   1     0.00   0.00   0.01    -0.23  -0.07   0.04     0.47  -0.06  -0.04
   9   1     0.00   0.00   0.00     0.00  -0.24   0.05    -0.22   0.36  -0.05
                    16                     17                     18
                     A                      A                      A
 Frequencies --  3012.8822              3056.5546              3091.8442
 Red. masses --     1.0367                 1.0992                 1.0983
 Frc consts  --     5.5445                 6.0506                 6.1859
 IR Inten    --    26.0504                25.4849                10.9599
 Atom AN      X      Y      Z        X      Y      Z        X      Y      Z
   1   6     0.05   0.01  -0.01     0.01   0.02   0.09     0.01  -0.08   0.02
   2   6     0.00   0.00   0.00     0.00   0.00   0.00    -0.01   0.02   0.00
   3   6     0.00   0.00   0.00     0.00   0.00   0.00     0.00   0.00   0.00
   4   1    -0.17  -0.18   0.59     0.20   0.22  -0.64     0.08   0.06  -0.26
   5   1    -0.26  -0.39  -0.42    -0.31  -0.45  -0.45     0.13   0.16   0.20
   6   1    -0.14   0.40  -0.07     0.00   0.01   0.02    -0.30   0.79  -0.13
   7   1    -0.01   0.02   0.00     0.00   0.00   0.00     0.13  -0.28   0.04
   8   1     0.01  -0.01   0.00     0.00   0.00   0.00     0.01  -0.02   0.00
   9   1    -0.01   0.00   0.00     0.00   0.00   0.00    -0.05   0.01   0.00
                    19                     20                     21
                     A                      A                      A
 Frequencies --  3119.9067              3127.1511              3207.4857
 Red. masses --     1.0703                 1.0811                 1.1149
 Frc consts  --     6.1380                 6.2291                 6.7580
 IR Inten    --    34.8468                 5.3161                22.4067
 Atom AN      X      Y      Z        X      Y      Z        X      Y      Z
   1   6     0.00   0.02   0.00     0.00  -0.02   0.00     0.00   0.00   0.00
   2   6    -0.03   0.05  -0.01     0.02  -0.05   0.01     0.01  -0.01   0.00
   3   6     0.03   0.03  -0.01     0.02   0.05  -0.01     0.08  -0.05   0.00
   4   1    -0.02  -0.02   0.07     0.02   0.02  -0.06     0.00   0.00  -0.01
   5   1    -0.04  -0.05  -0.06     0.03   0.04   0.04     0.00   0.01   0.00
   6   1     0.08  -0.22   0.04    -0.05   0.13  -0.02    -0.01   0.02   0.00
   7   1     0.30  -0.62   0.10    -0.26   0.55  -0.09    -0.06   0.12  -0.02
   8   1     0.18  -0.42   0.07     0.26  -0.60   0.10    -0.22   0.54  -0.09
   9   1    -0.47   0.05   0.04    -0.39   0.05   0.03    -0.78   0.07   0.06

 -------------------
 - Thermochemistry -
 -------------------
 Temperature   298.150 Kelvin.  Pressure   1.00000 Atm.
 Atom  1 has atomic number  6 and mass  12.00000
 Atom  2 has atomic number  6 and mass  12.00000
 Atom  3 has atomic number  6 and mass  12.00000
 Atom  4 has atomic number  1 and mass   1.00783
 Atom  5 has atomic number  1 and mass   1.00783
 Atom  6 has atomic number  1 and mass   1.00783
 Atom  7 has atomic number  1 and mass   1.00783
 Atom  8 has atomic number  1 and mass   1.00783
 Atom  9 has atomic number  1 and mass   1.00783
 Molecular mass:    42.04695 amu.
 Principal axes and moments of inertia in atomic units:
                           1         2         3
     EIGENVALUES --    38.40335 194.44612 221.73762
           X            0.91045  -0.40224   0.09633
           Y            0.37844   0.90411   0.19843
           Z           -0.16691  -0.14421   0.97537
 This molecule is an asymmetric top.
 Rotational symmetry number  1.
 Rotational temperatures (Kelvin)      2.25537     0.44544     0.39061
 Rotational constants (GHZ):          46.99437     9.28145     8.13908
 Zero-point vibrational energy     208207.8 (Joules/Mol)
                                   49.76286 (Kcal/Mol)
 Warning -- explicit consideration of   3 degrees of freedom as
           vibrations may cause significant error
 Vibrational temperatures:    290.27   613.84   849.76  1329.37  1353.22
          (Kelvin)           1364.69  1480.52  1540.47  1710.98  1909.16
                             2026.89  2084.36  2130.45  2150.91  2464.35
                             4334.86  4397.69  4448.47  4488.84  4499.27
                             4614.85
 
 Zero-point correction=                           0.079302 (Hartree/Particle)
 Thermal correction to Energy=                    0.083397
 Thermal correction to Enthalpy=                  0.084341
 Thermal correction to Gibbs Free Energy=         0.054283
 Sum of electronic and zero-point Energies=           -117.864750
 Sum of electronic and thermal Energies=              -117.860655
 Sum of electronic and thermal Enthalpies=            -117.859711
 Sum of electronic and thermal Free Energies=         -117.889769
 
                     E (Thermal)             CV                S
                      KCal/Mol        Cal/Mol-Kelvin    Cal/Mol-Kelvin
 Total                   52.332             13.000             63.263
 Electronic               0.000              0.000              0.000
 Translational            0.889              2.981             37.136
 Rotational               0.889              2.981             22.031
 Vibrational             50.555              7.038              4.096
 Vibration  1             0.639              1.837              2.117
 Vibration  2             0.788              1.412              0.870
 Vibration  3             0.948              1.052              0.466
                       Q            Log10(Q)             Ln(Q)
 Total Bot       0.107576D-24        -24.968283        -57.491595
 Total V=0       0.322183D+12         11.508103         26.498385
 Vib (Bot)       0.689144D-36        -36.161690        -83.265368
 Vib (Bot)  1    0.987664D+00         -0.005391         -0.012413
 Vib (Bot)  2    0.409465D+00         -0.387783         -0.892904
 Vib (Bot)  3    0.255259D+00         -0.593018         -1.365475
 Vib (V=0)       0.206393D+01          0.314695          0.724613
 Vib (V=0)  1    0.160701D+01          0.206020          0.474378
 Vib (V=0)  2    0.114627D+01          0.059286          0.136511
 Vib (V=0)  3    0.106139D+01          0.025874          0.059578
 Electronic      0.100000D+01          0.000000          0.000000
 Translational   0.107166D+08          7.030057         16.187304
 Rotational      0.145663D+05          4.163350          9.586468
 -------------------------------------------------------------------
 Center     Atomic                   Forces (Hartrees/Bohr)
 Number     Number              X              Y              Z
 -------------------------------------------------------------------
    1          6           0.000012181   -0.000009204    0.000039132
    2          6           0.000029676    0.000102157   -0.000029707
    3          6          -0.000018580   -0.000082238    0.000011150
    4          1          -0.000007532   -0.000011108   -0.000006579
    5          1          -0.000018269    0.000005672   -0.000009334
    6          1           0.000005630    0.000000463   -0.000006961
    7          1          -0.000000542   -0.000012933    0.000001288
    8          1           0.000003021    0.000000485    0.000002297
    9          1          -0.000005585    0.000006706   -0.000001288
 -------------------------------------------------------------------
 Cartesian Forces:  Max     0.000102157 RMS     0.000028684
 ------------------------------------------------------------------------
           Internal Coordinate Forces (Hartree/Bohr or radian)
 Cent Atom N1     Length/X     N2     Alpha/Y      N3      Beta/Z       J
 ------------------------------------------------------------------------
   1  C         0.000012(   1)     -0.000009(  10)      0.000039(  19)
   2  C         0.000030(   2)      0.000102(  11)     -0.000030(  20)
   3  C        -0.000019(   3)     -0.000082(  12)      0.000011(  21)
   4  H        -0.000008(   4)     -0.000011(  13)     -0.000007(  22)
   5  H        -0.000018(   5)      0.000006(  14)     -0.000009(  23)
   6  H         0.000006(   6)      0.000000(  15)     -0.000007(  24)
   7  H        -0.000001(   7)     -0.000013(  16)      0.000001(  25)
   8  H         0.000003(   8)      0.000000(  17)      0.000002(  26)
   9  H        -0.000006(   9)      0.000007(  18)     -0.000001(  27)
 ------------------------------------------------------------------------
 Internal  Forces:  Max     0.000102157 RMS     0.000028684
 Force constants in Cartesian coordinates: 
                1             2             3             4             5
      1  0.482796D+00
      2 -0.630268D-02  0.570633D+00
      3  0.546114D-02 -0.879173D-02  0.525304D+00
      4 -0.217474D+00  0.142680D-01  0.114202D-01  0.627082D+00
      5  0.746791D-02 -0.886940D-01  0.260167D-02  0.105441D+00  0.758588D+00
      6  0.126567D-01  0.203288D-02 -0.738420D-01 -0.684348D-01 -0.134423D+00
      7 -0.244066D-01 -0.284722D-01  0.898282D-02 -0.257779D+00 -0.201148D+00
      8 -0.408141D-02  0.389204D-02  0.119000D-02 -0.200766D+00 -0.385917D+00
      9  0.400355D-02  0.361371D-02  0.660883D-02  0.612622D-01  0.880033D-01
     10 -0.629476D-01 -0.182491D-01  0.649823D-01 -0.115784D-01 -0.132532D-01
     11 -0.167665D-01 -0.684746D-01  0.697052D-01 -0.259083D-02 -0.862824D-03
     12  0.630485D-01  0.702962D-01 -0.258340D+00  0.183147D-02  0.937825D-03
     13 -0.913614D-01 -0.663998D-01 -0.738843D-01 -0.167660D-01 -0.238921D-01
     14 -0.642239D-01 -0.145127D+00 -0.104375D+00 -0.204307D-02  0.542719D-03
     15 -0.727299D-01 -0.104587D+00 -0.153605D+00  0.258069D-02  0.410665D-02
     16 -0.781895D-01  0.811772D-01 -0.136370D-01 -0.126991D-01  0.333458D-01
     17  0.839419D-01 -0.272029D+00  0.380303D-01  0.788848D-03 -0.101991D-02
     18 -0.140413D-01  0.382067D-01 -0.539037D-01  0.921056D-03 -0.317325D-02
     19 -0.112168D-01  0.279691D-01 -0.437288D-02 -0.105069D+00  0.104024D+00
     20 -0.116998D-02  0.125165D-02  0.361378D-03  0.998936D-01 -0.265999D+00
     21  0.157110D-02 -0.252213D-02  0.283736D-02 -0.141086D-01  0.355028D-01
     22  0.169045D-02 -0.180457D-02 -0.620422D-03  0.942090D-02 -0.170235D-01
     23  0.161587D-02  0.100865D-02 -0.203856D-02  0.125414D-01 -0.214868D-01
     24 -0.129229D-02 -0.174326D-02 -0.780961D-02 -0.288374D-02  0.727494D-02
     25  0.110987D-02 -0.218606D-02  0.166802D-02 -0.151373D-01  0.503797D-02
     26 -0.481261D-03 -0.246105D-02  0.331679D-02 -0.275327D-01  0.484960D-02
     27  0.132243D-02  0.349486D-02  0.127501D-01  0.741155D-02 -0.831256D-03
                6             7             8             9            10
      6  0.183871D+00
      7  0.613667D-01  0.706644D+00
      8  0.880339D-01  0.894113D-01  0.737971D+00
      9 -0.746204D-01 -0.774361D-01 -0.137577D+00  0.140638D+00
     10  0.318626D-01 -0.347725D-02  0.223728D-02 -0.374102D-03  0.715736D-01
     11 -0.137468D-02 -0.125512D-03  0.908531D-03  0.851072D-04  0.226971D-01
     12  0.514022D-03  0.154469D-04 -0.133444D-02  0.249114D-03 -0.709820D-01
     13 -0.207973D-01 -0.337935D-02  0.251624D-02  0.924132D-04  0.379077D-02
     14  0.320179D-02 -0.185573D-04  0.117092D-02 -0.485043D-03  0.480080D-02
     15  0.422593D-02  0.675913D-03  0.432228D-03 -0.138109D-03 -0.127507D-01
     16 -0.556878D-02  0.217560D-02  0.113713D-02 -0.485386D-03  0.254653D-02
     17 -0.658312D-04 -0.149488D-02  0.150244D-02 -0.267509D-03  0.221280D-02
     18 -0.288654D-03  0.170037D-04 -0.525163D-03 -0.397698D-03 -0.107367D-01
     19 -0.149414D-01  0.100419D-01 -0.188248D-01  0.348616D-02  0.785264D-03
     20  0.359011D-01  0.127201D-01 -0.220236D-01  0.455053D-02  0.518451D-03
     21 -0.471688D-01 -0.292608D-02  0.766330D-02  0.527066D-02 -0.878787D-03
     22  0.306869D-02 -0.993828D-01  0.100318D+00 -0.140744D-01  0.143319D-03
     23  0.431616D-02  0.960331D-01 -0.279103D+00  0.402329D-01  0.199827D-03
     24  0.468639D-02 -0.131950D-01  0.397841D-01 -0.416454D-01  0.119263D-02
     25  0.787600D-03 -0.330437D+00  0.280525D-01  0.235258D-01 -0.836319D-03
     26  0.237737D-02  0.330944D-01 -0.584010D-01  0.184381D-02 -0.116400D-02
     27  0.262257D-02  0.224992D-01  0.233285D-02 -0.359652D-01 -0.231528D-02
               11            12            13            14            15
     11  0.698224D-01
     12 -0.768225D-01  0.281993D+00
     13  0.599023D-02  0.524843D-02  0.102575D+00
     14  0.588137D-02  0.632278D-02  0.750728D-01  0.154237D+00
     15 -0.192387D-01 -0.210899D-01  0.789288D-01  0.115395D+00  0.166898D+00
     16 -0.874933D-02  0.218810D-03  0.470005D-02 -0.128539D-01  0.371085D-02
     17 -0.780024D-02  0.790581D-03  0.632349D-02 -0.172044D-01  0.390678D-02
     18  0.274736D-01 -0.345136D-02  0.843126D-02 -0.197995D-01  0.383414D-02
     19 -0.264219D-03  0.692201D-03  0.852082D-03 -0.548950D-03 -0.625368D-03
     20  0.193863D-03 -0.141536D-03  0.817098D-03  0.259072D-03  0.191759D-04
     21 -0.169496D-04  0.280969D-03  0.510909D-03  0.105779D-03  0.216497D-03
     22  0.144214D-03 -0.944896D-04 -0.776352D-04  0.374746D-04  0.549706D-04
     23  0.332285D-03 -0.132835D-03 -0.262551D-03  0.102726D-03  0.622438D-04
     24  0.597908D-03 -0.187812D-03 -0.116755D-02 -0.683181D-03  0.272082D-03
     25 -0.335190D-03  0.215861D-04 -0.333163D-03 -0.222786D-03  0.154795D-03
     26  0.000000D+00  0.839110D-04 -0.165482D-03  0.137676D-03 -0.963100D-04
     27 -0.408961D-03  0.327735D-04  0.263735D-02  0.317241D-03 -0.613988D-03
               16            17            18            19            20
     16  0.867304D-01
     17 -0.919793D-01  0.294422D+00
     18  0.146722D-01 -0.423258D-01  0.524409D-01
     19 -0.587097D-02 -0.418328D-03  0.855395D-03  0.110499D+00
     20 -0.511793D-03  0.134949D-02  0.153856D-03 -0.108761D+00  0.285841D+00
     21  0.862553D-03  0.150632D-03  0.173551D-02  0.138665D-01 -0.421673D-01
     22  0.765955D-04  0.659751D-03 -0.526204D-04 -0.107357D-02 -0.292622D-02
     23 -0.127871D-02  0.509076D-03  0.584401D-04 -0.304112D-02 -0.177720D-02
     24  0.237638D-03 -0.123300D-03  0.210761D-03  0.189032D-02  0.305397D-02
     25  0.530424D-03 -0.342971D-04 -0.663960D-04  0.105245D-02 -0.580194D-03
     26 -0.287105D-03  0.270964D-03 -0.688712D-04 -0.134612D-03  0.904381D-03
     27 -0.109534D-04 -0.958608D-04 -0.179866D-03 -0.850884D-03 -0.173112D-02
               21            22            23            24            25
     21  0.332574D-01
     22  0.186960D-02  0.962814D-01
     23  0.306272D-02 -0.104574D+00  0.300166D+00
     24  0.110095D-01  0.140894D-01 -0.460043D-01  0.313182D-01
     25 -0.767179D-03 -0.707865D-02 -0.123400D-02  0.112859D-02  0.351129D+00
     26 -0.177886D-02  0.251688D-01  0.248591D-03 -0.215690D-02 -0.284979D-01
     27 -0.743912D-02 -0.424066D-02  0.443187D-03  0.214581D-02 -0.264528D-01
               26            27
     26  0.544517D-01
     27 -0.352094D-02  0.266469D-01
 FCInt: Cartesian first derivatives: 
               1            2            3            4            5
      1 0.121811D-04 0.296757D-04-0.185797D-04-0.753238D-05-0.182695D-04
      2-0.920424D-05 0.102157D-03-0.822376D-04-0.111085D-04 0.567234D-05
      3 0.391318D-04-0.297068D-04 0.111502D-04-0.657855D-05-0.933361D-05
               6            7            8            9
      1 0.563022D-05 0.000000D+00 0.302144D-05-0.558531D-05
      2 0.000000D+00-0.129329D-04 0.000000D+00 0.670643D-05
      3-0.696055D-05 0.128848D-05 0.229666D-05-0.128760D-05
 FCInt: Cartesian force constants: 
                1             2             3             4             5
      1  0.482796D+00
      2 -0.630268D-02  0.570633D+00
      3  0.546114D-02 -0.879173D-02  0.525304D+00
      4 -0.217474D+00  0.142680D-01  0.114202D-01  0.627082D+00
      5  0.746791D-02 -0.886940D-01  0.260167D-02  0.105441D+00  0.758588D+00
      6  0.126567D-01  0.203288D-02 -0.738420D-01 -0.684348D-01 -0.134423D+00
      7 -0.244066D-01 -0.284722D-01  0.898282D-02 -0.257779D+00 -0.201148D+00
      8 -0.408141D-02  0.389204D-02  0.119000D-02 -0.200766D+00 -0.385917D+00
      9  0.400355D-02  0.361371D-02  0.660883D-02  0.612622D-01  0.880033D-01
     10 -0.629476D-01 -0.182491D-01  0.649823D-01 -0.115784D-01 -0.132532D-01
     11 -0.167665D-01 -0.684746D-01  0.697052D-01 -0.259083D-02 -0.862824D-03
     12  0.630485D-01  0.702962D-01 -0.258340D+00  0.183147D-02  0.937825D-03
     13 -0.913614D-01 -0.663998D-01 -0.738843D-01 -0.167660D-01 -0.238921D-01
     14 -0.642239D-01 -0.145127D+00 -0.104375D+00 -0.204307D-02  0.542719D-03
     15 -0.727299D-01 -0.104587D+00 -0.153605D+00  0.258069D-02  0.410665D-02
     16 -0.781895D-01  0.811772D-01 -0.136370D-01 -0.126991D-01  0.333458D-01
     17  0.839419D-01 -0.272029D+00  0.380303D-01  0.788848D-03 -0.101991D-02
     18 -0.140413D-01  0.382067D-01 -0.539037D-01  0.921056D-03 -0.317325D-02
     19 -0.112168D-01  0.279691D-01 -0.437288D-02 -0.105069D+00  0.104024D+00
     20 -0.116998D-02  0.125165D-02  0.361378D-03  0.998936D-01 -0.265999D+00
     21  0.157110D-02 -0.252213D-02  0.283736D-02 -0.141086D-01  0.355028D-01
     22  0.169045D-02 -0.180457D-02 -0.620422D-03  0.942090D-02 -0.170235D-01
     23  0.161587D-02  0.100865D-02 -0.203856D-02  0.125414D-01 -0.214868D-01
     24 -0.129229D-02 -0.174326D-02 -0.780961D-02 -0.288374D-02  0.727494D-02
     25  0.110987D-02 -0.218606D-02  0.166802D-02 -0.151373D-01  0.503797D-02
     26 -0.481261D-03 -0.246105D-02  0.331679D-02 -0.275327D-01  0.484960D-02
     27  0.132243D-02  0.349486D-02  0.127501D-01  0.741155D-02 -0.831256D-03
                6             7             8             9            10
      6  0.183871D+00
      7  0.613667D-01  0.706644D+00
      8  0.880339D-01  0.894113D-01  0.737971D+00
      9 -0.746204D-01 -0.774361D-01 -0.137577D+00  0.140638D+00
     10  0.318626D-01 -0.347725D-02  0.223728D-02 -0.374102D-03  0.715736D-01
     11 -0.137468D-02 -0.125512D-03  0.908531D-03  0.851072D-04  0.226971D-01
     12  0.514022D-03  0.154469D-04 -0.133444D-02  0.249114D-03 -0.709820D-01
     13 -0.207973D-01 -0.337935D-02  0.251624D-02  0.924132D-04  0.379077D-02
     14  0.320179D-02 -0.185573D-04  0.117092D-02 -0.485043D-03  0.480080D-02
     15  0.422593D-02  0.675913D-03  0.432228D-03 -0.138109D-03 -0.127507D-01
     16 -0.556878D-02  0.217560D-02  0.113713D-02 -0.485386D-03  0.254653D-02
     17 -0.658312D-04 -0.149488D-02  0.150244D-02 -0.267509D-03  0.221280D-02
     18 -0.288654D-03  0.170037D-04 -0.525163D-03 -0.397698D-03 -0.107367D-01
     19 -0.149414D-01  0.100419D-01 -0.188248D-01  0.348616D-02  0.785264D-03
     20  0.359011D-01  0.127201D-01 -0.220236D-01  0.455053D-02  0.518451D-03
     21 -0.471688D-01 -0.292608D-02  0.766330D-02  0.527066D-02 -0.878787D-03
[...]
     22  0.218810D-03  0.692201D-03 -0.944896D-04  0.215861D-04  0.702962D-01
     23  0.371085D-02 -0.625368D-03  0.549706D-04  0.154795D-03 -0.104587D+00
     24  0.146722D-01  0.855395D-03 -0.526204D-04 -0.663960D-04  0.382067D-01
     25  0.862553D-03  0.138665D-01  0.186960D-02 -0.767179D-03 -0.252213D-02
     26  0.237638D-03  0.189032D-02  0.140894D-01  0.112859D-02 -0.174326D-02
     27 -0.109534D-04 -0.850884D-03 -0.424066D-02 -0.264528D-01  0.349486D-02
               11            12            13            14            15
     11  0.758588D+00
     12 -0.385917D+00  0.737971D+00
     13 -0.862824D-03  0.908531D-03  0.698224D-01
     14  0.542719D-03  0.117092D-02  0.588137D-02  0.154237D+00
     15 -0.101991D-02  0.150244D-02 -0.780024D-02 -0.172044D-01  0.294422D+00
     16 -0.265999D+00 -0.220236D-01  0.193863D-03  0.259072D-03  0.134949D-02
     17 -0.214868D-01 -0.279103D+00  0.332285D-03  0.102726D-03  0.509076D-03
     18  0.484960D-02 -0.584010D-01  0.000000D+00  0.137676D-03  0.270964D-03
     19  0.260167D-02  0.119000D-02  0.697052D-01 -0.104375D+00  0.380303D-01
     20 -0.134423D+00  0.880339D-01 -0.137468D-02  0.320179D-02 -0.658312D-04
     21  0.880033D-01 -0.137577D+00  0.851072D-04 -0.485043D-03 -0.267509D-03
     22  0.937825D-03 -0.133444D-02 -0.768225D-01  0.632278D-02  0.790581D-03
     23  0.410665D-02  0.432228D-03 -0.192387D-01  0.115395D+00  0.390678D-02
     24 -0.317325D-02 -0.525163D-03  0.274736D-01 -0.197995D-01 -0.423258D-01
     25  0.355028D-01  0.766330D-02 -0.169496D-04  0.105779D-03  0.150632D-03
     26  0.727494D-02  0.397841D-01  0.597908D-03 -0.683181D-03 -0.123300D-03
     27 -0.831256D-03  0.233285D-02 -0.408961D-03  0.317241D-03 -0.958608D-04
               16            17            18            19            20
     16  0.285841D+00
     17 -0.177720D-02  0.300166D+00
     18  0.904381D-03  0.248591D-03  0.544517D-01
     19  0.361378D-03 -0.203856D-02  0.331679D-02  0.525304D+00
     20  0.359011D-01  0.431616D-02  0.237737D-02 -0.738420D-01  0.183871D+00
     21  0.455053D-02  0.402329D-01  0.184381D-02  0.660883D-02 -0.746204D-01
     22 -0.141536D-03 -0.132835D-03  0.839110D-04 -0.258340D+00  0.514022D-03
     23  0.191759D-04  0.622438D-04 -0.963100D-04 -0.153605D+00  0.422593D-02
     24  0.153856D-03  0.584401D-04 -0.688712D-04 -0.539037D-01 -0.288654D-03
     25 -0.421673D-01  0.306272D-02 -0.177886D-02  0.283736D-02 -0.471688D-01
     26  0.305397D-02 -0.460043D-01 -0.215690D-02 -0.780961D-02  0.468639D-02
     27 -0.173112D-02  0.443187D-03 -0.352094D-02  0.127501D-01  0.262257D-02
               21            22            23            24            25
     21  0.140638D+00
     22  0.249114D-03  0.281993D+00
     23 -0.138109D-03 -0.210899D-01  0.166898D+00
     24 -0.397698D-03 -0.345136D-02  0.383414D-02  0.524409D-01
     25  0.527066D-02  0.280969D-03  0.216497D-03  0.173551D-02  0.332574D-01
     26 -0.416454D-01 -0.187812D-03  0.272082D-03  0.210761D-03  0.110095D-01
     27 -0.359652D-01  0.327735D-04 -0.613988D-03 -0.179866D-03 -0.743912D-02
               26            27
     26  0.313182D-01
     27  0.214581D-02  0.266469D-01
 Force constants in internal coordinates: 
                1             2             3             4             5
      1  0.482796D+00
      2 -0.217474D+00  0.627082D+00
      3 -0.244066D-01 -0.257779D+00  0.706644D+00
      4 -0.629476D-01 -0.115784D-01 -0.347725D-02  0.715736D-01
      5 -0.913614D-01 -0.167660D-01 -0.337935D-02  0.379077D-02  0.102575D+00
      6 -0.781895D-01 -0.126991D-01  0.217560D-02  0.254653D-02  0.470005D-02
      7 -0.112168D-01 -0.105069D+00  0.100419D-01  0.785264D-03  0.852082D-03
      8  0.169045D-02  0.942090D-02 -0.993828D-01  0.143319D-03 -0.776352D-04
      9  0.110987D-02 -0.151373D-01 -0.330437D+00 -0.836319D-03 -0.333163D-03
     10 -0.630268D-02  0.142680D-01 -0.284722D-01 -0.182491D-01 -0.663998D-01
     11  0.746791D-02  0.105441D+00 -0.201148D+00 -0.132532D-01 -0.238921D-01
     12 -0.408141D-02 -0.200766D+00  0.894113D-01  0.223728D-02  0.251624D-02
     13 -0.167665D-01 -0.259083D-02 -0.125512D-03  0.226971D-01  0.599023D-02
     14 -0.642239D-01 -0.204307D-02 -0.185573D-04  0.480080D-02  0.750728D-01
     15  0.839419D-01  0.788848D-03 -0.149488D-02  0.221280D-02  0.632349D-02
     16 -0.116998D-02  0.998936D-01  0.127201D-01  0.518451D-03  0.817098D-03
     17  0.161587D-02  0.125414D-01  0.960331D-01  0.199827D-03 -0.262551D-03
     18 -0.481261D-03 -0.275327D-01  0.330944D-01 -0.116400D-02 -0.165482D-03
     19  0.546114D-02  0.114202D-01  0.898282D-02  0.649823D-01 -0.738843D-01
     20  0.126567D-01 -0.684348D-01  0.613667D-01  0.318626D-01 -0.207973D-01
     21  0.400355D-02  0.612622D-01 -0.774361D-01 -0.374102D-03  0.924132D-04
     22  0.630485D-01  0.183147D-02  0.154469D-04 -0.709820D-01  0.524843D-02
     23 -0.727299D-01  0.258069D-02  0.675913D-03 -0.127507D-01  0.789288D-01
     24 -0.140413D-01  0.921056D-03  0.170037D-04 -0.107367D-01  0.843126D-02
     25  0.157110D-02 -0.141086D-01 -0.292608D-02 -0.878787D-03  0.510909D-03
     26 -0.129229D-02 -0.288374D-02 -0.131950D-01  0.119263D-02 -0.116755D-02
     27  0.132243D-02  0.741155D-02  0.224992D-01 -0.231528D-02  0.263735D-02
                6             7             8             9            10
      6  0.867304D-01
      7 -0.587097D-02  0.110499D+00
      8  0.765955D-04 -0.107357D-02  0.962814D-01
      9  0.530424D-03  0.105245D-02 -0.707865D-02  0.351129D+00
     10  0.811772D-01  0.279691D-01 -0.180457D-02 -0.218606D-02  0.570633D+00
     11  0.333458D-01  0.104024D+00 -0.170235D-01  0.503797D-02 -0.886940D-01
     12  0.113713D-02 -0.188248D-01  0.100318D+00  0.280525D-01  0.389204D-02
     13 -0.874933D-02 -0.264219D-03  0.144214D-03 -0.335190D-03 -0.684746D-01
     14 -0.128539D-01 -0.548950D-03  0.374746D-04 -0.222786D-03 -0.145127D+00
     15 -0.919793D-01 -0.418328D-03  0.659751D-03 -0.342971D-04 -0.272029D+00
     16 -0.511793D-03 -0.108761D+00 -0.292622D-02 -0.580194D-03  0.125165D-02
     17 -0.127871D-02 -0.304112D-02 -0.104574D+00 -0.123400D-02  0.100865D-02
     18 -0.287105D-03 -0.134612D-03  0.251688D-01 -0.284979D-01 -0.246105D-02
     19 -0.136370D-01 -0.437288D-02 -0.620422D-03  0.166802D-02 -0.879173D-02
     20 -0.556878D-02 -0.149414D-01  0.306869D-02  0.787600D-03  0.203288D-02
     21 -0.485386D-03  0.348616D-02 -0.140744D-01  0.235258D-01  0.361371D-02
     22  0.218810D-03  0.692201D-03 -0.944896D-04  0.215861D-04  0.702962D-01
     23  0.371085D-02 -0.625368D-03  0.549706D-04  0.154795D-03 -0.104587D+00
     24  0.146722D-01  0.855395D-03 -0.526204D-04 -0.663960D-04  0.382067D-01
     25  0.862553D-03  0.138665D-01  0.186960D-02 -0.767179D-03 -0.252213D-02
     26  0.237638D-03  0.189032D-02  0.140894D-01  0.112859D-02 -0.174326D-02
     27 -0.109534D-04 -0.850884D-03 -0.424066D-02 -0.264528D-01  0.349486D-02
               11            12            13            14            15
     11  0.758588D+00
     12 -0.385917D+00  0.737971D+00
     13 -0.862824D-03  0.908531D-03  0.698224D-01
     14  0.542719D-03  0.117092D-02  0.588137D-02  0.154237D+00
     15 -0.101991D-02  0.150244D-02 -0.780024D-02 -0.172044D-01  0.294422D+00
     16 -0.265999D+00 -0.220236D-01  0.193863D-03  0.259072D-03  0.134949D-02
     17 -0.214868D-01 -0.279103D+00  0.332285D-03  0.102726D-03  0.509076D-03
     18  0.484960D-02 -0.584010D-01  0.000000D+00  0.137676D-03  0.270964D-03
     19  0.260167D-02  0.119000D-02  0.697052D-01 -0.104375D+00  0.380303D-01
     20 -0.134423D+00  0.880339D-01 -0.137468D-02  0.320179D-02 -0.658312D-04
     21  0.880033D-01 -0.137577D+00  0.851072D-04 -0.485043D-03 -0.267509D-03
     22  0.937825D-03 -0.133444D-02 -0.768225D-01  0.632278D-02  0.790581D-03
     23  0.410665D-02  0.432228D-03 -0.192387D-01  0.115395D+00  0.390678D-02
     24 -0.317325D-02 -0.525163D-03  0.274736D-01 -0.197995D-01 -0.423258D-01
     25  0.355028D-01  0.766330D-02 -0.169496D-04  0.105779D-03  0.150632D-03
     26  0.727494D-02  0.397841D-01  0.597908D-03 -0.683181D-03 -0.123300D-03
     27 -0.831256D-03  0.233285D-02 -0.408961D-03  0.317241D-03 -0.958608D-04
               16            17            18            19            20
     16  0.285841D+00
     17 -0.177720D-02  0.300166D+00
     18  0.904381D-03  0.248591D-03  0.544517D-01
     19  0.361378D-03 -0.203856D-02  0.331679D-02  0.525304D+00
     20  0.359011D-01  0.431616D-02  0.237737D-02 -0.738420D-01  0.183871D+00
     21  0.455053D-02  0.402329D-01  0.184381D-02  0.660883D-02 -0.746204D-01
     22 -0.141536D-03 -0.132835D-03  0.839110D-04 -0.258340D+00  0.514022D-03
     23  0.191759D-04  0.622438D-04 -0.963100D-04 -0.153605D+00  0.422593D-02
     24  0.153856D-03  0.584401D-04 -0.688712D-04 -0.539037D-01 -0.288654D-03
     25 -0.421673D-01  0.306272D-02 -0.177886D-02  0.283736D-02 -0.471688D-01
     26  0.305397D-02 -0.460043D-01 -0.215690D-02 -0.780961D-02  0.468639D-02
     27 -0.173112D-02  0.443187D-03 -0.352094D-02  0.127501D-01  0.262257D-02
               21            22            23            24            25
     21  0.140638D+00
     22  0.249114D-03  0.281993D+00
     23 -0.138109D-03 -0.210899D-01  0.166898D+00
     24 -0.397698D-03 -0.345136D-02  0.383414D-02  0.524409D-01
     25  0.527066D-02  0.280969D-03  0.216497D-03  0.173551D-02  0.332574D-01
     26 -0.416454D-01 -0.187812D-03  0.272082D-03  0.210761D-03  0.110095D-01
     27 -0.359652D-01  0.327735D-04 -0.613988D-03 -0.179866D-03 -0.743912D-02
               26            27
     26  0.313182D-01
     27  0.214581D-02  0.266469D-01
 Final forces over variables, Energy=-1.17944052D+02:
  1.21810628D-05 2.96757422D-05-1.85797482D-05-7.53238212D-06
 -1.82694889D-05 5.63021791D-06-5.41531963D-07 3.02144081D-06
 -5.58531249D-06-9.20424049D-06 1.02156598D-04-8.22376488D-05
 -1.11084915D-05 5.67233756D-06 4.63124453D-07-1.29329096D-05
  4.84795985D-07 6.70643441D-06 3.91318125D-05-2.97068244D-05
  1.11501859D-05-6.57854631D-06-9.33361037D-06-6.96055372D-06
  1.28847835D-06 2.29665761D-06-1.28759965D-06

 GradGradGradGradGradGradGradGradGradGradGradGradGradGradGradGradGradGrad
 Berny optimization.
 Search for a local minimum.
 Step number   1 out of a maximum of   2
 All quantities printed in internal units (Hartrees-Bohrs-Radians)
 Second derivative matrix not updated -- analytic derivatives used.
     Eigenvalues ---    0.00193   0.01303   0.01838   0.04455   0.04729
     Eigenvalues ---    0.06542   0.07666   0.08871   0.10317   0.10687
     Eigenvalues ---    0.14466   0.16274   0.20052   0.25403   0.41124
     Eigenvalues ---    0.57820   0.70092   0.73565   0.77708   0.93360
     Eigenvalues ---    1.44853
 Angle between quadratic step and forces=  84.42 degrees.
 Linear search not attempted -- first point.
 TrRot=  0.000015  0.000021  0.000114 -0.000001  0.000020 -0.000001
 Variable       Old X    -DE/DX   Delta X   Delta X   Delta X     New X
                                 (Linear)    (Quad)   (Total)
    X1        1.73038   0.00001   0.00000   0.00000   0.00002   1.73040
    Y1       -0.30912  -0.00001   0.00000  -0.00003  -0.00001  -0.30913
    Z1        0.08672   0.00004   0.00000   0.00016   0.00024   0.08696
    X2        4.55248   0.00003   0.00000   0.00005   0.00006   4.55254
    Y2       -0.39221   0.00010   0.00000   0.00026   0.00027  -0.39194
    Z2       -0.17518  -0.00003   0.00000   0.00048   0.00051  -0.17467
    X3        6.01736  -0.00002   0.00000   0.00002   0.00002   6.01738
    Y3        1.57477  -0.00008   0.00000  -0.00013  -0.00012   1.57465
    Z3       -0.71993   0.00001   0.00000  -0.00042  -0.00043  -0.72035
    X4        1.14032  -0.00001   0.00000  -0.00055  -0.00050   1.13982
    Y4       -0.92094  -0.00001   0.00000  -0.00194  -0.00192  -0.92286
    Z4        1.97488  -0.00001   0.00000  -0.00066  -0.00057   1.97431
    X5        0.81993  -0.00002   0.00000   0.00015   0.00014   0.82007
    Y5       -1.58973   0.00001   0.00000   0.00138   0.00140  -1.58833
    Z5       -1.26173  -0.00001   0.00000  -0.00136  -0.00126  -1.26300
    X6        0.99541   0.00001   0.00000   0.00012   0.00013   0.99555
    Y6        1.59351   0.00000   0.00000   0.00025   0.00027   1.59379
    Z6       -0.23323  -0.00001   0.00000   0.00158   0.00167  -0.23156
    X7        5.42949   0.00000   0.00000   0.00008   0.00010   5.42958
    Y7       -2.23116  -0.00001   0.00000   0.00038   0.00039  -2.23077
    Z7        0.11270   0.00000   0.00000   0.00146   0.00147   0.11417
    X8        5.23345   0.00000   0.00000   0.00002   0.00002   5.23346
    Y8        3.44735   0.00000   0.00000  -0.00027  -0.00026   3.44709
    Z8       -1.02357   0.00000   0.00000  -0.00136  -0.00135  -1.02492
    X9        8.05125  -0.00001   0.00000   0.00002   0.00002   8.05127
    Y9        1.38885   0.00001   0.00000  -0.00003  -0.00002   1.38883
    Z9       -0.88222   0.00000   0.00000  -0.00023  -0.00028  -0.88250
         Item               Value     Threshold  Converged?
 Maximum Force            0.000102     0.000450     YES
 RMS     Force            0.000029     0.000300     YES
 Maximum Displacement     0.001923     0.001800     NO 
 RMS     Displacement     0.000760     0.001200     YES
 Predicted change in Energy=-2.941981D-08
 GradGradGradGradGradGradGradGradGradGradGradGradGradGradGradGradGradGrad


 Test job not archived.
 1\1\GINC-NODE31\Freq\RB3LYP\CBSB7\C3H6\GOLDMANM\10-Mar-2019\0\\# freq 
 nosymm b3lyp/cbsb7 iop(7/33=1)\\NBO NRT\\0,1\C,0.91568,-0.16358,0.0458
 9\C,2.40907,-0.20755,-0.0927\C,3.18425,0.83333,-0.38097\H,0.60343,-0.4
 8734,1.04506\H,0.43389,-0.84125,-0.66768\H,0.52675,0.84325,-0.12342\H,
 2.87316,-1.18068,0.05964\H,2.76942,1.82426,-0.54165\H,4.26054,0.73495,
 -0.46685\\Version=AM64L-G03RevD.01\HF=-117.9440519\RMSD=4.264e-09\RMSF
 =2.868e-05\ZeroPoint=0.0793022\Thermal=0.0833968\Dipole=-0.1206213,-0.
 0836616,0.029281\DipoleDeriv=-0.0617446,-0.0179436,0.0259737,-0.037864
 4,0.0659839,0.0236178,0.0307413,0.0220492,0.1558907,0.3077224,0.071941
 1,-0.0672504,-0.0046812,0.1205978,-0.0697186,-0.0520177,-0.0777384,-0.
 2032696,-0.0547249,-0.1278132,-0.0000161,-0.1479844,-0.0135545,-0.0475
 506,0.0043224,-0.0493363,-0.3093726,-0.0154022,-0.0377838,0.0439196,-0
 .0020119,0.071535,0.062928,0.084652,0.0705334,-0.1085618,-0.0396142,-0
 .0713646,-0.0285778,-0.0538784,-0.0010917,-0.0979359,-0.0802948,-0.100
 2337,-0.0115075,0.0021993,0.0200959,0.0028715,0.102367,-0.1159046,0.02
 90516,-0.0141168,0.0370231,0.0674604,-0.0322578,0.0710215,0.0021229,0.
 0708832,-0.0997801,0.0410815,0.0022141,0.0410486,0.1277656,0.0121803,0
 .0952813,-0.0065459,0.0446951,-0.0778849,0.0402858,0.0036465,0.0353345
 ,0.1345093,-0.1183582,-0.0034346,0.0275026,0.028475,0.050099,0.0182405
 ,0.020853,0.0213196,0.1470854\Polar=41.3965217,6.9382797,38.527958,-3.
 2200199,-3.8266044,24.1941156\PG=C01 [X(C3H6)]\NImag=0\\0.48279559,-0.
 00630268,0.57063302,0.00546114,-0.00879173,0.52530420,-0.21747404,0.01
 426802,0.01142024,0.62708241,0.00746791,-0.08869400,0.00260167,0.10544
 091,0.75858770,0.01265671,0.00203288,-0.07384204,-0.06843481,-0.134422
 70,0.18387097,-0.02440656,-0.02847218,0.00898282,-0.25777915,-0.201147
 67,0.06136675,0.70664418,-0.00408141,0.00389204,0.00119000,-0.20076614
 ,-0.38591738,0.08803395,0.08941131,0.73797116,0.00400355,0.00361371,0.
 00660883,0.06126217,0.08800329,-0.07462043,-0.07743614,-0.13757684,0.1
 4063818,-0.06294757,-0.01824910,0.06498231,-0.01157837,-0.01325321,0.0
 3186260,-0.00347725,0.00223728,-0.00037410,0.07157362,-0.01676651,-0.0
 6847457,0.06970516,-0.00259083,-0.00086282,-0.00137468,-0.00012551,0.0
 0090853,0.00008511,0.02269714,0.06982244,0.06304850,0.07029619,-0.2583
 4037,0.00183147,0.00093783,0.00051402,0.00001545,-0.00133444,0.0002491
 1,-0.07098195,-0.07682247,0.28199255,-0.09136135,-0.06639977,-0.073884
 27,-0.01676597,-0.02389210,-0.02079732,-0.00337935,0.00251624,0.000092
 41,0.00379077,0.00599023,0.00524843,0.10257456,-0.06422385,-0.14512678
 ,-0.10437502,-0.00204307,0.00054272,0.00320179,-0.00001856,0.00117092,
 -0.00048504,0.00480080,0.00588137,0.00632278,0.07507285,0.15423673,-0.
 07272988,-0.10458722,-0.15360480,0.00258069,0.00410665,0.00422593,0.00
 067591,0.00043223,-0.00013811,-0.01275075,-0.01923872,-0.02108988,0.07
 892878,0.11539518,0.16689813,-0.07818954,0.08117723,-0.01363695,-0.012
 69905,0.03334578,-0.00556878,0.00217560,0.00113713,-0.00048539,0.00254
 653,-0.00874933,0.00021881,0.00470005,-0.01285391,0.00371085,0.0867303
 6,0.08394191,-0.27202895,0.03803030,0.00078885,-0.00101991,-0.00006583
 ,-0.00149488,0.00150244,-0.00026751,0.00221280,-0.00780024,0.00079058,
 0.00632349,-0.01720443,0.00390678,-0.09197929,0.29442156,-0.01404125,0
 .03820670,-0.05390371,0.00092106,-0.00317325,-0.00028865,0.00001700,-0
 .00052516,-0.00039770,-0.01073667,0.02747361,-0.00345136,0.00843126,-0
 .01979953,0.00383414,0.01467222,-0.04232579,0.05244087,-0.01121683,0.0
 2796910,-0.00437288,-0.10506942,0.10402394,-0.01494144,0.01004186,-0.0
 1882476,0.00348616,0.00078526,-0.00026422,0.00069220,0.00085208,-0.000
 54895,-0.00062537,-0.00587097,-0.00041833,0.00085540,0.11049913,-0.001
 16998,0.00125165,0.00036138,0.09989362,-0.26599911,0.03590106,0.012720
 07,-0.02202359,0.00455053,0.00051845,0.00019386,-0.00014154,0.00081710
 ,0.00025907,0.00001918,-0.00051179,0.00134949,0.00015386,-0.10876106,0
 .28584144,0.00157110,-0.00252213,0.00283736,-0.01410861,0.03550283,-0.
 04716875,-0.00292608,0.00766330,0.00527066,-0.00087879,-0.00001695,0.0
 0028097,0.00051091,0.00010578,0.00021650,0.00086255,0.00015063,0.00173
 551,0.01386650,-0.04216732,0.03325737,0.00169045,-0.00180457,-0.000620
 42,0.00942090,-0.01702352,0.00306869,-0.09938281,0.10031785,-0.0140744
 4,0.00014332,0.00014421,-0.00009449,-0.00007764,0.00003747,0.00005497,
 0.00007660,0.00065975,-0.00005262,-0.00107357,-0.00292622,0.00186960,0
 .09628139,0.00161587,0.00100865,-0.00203856,0.01254138,-0.02148680,0.0
 0431616,0.09603307,-0.27910307,0.04023294,0.00019983,0.00033228,-0.000
 13284,-0.00026255,0.00010273,0.00006224,-0.00127871,0.00050908,0.00005
 844,-0.00304112,-0.00177720,0.00306272,-0.10457376,0.30016573,-0.00129
 229,-0.00174326,-0.00780961,-0.00288374,0.00727494,0.00468639,-0.01319
 495,0.03978412,-0.04164536,0.00119263,0.00059791,-0.00018781,-0.001167
 55,-0.00068318,0.00027208,0.00023764,-0.00012330,0.00021076,0.00189032
 ,0.00305397,0.01100951,0.01408937,-0.04600429,0.03131823,0.00110987,-0
 .00218606,0.00166802,-0.01513731,0.00503797,0.00078760,-0.33043652,0.0
 2805250,0.02352579,-0.00083632,-0.00033519,0.00002159,-0.00033316,-0.0
 0022279,0.00015480,0.00053042,-0.00003430,-0.00006640,0.00105245,-0.00
 058019,-0.00076718,-0.00707865,-0.00123400,0.00112859,0.35112922,-0.00
 048126,-0.00246105,0.00331679,-0.02753274,0.00484960,0.00237737,0.0330
 9435,-0.05840105,0.00184381,-0.00116400,-0.00000085,0.00008391,-0.0001
 6548,0.00013768,-0.00009631,-0.00028710,0.00027096,-0.00006887,-0.0001
 3461,0.00090438,-0.00177886,0.02516878,0.00024859,-0.00215690,-0.02849
 793,0.05445174,0.00132243,0.00349486,0.01275014,0.00741155,-0.00083126
 ,0.00262257,0.02249924,0.00233285,-0.03596519,-0.00231528,-0.00040896,
 0.00003277,0.00263735,0.00031724,-0.00061399,-0.00001095,-0.00009586,-
 0.00017987,-0.00085088,-0.00173112,-0.00743912,-0.00424066,0.00044319,
 0.00214581,-0.02645280,-0.00352094,0.02664688\\-0.00001218,0.00000920,
 -0.00003913,-0.00002968,-0.00010216,0.00002971,0.00001858,0.00008224,-
 0.00001115,0.00000753,0.00001111,0.00000658,0.00001827,-0.00000567,0.0
 0000933,-0.00000563,-0.00000046,0.00000696,0.00000054,0.00001293,-0.00
 000129,-0.00000302,-0.00000048,-0.00000230,0.00000559,-0.00000671,0.00
 000129\\\@


 DEPRESSION IS WAITING FOR YOUR SHIP TO COME IN,
 AND FINDING OUT IT'S THE TITANIC.
 Job cpu time:  0 days  0 hours  5 minutes  0.8 seconds.
 File lengths (MBytes):  RWF=     18 Int=      0 D2E=      0 Chk=      6 Scr=      1
 Normal termination of Gaussian 03 at Sun Mar 10 16:29:22 2019.
