
 Primary working directories    : /scratch/goldmanm/562772
 Secondary working directories  : /scratch/goldmanm/562772
 Wavefunction directory         : /home/goldmanm/wfu/
 Main file repository           : /scratch/goldmanm/562772/

 ARCHNAME  : Linux/x86_64
 FC        : /opt/intel/Compiler/11.0/074/bin/intel64/ifort
 FCVERSION : 11.0
 BLASLIB   : -L/opt/intel/Compiler/11.0/074/mkl/lib/em64t -lmkl_intel_ilp64 -lmkl_sequential -lmkl_core
 id        : mitsand

 Nodes     nprocs
 node31       4
 ga_uses_ma=false, calling ma_init with nominal heap.
 GA-space will be limited to   8.0 MW (determined by -G option)

 Using customized tuning parameters: mindgm=16; mindgv=16; mindgc=16; mindgr=1; noblas=0; mincuda=1000; minvec=7
 default implementation of scratch files=sf  

 geometry = {angstrom
 C
 C, 1, r2
 C, 2, r3, 1, a3
 H, 1, r4, 2, a4, 3, d4
 H, 1, r5, 2, a5, 3, d5
 H, 1, r6, 2, a6, 3, d6
 H, 2, r7, 1, a7, 3, d7
 H, 3, r8, 2, a8, 1, d8
 H, 3, r9, 2, a9, 1, d9
 }
  
    r2 =         1.50045 ang
    r3 =         1.32944 ang
    a3 =       125.27010 degree
    r4 =         1.09574 ang
    a4 =       111.05105 degree
    d4 =       239.40604 degree
    r5 =         1.09569 ang
    a5 =       111.06147 degree
    d5 =       120.95580 degree
    r6 =         1.09255 ang
    a6 =       111.53034 degree
    d6 =         0.16381 degree
    r7 =         1.08885 ang
    a7 =       115.94343 degree
    d7 =       179.97438 degree
    r8 =         1.08621 ang
    a8 =       121.57788 degree
    d8 =       359.97438 degree
    r9 =         1.08418 ang
    a9 =       121.66673 degree
    d9 =       179.97438 degree
  
 memory,3000,M
 basis = vtz-f12
 hf
 uccsd(t)-f12,scale_trip=1

 Variables initialized (665), CPU time= 0.01 sec
 Commands  initialized (462), CPU time= 0.00 sec, 486 directives.
 Default parameters read. Elapsed time= 0.11 sec

 Checking input...
 Passed
1


                                         ***  PROGRAM SYSTEM MOLPRO  ***
                         Copyright, University College Cardiff Consultants Limited, 2008

                                    Version 2010.1 linked 7 Mar 2011 15:11:57 


 **********************************************************************************************************************************
 LABEL *                                                                                 
 Linux-3.2.0-72-generic/node31(x86_64) 64 bit mpp version                                DATE: 10-Mar-19          TIME: 17:02:26  
 **********************************************************************************************************************************

 Patch level:      19
 **********************************************************************************************************************************
 SETTING R2             =         1.50045000  ANG                             
 SETTING R3             =         1.32944000  ANG                             
 SETTING A3             =       125.27010000  DEGREE                          
 SETTING R4             =         1.09574000  ANG                             
 SETTING A4             =       111.05105000  DEGREE                          
 SETTING D4             =       239.40604000  DEGREE                          
 SETTING R5             =         1.09569000  ANG                             
 SETTING A5             =       111.06147000  DEGREE                          
 SETTING D5             =       120.95580000  DEGREE                          
 SETTING R6             =         1.09255000  ANG                             
 SETTING A6             =       111.53034000  DEGREE                          
 SETTING D6             =         0.16381000  DEGREE                          
 SETTING R7             =         1.08885000  ANG                             
 SETTING A7             =       115.94343000  DEGREE                          
 SETTING D7             =       179.97438000  DEGREE                          
 SETTING R8             =         1.08621000  ANG                             
 SETTING A8             =       121.57788000  DEGREE                          
 SETTING D8             =       359.97438000  DEGREE                          
 SETTING R9             =         1.08418000  ANG                             
 SETTING A9             =       121.66673000  DEGREE                          
 SETTING D9             =       179.97438000  DEGREE                          

 Variable memory set to 3000000000 words,  buffer space   230000 words

 SETTING BASIS          =    VTZ-F12


 Recomputing integrals since basis changed


 Using spherical harmonics

 Library entry C      S cc-pVTZ-F12          selected for orbital group  1
 Library entry C      P cc-pVTZ-F12          selected for orbital group  1
 Library entry C      D cc-pVTZ-F12          selected for orbital group  1
 Library entry C      F cc-pVTZ-F12          selected for orbital group  1
 Library entry H      S cc-pVTZ-F12          selected for orbital group  2
 Library entry H      P cc-pVTZ-F12          selected for orbital group  2
 Library entry H      D cc-pVTZ-F12          selected for orbital group  2

1PROGRAM * SEWARD (Integral evaluation for generally contracted gaussian basis sets)     Author: Roland Lindh, 1990

 Geometry written to block  1 of record 700

 Orientation using atomic masses  
 Molecule type: Asymmetric top
 Rotational constants:       8.1338258      9.2752065     46.9774764 GHz  (calculated with average atomic masses)

 Point group  C1  



 ATOMIC COORDINATES

 NR  ATOM    CHARGE       X              Y              Z

   1  C       6.00    0.000000008    0.333204691   -2.378448104
   2  C       6.00    0.000169198   -0.839299167    0.203208778
   3  C       6.00   -0.000030872    0.428362213    2.372211513
   4  H       1.00   -1.663355828   -0.254978631   -3.462363691
   5  H       1.00    1.657107373   -0.263785279   -3.466929673
   6  H       1.00    0.005177325    2.395182521   -2.274152644
   7  H       1.00   -0.000345880   -2.896205811    0.257697350
   8  H       1.00    0.000439168    2.480494192    2.417848247
   9  H       1.00   -0.000670600   -0.534419494    4.180704212

 Bond lengths in Bohr (Angstrom)

 1-2  2.835439574  1-4  2.070648511  1-5  2.070554025  1-6  2.064620285  2-3  2.512277508
     (1.500450000)     (1.095740000)     (1.095690000)     (1.092550000)     (1.329440000)

 2-7  2.057628298  3-8  2.052639421  3-9  2.048803277
     (1.088850000)     (1.086210000)     (1.084180000)

 Bond angles

  1-2-3  125.27010000   1-2-7  115.94343000   2-1-4  111.05105000   2-1-5  111.06147000

  2-1-6  111.53034000   2-3-8  121.57788000   2-3-9  121.66673000   3-2-7  118.78646520

  4-1-5  106.60753302   4-1-6  108.18894311   5-1-6  108.21017836   8-3-9  116.75539000

 NUCLEAR CHARGE:                   24
 NUMBER OF PRIMITIVE AOS:         342
 NUMBER OF SYMMETRY AOS:          309
 NUMBER OF CONTRACTIONS:          267   ( 267A   )
 NUMBER OF CORE ORBITALS:           3   (   3A   )
 NUMBER OF VALENCE ORBITALS:       18   (  18A   )


 NUCLEAR REPULSION ENERGY   70.73291784


 Eigenvalues of metric

         1 0.538E-04 0.651E-04 0.901E-04 0.126E-03 0.140E-03 0.150E-03 0.180E-03 0.202E-03


 Contracted 2-electron integrals neglected if value below      1.0D-11
 AO integral compression algorithm  1   Integral accuracy      1.0D-11

     2509.505 MB (compressed) written to integral file ( 43.7%)

     Node minimum: 599.261 MB, node maximum: 661.914 MB


 NUMBER OF SORTED TWO-ELECTRON INTEGRALS:  160008160.     BUFFER LENGTH:  32768
 NUMBER OF SEGMENTS:  11  SEGMENT LENGTH:   15998348      RECORD LENGTH: 524288

 Memory used in sort:      16.56 MW

 SORT1 READ   717051352. AND WROTE   151753759. INTEGRALS IN    440 RECORDS. CPU TIME:    90.33 SEC, REAL TIME:   130.40 SEC
 SORT2 READ   607032755. AND WROTE   640050531. INTEGRALS IN   9772 RECORDS. CPU TIME:     4.48 SEC, REAL TIME:    28.25 SEC

 Node minimum:   159999216.  Node maximum:   160026050. integrals

 OPERATOR DM      FOR CENTER  0  COORDINATES:    0.000000    0.000000    0.000000


 **********************************************************************************************************************************
 DATASETS  * FILE   NREC   LENGTH (MB)   RECORD NAMES
              1      18        5.33       500      610      700      900      950      970     1000      129      960     1100   
                                          VAR    BASINP    GEOM    SYMINP    ZMAT    AOBASIS   BASIS     P2S    ABASIS      S 
                                         1400     1410     1200     1210     1080     1600     1650     1700   
                                           T        V       H0       H01     AOSYM     SMH    MOLCAS    OPER   

 PROGRAMS   *        TOTAL       INT
 CPU TIMES  *       105.62    105.53
 REAL TIME  *       171.40 SEC
 DISK USED  *         9.71 GB      
 GA USED    *         0.00 MB       (max)       0.00 MB       (current)
 **********************************************************************************************************************************

1PROGRAM * RHF-SCF (CLOSED SHELL)       Authors: W. Meyer, H.-J. Werner


 NUMBER OF ELECTRONS:      12+   12-    SPACE SYMMETRY=1    SPIN SYMMETRY=Singlet 
 CONVERGENCE THRESHOLDS:    1.00E-05 (Density)    1.00E-07 (Energy)
 MAX. NUMBER OF ITERATIONS:       60
 INTERPOLATION TYPE:            DIIS
 INTERPOLATION STEPS:              2 (START)      1 (STEP)
 LEVEL SHIFTS:                  0.00 (CLOSED)  0.00 (OPEN) 



 Orbital guess generated from atomic densities. Full valence occupancy:   21

 Molecular orbital dump at record        2100.2

 ITERATION    DDIFF          GRAD             ENERGY        2-EL.EN.            DIPOLE MOMENTS         DIIS
    1      0.000D+00      0.000D+00      -117.08183622    219.223708   -0.00048   -0.05510   -0.33260    0
    2      0.000D+00      0.172D-02      -117.11843496    216.448091   -0.00020   -0.00686   -0.15326    1
    3      0.327D-02      0.642D-03      -117.12284485    217.577768   -0.00026   -0.03858   -0.17406    2
    4      0.876D-03      0.190D-03      -117.12351781    217.344481   -0.00025   -0.02917   -0.16255    3
    5      0.394D-03      0.268D-04      -117.12353319    217.357255   -0.00025   -0.02663   -0.16017    4
    6      0.719D-04      0.875D-05      -117.12353418    217.354262   -0.00025   -0.02710   -0.16096    5
    7      0.188D-04      0.232D-05      -117.12353429    217.355334   -0.00025   -0.02641   -0.16048    6
    8      0.656D-05      0.867D-06      -117.12353431    217.355139   -0.00025   -0.02638   -0.16050    7
    9      0.196D-05      0.430D-06      -117.12353431    217.355226   -0.00025   -0.02634   -0.16043    0

 Final occupancy:  12

 !RHF STATE 1.1 Energy               -117.123534307300
 Nuclear energy                        70.73291784
 One-electron energy                 -296.53406497
 Two-electron energy                  108.67761282
 Virial quotient                       -1.00131590
 !RHF STATE 1.1 Dipole moment          -0.00025361    -0.02634263    -0.16043242
 Dipole moment /Debye                  -0.00064458    -0.06695189    -0.40775184

 Orbital energies:

         1.1          2.1          3.1          4.1          5.1          6.1          7.1          8.1          9.1         10.1
    -11.233573   -11.221855   -11.216926    -1.064042    -0.932799    -0.757058    -0.638738    -0.583668    -0.566467    -0.523994

        11.1         12.1         13.1         14.1
     -0.490175    -0.360124     0.053007     0.054936


 **********************************************************************************************************************************
 DATASETS  * FILE   NREC   LENGTH (MB)   RECORD NAMES
              1      18        5.33       500      610      700      900      950      970     1000      129      960     1100   
                                          VAR    BASINP    GEOM    SYMINP    ZMAT    AOBASIS   BASIS     P2S    ABASIS      S 
                                         1400     1410     1200     1210     1080     1600     1650     1700   
                                           T        V       H0       H01     AOSYM     SMH    MOLCAS    OPER   

              2       3        1.85       700     1000     2100   
                                         GEOM     BASIS     RHF  

 PROGRAMS   *        TOTAL        HF       INT
 CPU TIMES  *       128.56     22.93    105.53
 REAL TIME  *       196.46 SEC
 DISK USED  *         9.77 GB      
 SF USED    *         0.29 MB      
 GA USED    *         0.00 MB       (max)       0.00 MB       (current)
 **********************************************************************************************************************************


1PROGRAM * CCSD (Unrestricted open-shell coupled cluster)     Authors: C. Hampel, H.-J. Werner, 1991, M. Deegan, P.J. Knowles, 1992

                           UCCSD-F12 implementation by G. Knizia and H.-J. Werner, 2008

                   Density fitting integral evaluation by F.R. Manby, 2003,2007, G. Knizia, 2010

 Basis set CC-PVTZ/JKFIT generated.      Number of basis functions:   417 
 Basis set CC-PVTZ-F12/OPTRI generated.  Number of basis functions:   471 
 Basis set AUG-CC-PVTZ/MP2FIT generated. Number of basis functions:   594 

 Convergence thresholds:  THRVAR = 1.00D-08  THRDEN = 1.00D-06

 CCSD(T)     terms to be evaluated (factor= 1.000)


 Number of core orbitals:           3 (   3 )
 Number of closed-shell orbitals:   9 (   9 )
 Number of external orbitals:     255 ( 255 )

 Memory could be reduced to 280.07 Mwords without degradation in triples

 Number of N-1 electron functions:              18
 Number of N-2 electron functions:             153
 Number of singly external CSFs:              4590
 Number of doubly external CSFs:           7598745
 Total number of CSFs:                     7603335

 Molecular orbitals read from record     2100.2  Type=RHF/CANONICAL (state 1.1)

 Integral transformation finished. Total CPU:  52.22 sec, npass=  1  Memory used: 102.46 MW
 
 Geminal basis:    OPTFULL  GEM_TYPE=SLATER  BETA=1.0  NGEM=6

 Optimizing Gaussian exponents for each gem_beta

 Geminal optimization for beta= 1.0000
 Weight function:   m=0, omega= 1.4646

 Augmented Hessian optimization of geminal fit. Trust ratio= 0.40000
 Convergence reached after   2 iterations. Final gradient= 8.52D-16, Step= 4.25D-06, Delta= 1.28D-09
 
 Alpha:                 0.19532     0.81920     2.85917     9.50073    35.69989   197.79328
 Coeff:                 0.27070     0.30552     0.18297     0.10986     0.06810     0.04224
 
 
 WFN_F12=FIX,EG    DECOUPLE_EXPL=F   HYBRID=0    NOX=F   SEMIINT_F12=T   CORE_SINGLES=F
 
 AO(A)-basis ORBITAL           loaded. Number of functions:     267
 RI(R)-basis CC-PVTZ-F12/OPTRI loaded. Number of functions:     471
 DF-basis CC-PVTZ/JKFIT        loaded. Number of functions:     417

 Screening thresholds:   THRAO=  1.00D-10  THRMO=  1.00D-09  THRPROD=  1.00D-09
                         THRSW=  1.00D-05  THROV=  1.00D-12  THRF12=   1.00D-08

 CPU time for one-electron matrices               3.37 sec
 
 Construction of ABS:
 Pseudo-inverse stability          1.60E-10
 Smallest eigenvalue of S          5.34E-05  (threshold= 1.00E-08)
 Ratio eigmin/eigmax               2.52E-07  (threshold= 1.00E-09)
 Smallest eigenvalue of S kept     5.34E-05  (threshold= 5.34E-05, 0 functions deleted, 471 kept)
 
 Construction of CABS:
 Pseudo-inverse stability          1.17E-09
 Smallest eigenvalue of S          5.98E-07  (threshold= 1.00E-08)
 Ratio eigmin/eigmax               5.98E-07  (threshold= 1.00E-09)
 Smallest eigenvalue of S kept     5.98E-07  (threshold= 5.98E-07, 0 functions deleted, 471 kept)
 
 CPU time for basis constructions                 0.57 sec
 Fock operators(MO) rebuilt from dump record.
 CPU time for fock operators                      0.97 sec
 
                                      TOTAL          ALPHA          BETA    
  Singles Contributions MO         0.000000000    0.000000000    0.000000000
  Singles Contributions CABS      -0.001156560   -0.000578280   -0.000578280
  Pure DF-RHF relaxation          -0.001156560
 
 CPU time for singles                             2.39 sec
 
 AO(A)-basis ORBITAL           loaded. Number of functions:     267
 RI(R)-basis CC-PVTZ-F12/OPTRI loaded. Number of functions:     471
 DF-basis AUG-CC-PVTZ/MP2FIT   loaded. Number of functions:     594

 Screening thresholds:   THRAO=  1.00D-10  THRMO=  1.00D-09  THRPROD=  1.00D-09
                         THRSW=  1.00D-05  THROV=  1.00D-12  THRF12=   1.00D-08

 CPU time for transformed integrals              27.62 sec
 CPU time for F12 matrices                        5.87 sec

 Diagonal F12 ansatz with fixed amplitudes:   TS= 0.5000  TT= 0.2500  TN= 0.3750
 
 ITER.     SQ.NORM      CORR.ENERGY   TOTAL ENERGY  ENERGY CHANGE      VAR         CPU   MICRO    DIIS
   1      1.16981984    -0.56445284  -117.68914371    -5.6561E-01   1.70E-01      0.60  1  1  1   0  0
   2      1.16981984    -0.56445284  -117.68914371     8.6597E-15   5.81E-26      3.30  0  0  0   0  0
 
 --- Continuing with F12/conv. amplitude coupling turned on.
 
   3      1.16975470    -0.56450293  -117.68919380    -5.0090E-05   4.43E-05      6.36  1  1  1   1  1
   4      1.16975470    -0.56450293  -117.68919380    -2.2204E-16   7.52E-27      9.82  1  1  1   0  1
 
 CPU time for iterative RMP2-F12                  9.82 sec
 
 
 DF-RMP2-F12 doubles corrections:
 --------------------------------
  Approx.                             TOTAL           A-B            A-A            B-B    
  RMP2-F12/3C(FIX)                -0.041325501   -0.039079858   -0.001122821   -0.001122821
  RMP2-F12/3*C(FIX)               -0.041275411   -0.039073684   -0.001100864   -0.001100864
  RMP2-F12/3*C(DX)                -0.041302737   -0.039099828   -0.001101454   -0.001101454
  RMP2-F12/3*C(FIX,DX)            -0.042041394   -0.039865104   -0.001088145   -0.001088145
 
 DF-RMP2-F12 doubles energies:
 -----------------------------
  Approx.                             TOTAL           A-B            A-A            B-B    
  RMP2                            -0.523177432   -0.409840578   -0.056668427   -0.056668427
  RMP2-F12/3C(FIX)                -0.564502933   -0.448920436   -0.057791248   -0.057791248
  RMP2-F12/3*C(FIX)               -0.564452843   -0.448914262   -0.057769290   -0.057769290
  RMP2-F12/3*C(DX)                -0.564480169   -0.448940406   -0.057769881   -0.057769881
  RMP2-F12/3*C(FIX,DX)            -0.565218826   -0.449705682   -0.057756572   -0.057756572
 
 
  Reference energy                   -117.123534307298
  CABS relaxation correction to RHF    -0.001156560255
  New reference energy               -117.124690867553
 
  RMP2-F12 singles (MO) energy         -0.000000000283
  RMP2-F12 pair energy                 -0.564502933009
  RMP2-F12 correlation energy          -0.564502933293
 
  RMP2-F12/3C(FIX) energy            -117.689193800846

 Starting RMP2 calculation

 ITER.      SQ.NORM     CORR.ENERGY   TOTAL ENERGY   ENERGY CHANGE        DEN1      VAR(S)    VAR(P)  DIIS     TIME
   1      1.16763364    -0.52094504  -117.64447935    -0.52094504    -0.00211396  0.55D-11  0.90D-03  1  1   109.11
   2      1.16976349    -0.52322283  -117.64675714    -0.00227779    -0.00000284  0.10D-12  0.18D-05  2  2   112.55
   3      1.16982629    -0.52325738  -117.64679169    -0.00003455    -0.00000001  0.19D-14  0.56D-08  3  3   116.21
   4      1.16982776    -0.52325776  -117.64679207    -0.00000039     0.00000000  0.31D-16  0.96D-11  4  4   120.84

 Norm of t1 vector:      0.00001728      S-energy:     0.00000000      T1 diagnostic:  0.00000288
 Norm of t2 vector:      0.41210164      P-energy:    -0.52325776
                                         Alpha-Beta:  -0.41005741
                                         Alpha-Alpha: -0.05660018
                                         Beta-Beta:   -0.05660018

 Spin contamination <S**2-Sz**2-Sz>     0.00000000
  Reference energy                   -117.124690867554
  RHF-RMP2 correlation energy          -0.523257764524
 !RHF-RMP2 energy                    -117.647948632078

 Starting UCCSD calculation

 ITER.      SQ.NORM     CORR.ENERGY   TOTAL ENERGY   ENERGY CHANGE        DEN1      VAR(S)    VAR(P)  DIIS     TIME
   1      1.17741855    -0.52789898  -117.65143329    -0.52789898    -0.01468514  0.20D-02  0.35D-02  1  1   199.41
   2      1.19339026    -0.54274521  -117.66627952    -0.01484623    -0.00112333  0.63D-04  0.43D-03  2  2   280.89
   3      1.19929254    -0.54583906  -117.66937337    -0.00309385    -0.00012125  0.20D-04  0.48D-04  3  3   363.51
   4      1.20167640    -0.54675723  -117.67029153    -0.00091817    -0.00001212  0.19D-05  0.55D-05  4  4   445.76
   5      1.20229732    -0.54685048  -117.67038478    -0.00009325    -0.00000114  0.27D-06  0.45D-06  5  5   528.97
   6      1.20243400    -0.54687092  -117.67040522    -0.00002044    -0.00000011  0.43D-07  0.34D-07  6  6   612.46
   7      1.20245829    -0.54687559  -117.67040990    -0.00000468    -0.00000001  0.75D-08  0.33D-08  6  1   697.49
   8      1.20246196    -0.54687418  -117.67040849     0.00000142     0.00000000  0.14D-08  0.34D-09  6  3   781.53
   9      1.20246467    -0.54687549  -117.67040980    -0.00000131     0.00000000  0.17D-09  0.53D-10  6  2   865.87
  10      1.20246503    -0.54687553  -117.67040983    -0.00000004     0.00000000  0.23D-10  0.96D-11  6  4   950.44

 Norm of t1 vector:      0.06481728      S-energy:    -0.00000003      T1 diagnostic:  0.01080288
                                                                       D1 diagnostic:  0.03274722
 Norm of t2 vector:      0.44526818      P-energy:    -0.54687549
                                         Alpha-Beta:  -0.44233819
                                         Alpha-Alpha: -0.05226865
                                         Beta-Beta:   -0.05226865

 Doubles amplitudes (print threshold =  0.500E-01):

         I         J         SYM. A    SYM. B    A         B      T(IJ, AB) [Alpha-Beta]

         9         9         1         1        11        11     -0.08756012

 Spin contamination <S**2-Sz**2-Sz>     0.00000000

 Memory could be reduced to 290.01 Mwords without degradation in triples
 

  Ecorr(MP2)                           -0.523257764524
  Ecorr(MP2-F12)                       -0.564583265521
  Scale factor for triples energy       1.078977329719

 RESULTS
 =======

  Reference energy                   -117.123534307299
  CABS relaxation correction to RHF    -0.001156560255
  New reference energy               -117.124690867554
 
  F12 corrections for ansatz 3C(FIX) added to UCCSD energy. Coupling mode: 15
 
  UCCSD-F12a singles energy            -0.000000034519
  UCCSD-F12a pair energy               -0.587953998049
  UCCSD-F12a correlation energy        -0.587954032568
  Triples (T) contribution (scaled)    -0.025399609046
  Total correlation energy             -0.613353641614
 
  RHF-UCCSD-F12a energy              -117.712644900122
  RHF-UCCSD[T]-F12a energy           -117.738745322801
  RHF-UCCSD-T-F12a energy            -117.737801391788
 !RHF-UCCSD(T)-F12a energy           -117.738044509168
 
  F12 corrections for ansatz 3C(FIX) added to UCCSD energy. Coupling mode: 15
 
  UCCSD-F12b singles energy            -0.000000034519
  UCCSD-F12b pair energy               -0.579614170882
  UCCSD-F12b correlation energy        -0.579614205401
  Triples (T) contribution (scaled)    -0.025399609046
  Total correlation energy             -0.605013814447
 
  RHF-UCCSD-F12b energy              -117.704305072955
  RHF-UCCSD[T]-F12b energy           -117.730405495634
  RHF-UCCSD-T-F12b energy            -117.729461564621
 !RHF-UCCSD(T)-F12b energy           -117.729704682001

 Program statistics:

 Available memory in ccsd:              2999999162
 Min. memory needed in ccsd:              22361268
 Max. memory used in ccsd:                31673082
 Max. memory used in cckext:              23258656 (11 integral passes)
 Max. memory used in cckint:             102460244 ( 1 integral passes)



 **********************************************************************************************************************************
 DATASETS  * FILE   NREC   LENGTH (MB)   RECORD NAMES
              1      19        5.36       500      610      700      900      950      970     1000      129      960     1100   
                                          VAR    BASINP    GEOM    SYMINP    ZMAT    AOBASIS   BASIS     P2S    ABASIS      S 
                                         1400     1410     1200     1210     1080     1600     1650     1700      960(1)
                                           T        V       H0       H01     AOSYM     SMH    MOLCAS    OPER    ABASIS    

              2       4        3.28       700     1000     2100     7360   
                                         GEOM     BASIS     RHF    F12ABS    

 PROGRAMS   *        TOTALUCCSD(T)-F        HF       INT
 CPU TIMES  *      2471.07   2342.50     22.93    105.53
 REAL TIME  *      2710.29 SEC
 DISK USED  *        13.57 GB      
 SF USED    *         7.84 GB      
 GA USED    *         2.40 MB       (max)       0.00 MB       (current)
 **********************************************************************************************************************************

    UCCSD(T)-F12        HF-SCF  
   -117.72970468   -117.12353431
 **********************************************************************************************************************************
 Variable memory released
