
 Primary working directories    : /scratch/scratchdirs/nyee88
 Secondary working directories  : /scratch/scratchdirs/nyee88
 Wavefunction directory         : /global/homes/n/nyee88/wfu/
 Main file repository           : /scratch/scratchdirs/nyee88/

 SHA1      : d03110ad91d449d0c5f19172a0c0ba2e2d66b3a5
 NAME      : 2012.1.21
 ARCHNAME  : Linux/XT
 FC        : /opt/cray/craype/2.2.1/bin/ftn
 FCVERSION : 14.2-0
 BLASLIB   : 
 id        : lbl

 Nodes     nprocs
 nid01313     5
 nid01278     5
 nid01279     5
 nid01792     5
 Number of processes for MPI-2 version of Molpro:   nprocs(total)=   24   nprocs(compute)=   20   nprocs(helper)=    4
 ga_uses_ma=false, calling ma_init with nominal heap.
 GA-space will be limited to   8.0 MW (determined by -G option)

 Using customized tuning parameters: mindgm=7; mindgv=24; mindgc=4; mindgr=2; noblas=0; minvec=7
 default implementation of scratch files=sf  

 geometry = {angstrom
  O
  H                  1              B1
  O                  1              B2    2              A1
  C                  3              B3    1              A2    2              D1
  H                  4              B4    3              A3    1              D2
  O                  4              B5    3              A4    1              D3
 }
 
       B1 =           0.98928439
       B2 =           1.44494303
       B3 =           1.34348654
       B4 =           1.09773605
       B5 =           1.20913760
       A1 =         100.43774302
       A2 =         111.19282699
       A3 =         108.52143121
       A4 =         124.49352321
       D1 =           3.21060516
       D2 =         179.31497512
       D3 =          -1.01000037
 
 memory,3000,M
 basis = vtz-f12
 hf
 ccsd(t)-f12,scale_trip=1

 Variables initialized (782), CPU time= 0.03 sec
 Commands  initialized (547), CPU time= 0.02 sec, 517 directives.
 Default parameters read. Elapsed time= 0.78 sec

 Checking input...
 Passed
1


                                         ***  PROGRAM SYSTEM MOLPRO  ***
                         Copyright, University College Cardiff Consultants Limited, 2008

                                    Version 2012.1 linked Mar 12 2015 14:11:14


 **********************************************************************************************************************************
 LABEL *                                                                                 
 Linux-3.0.101-0.31.1_1.0502.8394-cray_gem_c/nid01313(x86_64) 64 bit mpp version         DATE: 04-May-15          TIME: 18:30:47  
 **********************************************************************************************************************************

 SHA1:             d03110ad91d449d0c5f19172a0c0ba2e2d66b3a5
 **********************************************************************************************************************************
 SETTING B1             =         0.98928439                                  
 SETTING B2             =         1.44494303                                  
 SETTING B3             =         1.34348654                                  
 SETTING B4             =         1.09773605                                  
 SETTING B5             =         1.20913760                                  
 SETTING A1             =       100.43774302                                  
 SETTING A2             =       111.19282699                                  
 SETTING A3             =       108.52143121                                  
 SETTING A4             =       124.49352321                                  
 SETTING D1             =         3.21060516                                  
 SETTING D2             =       179.31497512                                  
 SETTING D3             =        -1.01000037                                  

 Variable memory set to 3000000000 words,  buffer space   230000 words

 SETTING BASIS          =    VTZ-F12


 Recomputing integrals since basis changed


 Using spherical harmonics

 Library entry O      S cc-pVTZ-F12          selected for orbital group  1
 Library entry O      P cc-pVTZ-F12          selected for orbital group  1
 Library entry O      D cc-pVTZ-F12          selected for orbital group  1
 Library entry O      F cc-pVTZ-F12          selected for orbital group  1
 Library entry H      S cc-pVTZ-F12          selected for orbital group  2
 Library entry H      P cc-pVTZ-F12          selected for orbital group  2
 Library entry H      D cc-pVTZ-F12          selected for orbital group  2
 Library entry C      S cc-pVTZ-F12          selected for orbital group  4
 Library entry C      P cc-pVTZ-F12          selected for orbital group  4
 Library entry C      D cc-pVTZ-F12          selected for orbital group  4
 Library entry C      F cc-pVTZ-F12          selected for orbital group  4

1PROGRAM * SEWARD (Integral evaluation for generally contracted gaussian basis sets)     Author: Roland Lindh, 1990

 Geometry written to block  1 of record 700

 Orientation using atomic masses  
 Molecule type: Asymmetric top
 Rotational constants:       5.4989294      7.5424803     20.2917176 GHz  (calculated with average atomic masses)

 Point group  C1  



 ATOMIC COORDINATES

 NR  ATOM    CHARGE       X              Y              Z

   1  O       8.00    0.008463782   -1.023219328   -2.454766659
   2  H       1.00   -0.075976151   -2.229678302   -1.029189841
   3  O       8.00   -0.008536771    1.346778176   -1.098777145
   4  C       6.00    0.006916651    0.968020069    1.411585123
   5  H       1.00    0.016666984    2.814671722    2.356573488
   6  O       8.00   -0.001383054   -1.087120438    2.410221430

 Bond lengths in Bohr (Angstrom)

 1-2  1.869476563  1-3  2.730546602  3-4  2.538821622  4-5  2.074420499  4-6  2.284938919
     ( 0.989284390)     ( 1.444943030)     ( 1.343486540)     ( 1.097736050)     ( 1.209137600)

 Bond angles

  1-3-4  111.19282699   2-1-3  100.43774302   3-4-5  108.52143121   3-4-6  124.49352321

  5-4-6  126.98414392

 NUCLEAR CHARGE:                   32
 NUMBER OF PRIMITIVE AOS:         330
 NUMBER OF SYMMETRY AOS:          292
 NUMBER OF CONTRACTIONS:          248   ( 248A   )
 NUMBER OF CORE ORBITALS:           4   (   4A   )
 NUMBER OF VALENCE ORBITALS:       18   (  18A   )


 NUCLEAR REPULSION ENERGY  121.28100403


 Eigenvalues of metric

         1 0.130E-03 0.174E-03 0.223E-03 0.332E-03 0.403E-03 0.417E-03 0.478E-03 0.515E-03


 Contracted 2-electron integrals neglected if value below      1.0D-11
 AO integral compression algorithm  1   Integral accuracy      1.0D-11

     2004.091 MB (compressed) written to integral file ( 44.7%)

     Node minimum: 85.459 MB, node maximum: 114.295 MB


 NUMBER OF SORTED TWO-ELECTRON INTEGRALS:   23823920.     BUFFER LENGTH:  32768
 NUMBER OF SEGMENTS:   2  SEGMENT LENGTH:   15989600      RECORD LENGTH: 524288

 Memory used in sort:      16.55 MW

 SORT1 READ   559940688. AND WROTE    22573043. INTEGRALS IN     66 RECORDS. CPU TIME:    34.62 SEC, REAL TIME:    36.35 SEC
 SORT2 READ   448880353. AND WROTE   476679126. INTEGRALS IN   7680 RECORDS. CPU TIME:     1.51 SEC, REAL TIME:     4.69 SEC

 Node minimum:    23819291.  Node maximum:    23848624. integrals

 OPERATOR DM      FOR CENTER  0  COORDINATES:    0.000000    0.000000    0.000000


 **********************************************************************************************************************************
 DATASETS  * FILE   NREC   LENGTH (MB)   RECORD NAMES
              1      18        9.89       500      610      700      900      950      970     1000      129      960     1100   
                                          VAR    BASINP    GEOM    SYMINP    ZMAT    AOBASIS   BASIS     P2S    ABASIS      S 
                                         1400     1410     1200     1210     1080     1600     1650     1700   
                                           T        V       H0       H01     AOSYM     SMH    MOLCAS    OPER   

 PROGRAMS   *        TOTAL       INT
 CPU TIMES  *        49.17     48.84
 REAL TIME  *        60.74 SEC
 DISK USED  *         7.38 GB      
 GA USED    *         0.00 MB       (max)       0.00 MB       (current)
 **********************************************************************************************************************************

1PROGRAM * RHF-SCF (CLOSED SHELL)       Authors: W. Meyer, H.-J. Werner


 NUMBER OF ELECTRONS:      16+   16-    SPACE SYMMETRY=1    SPIN SYMMETRY: Singlet 
 CONVERGENCE THRESHOLDS:    1.00E-05 (Density)    1.00E-07 (Energy)
 MAX. NUMBER OF ITERATIONS:       60
 INTERPOLATION TYPE:            DIIS
 INTERPOLATION STEPS:              2 (START)      1 (STEP)
 LEVEL SHIFTS:                  0.00 (CLOSED)  0.00 (OPEN) 



 Orbital guess generated from atomic densities. Full valence occupancy:   22

 Molecular orbital dump at record        2100.2

 ITERATION    DDIFF          GRAD             ENERGY        2-EL.EN.            DIPOLE MOMENTS         DIIS   ORB.
    1      0.000D+00      0.000D+00      -263.53199299    434.178818   -0.03068    1.06043    0.29971    0    start
    2      0.000D+00      0.583D-02      -263.58578396    435.908153   -0.01935   -0.00977    0.55051    1    diag
    3      0.582D-02      0.439D-02      -263.63354604    435.993815   -0.02060    0.58407    0.33963    2    diag
    4      0.280D-02      0.666D-03      -263.63537323    435.781489   -0.02078    0.49970    0.38095    3    diag
    5      0.542D-03      0.241D-03      -263.63568830    435.825312   -0.02089    0.50622    0.37554    4    diag
    6      0.243D-03      0.805D-04      -263.63574162    435.868405   -0.02075    0.50166    0.37656    5    diag
    7      0.962D-04      0.425D-04      -263.63575696    435.852886   -0.02080    0.49990    0.37772    6    diag
    8      0.624D-04      0.135D-04      -263.63575852    435.856370   -0.02080    0.49890    0.37733    7    diag
    9      0.212D-04      0.485D-05      -263.63575871    435.858115   -0.02081    0.49882    0.37784    8    diag
   10      0.680D-05      0.199D-05      -263.63575874    435.857188   -0.02080    0.49879    0.37786    9    orth
   11      0.301D-05      0.640D-06      -263.63575874    435.857560   -0.02080    0.49879    0.37795    0    orth

 Final occupancy:  16

 !RHF STATE 1.1 Energy               -263.635758744765
 Nuclear energy                       121.28100403
 One-electron energy                 -602.84554275
 Two-electron energy                  217.92877998
 Virial quotient                       -1.00163781
 !RHF STATE 1.1 Dipole moment          -0.02080490     0.49879182     0.37795054
 Dipole moment /Debye                  -0.05287732     1.26771931     0.96059154

 Orbital energies:

         1.1          2.1          3.1          4.1          5.1          6.1          7.1          8.1          9.1         10.1
    -20.685768   -20.659704   -20.591549   -11.419661    -1.549469    -1.423016    -1.277029    -0.884143    -0.793757    -0.719551

        11.1         12.1         13.1         14.1         15.1         16.1         17.1         18.1
     -0.702280    -0.619090    -0.607752    -0.568429    -0.506308    -0.486484     0.047564     0.062103

 HOMO     16.1    -0.486484 =     -13.2379eV
 LUMO     17.1     0.047564 =       1.2943eV
 LUMO-HOMO         0.534048 =      14.5322eV


 **********************************************************************************************************************************
 DATASETS  * FILE   NREC   LENGTH (MB)   RECORD NAMES
              1      18        9.89       500      610      700      900      950      970     1000      129      960     1100   
                                          VAR    BASINP    GEOM    SYMINP    ZMAT    AOBASIS   BASIS     P2S    ABASIS      S 
                                         1400     1410     1200     1210     1080     1600     1650     1700   
                                           T        V       H0       H01     AOSYM     SMH    MOLCAS    OPER   

              2       4        1.63       700     1000      520     2100   
                                         GEOM     BASIS   MCVARS     RHF  

 PROGRAMS   *        TOTAL        HF       INT
 CPU TIMES  *        57.78      8.61     48.84
 REAL TIME  *        70.37 SEC
 DISK USED  *         7.70 GB      
 SF USED    *         0.25 MB      
 GA USED    *         0.00 MB       (max)       0.00 MB       (current)
 **********************************************************************************************************************************


1PROGRAM * CCSD (Closed-shell coupled cluster)     Authors: C. Hampel, H.-J. Werner, 1991, M. Deegan, P.J. Knowles, 1992

                                  CCSD-F12 implementation by  H.-J. Werner, 2007

                   Density fitting integral evaluation by F.R. Manby, 2003,2007, G. Knizia, 2010

 Basis set CC-PVTZ/JKFIT generated.      Number of basis functions:   376 
 Basis set CC-PVTZ-F12/OPTRI generated.  Number of basis functions:   382 
 Basis set AUG-CC-PVTZ/MP2FIT generated. Number of basis functions:   516 

 Convergence thresholds:  THRVAR = 1.00D-08  THRDEN = 1.00D-06

 CCSD(T)     terms to be evaluated (factor= 1.000)


 Number of core orbitals:           4 (   4 )
 Number of closed-shell orbitals:  12 (  12 )
 Number of external orbitals:     232 ( 232 )

 Molecular orbitals read from record     2100.2  Type=RHF/CANONICAL (state 1.1)

 MP2-F12 correlation treatment (H.-J. Werner, 2006)
 ==================================================

 Using MP2-F12 with ansatz 3C(FIX)

 Using projected zeroth-order Hamiltonian (+Z)

 FOCKRIB=T FOCKRIC=T FOCKRIP=T CABSP=T CABSA=T CABSK=T CABSF=T GBC=F EBC=F DMAT=T NOFIK=T NOPAO=1 SOLVE=-1  USEPAO=0
 EXCH_A= T EXCH_B= F EXCH_C= F EXCH_P= F
 
 Geminal basis:    OPTFULL  GEM_TYPE=SLATER  BETA=1.0  NGEM=6

 Optimizing Gaussian exponents for each gem_beta

 Geminal optimization for beta= 1.0000
 Weight function:   m=0, omega= 1.4646

 Augmented Hessian optimization of geminal fit. Trust ratio= 0.40000
 Convergence reached after   2 iterations. Final gradient= 8.42D-16, Step= 4.39D-06, Delta= 1.28D-09
 
 Alpha:                 0.19532     0.81920     2.85917     9.50073    35.69989   197.79328
 Coeff:                 0.27070     0.30552     0.18297     0.10986     0.06810     0.04224
 

 All pairs explicitly correlated. Number of r12-pairs:           78

 Excluding core orbitals from MO domains
 
 AO(A)-basis ORBITAL           loaded. Number of functions:     248
 RI(R)-basis CC-PVTZ-F12/OPTRI loaded. Number of functions:     382
 DF-basis CC-PVTZ/JKFIT        loaded. Number of functions:     376

 Screening thresholds:   THRAO=  1.00D-10  THRMO=  1.00D-09  THRPROD=  1.00D-09
                         THRSW=  1.00D-05  THROV=  1.00D-12  THRF12=   1.00D-08

 CPU time for Fock operators                      1.65 sec
 
 Construction of ABS:
 Smallest eigenvalue of S          3.38E-04  (threshold= 1.00E-08)
 Ratio eigmin/eigmax               1.67E-06  (threshold= 1.00E-09)
 Smallest eigenvalue of S kept     3.38E-04  (threshold= 3.38E-04, 0 functions deleted, 382 kept)
 
 Construction of CABS:
 Smallest eigenvalue of S          5.64E-07  (threshold= 1.00E-08)
 Ratio eigmin/eigmax               5.64E-07  (threshold= 1.00E-09)
 Smallest eigenvalue of S kept     5.64E-07  (threshold= 5.64E-07, 0 functions deleted, 382 kept)
 
 CPU time for CABS singles                        0.91 sec

 CABS-singles contribution of  -0.00242163 patched into reference energy.
 New reference energy        -263.63818037
 
 AO(A)-basis ORBITAL           loaded. Number of functions:     248
 RI(R)-basis CC-PVTZ-F12/OPTRI loaded. Number of functions:     382
 DF-basis AUG-CC-PVTZ/MP2FIT   loaded. Number of functions:     516

 Screening thresholds:   THRAO=  1.00D-10  THRMO=  1.00D-09  THRPROD=  1.00D-09
                         THRSW=  1.00D-05  THROV=  1.00D-12  THRF12=   1.00D-08

 CPU time for 3-index integral evaluation         3.21 sec
 CPU time for first  half transformation          0.11 sec ( 4532.1 MFLOP/sec)
 CPU time for second half transformation          0.11 sec (  163.6 MFLOP/sec)
 CPU time for sorting                             0.26 sec
 CPU time for fitting                             0.31 sec ( 1367.4 MFLOP/sec)
 CPU time for tilde quantities                    0.26 sec ( 1831.0 MFLOP/sec)
 CPU time for assembly                            1.20 sec ( 3233.2 MFLOP/sec)
 CPU time for tranop_f12                          1.78 sec ( 2965.0 MFLOP/sec)
 CPU time for f12 integrals (total)              11.73 sec, Elapsed time:     28.09 sec
 F12-matrices built in 20 passes.
 F12-matrices built in 20 passes.
 F12-matrices built in 20 passes.
 F12-matrices built in 20 passes.
 FC-matrix built in 20 passes.
 CPU time for f12 matrices (total)                1.42 sec, Elapsed time:      1.70 sec

 Diagonal F12 approximation with fixed coefficients:  TSING= 0.500,  TTRIP= 0.250 (scaled by -1/beta)

 DF-MP2-F12 energy corrections:
 ==============================
 Approx.                                    Singlet             Triplet             Total
 DF-MP2-F12/3*C(DX,FIX)                -0.077462230717     -0.010083639924     -0.087545870641
 DF-MP2-F12/3*C(FIX)                   -0.071670825936     -0.009178407210     -0.080849233147
 DF-MP2-F12/3C(FIX)                    -0.071542511564     -0.009569534723     -0.081112046287

 DF-MP2-F12 correlation energies:
 ================================
 Approx.                                    Singlet             Triplet             Ecorr            Total Energy
 DF-MP2                                -0.561736969673     -0.349525433437     -0.911262403109   -264.549442772944
 DF-MP2-F12/3*C(DX,FIX)                -0.639199200390     -0.359609073361     -0.998808273751   -264.636988643585
 DF-MP2-F12/3*C(FIX)                   -0.633407795609     -0.358703840647     -0.992111636256   -264.630292006091
 DF-MP2-F12/3C(FIX)                    -0.633279481237     -0.359094968160     -0.992374449397   -264.630554819231

 SCS-DF-MP2 energies (F_SING= 1.20000  F_TRIP= 0.62222  F_PARALLEL= 0.33333):
 ============================================================================
 SCS-DF-MP2                            -0.891566855523   -264.529747225358
 SCS-DF-MP2-F12/3*C(DX,FIX)            -0.990795797226   -264.628976167060
 SCS-DF-MP2-F12/3*C(FIX)               -0.983282855578   -264.621463225413
 SCS-DF-MP2-F12/3C(FIX)                -0.983372246561   -264.621552616396
 Symmetry transformation completed.

 Number of N-1 electron functions:              12
 Number of N-2 electron functions:              78
 Number of singly external CSFs:              2784
 Number of doubly external CSFs:           3876720
 Total number of CSFs:                     3879505

 Pair and operator lists are different

 Length of J-op  integral file:             522.26 MB
 Length of K-op  integral file:             643.19 MB
 Length of 3-ext integral record:             0.00 MB

 Memory could be reduced to 191.55 Mwords without degradation in triples

 Integral transformation finished. Total CPU:  56.70 sec, npass=  1  Memory used: 108.88 MW

 Reference energy:                   -263.63818037

 Adding F12 terms to K(Cij), methodcc=6,  factor= 1.0

 ITER.      SQ.NORM     CORR.ENERGY   TOTAL ENERGY   ENERGY CHANGE        DEN1      VAR(S)    VAR(P)  DIIS     TIME
   1      1.21497580    -0.90043775  -264.53861812     0.01091460     0.04074237  0.72D-02  0.53D-02  1  1    85.26
   2      1.23252802    -0.89816217  -264.53634254     0.00227558    -0.02250521  0.16D-03  0.73D-03  2  2    98.20
   3      1.23987908    -0.89866691  -264.53684728    -0.00050474    -0.00267539  0.23D-03  0.54D-04  3  3   110.58
   4      1.24488716    -0.89866083  -264.53684120     0.00000609    -0.00218764  0.26D-04  0.11D-04  4  4   122.80
   5      1.24709139    -0.89867621  -264.53685658    -0.00001539    -0.00055197  0.82D-05  0.13D-05  5  5   135.55
   6      1.24797212    -0.89864342  -264.53682379     0.00003279    -0.00007021  0.95D-06  0.38D-06  6  6   147.49
   7      1.24824033    -0.89863512  -264.53681549     0.00000830    -0.00002409  0.29D-06  0.60D-07  6  1   159.97
   8      1.24832418    -0.89863366  -264.53681403     0.00000146    -0.00001095  0.40D-07  0.16D-07  6  2   172.43
   9      1.24834315    -0.89863293  -264.53681330     0.00000073     0.00000360  0.79D-08  0.24D-08  6  3   184.73
  10      1.24835530    -0.89863293  -264.53681330     0.00000000    -0.00000397  0.12D-08  0.31D-09  6  4   197.29

 Norm of t1 vector:      0.12491420      S-energy:     0.00000121      T1 diagnostic:  0.01802981
                                                                       D1 diagnostic:  0.06523573

 Adding energy correction from Wij-K(Fij), methodcc=6  factor= 1.0
 
  CCSD correlation energy              -0.898632933859
  MP2-F12 correction (uncoupled)       -0.077096827066
  C*T doubles correction               -0.002864300449
  f12b correction                       0.013413993328


 Total CPU time for triples:    142.56 sec

  Ecorr(MP2)                           -0.911352348175
  Ecorr(MP2-F12)                       -0.992464394462
  Scale factor for triples energy       1.089001851424


 RESULTS
 =======

  Reference energy                   -263.635758744765
  F12 singles correction               -0.002421625070

 F12 singles corrections added to reference energy

  New reference energy               -263.638180369835

  F12a singlet correction              -0.070825668032
  F12a triplet correction              -0.009135459483
  F12a total correction                -0.079961127515

 F12a corrections for ansatz F12/3C(FIX) added to CCSD energy
 
  CCSD-F12a singlet pair energy        -0.664079514121
  CCSD-F12a triplet pair energy        -0.314515755614
  CCSD-F12a correlation energy         -0.978594061374

  Triples (T) contribution (scaled)    -0.045866709749
  Total correlation energy             -1.024460771123

  CCSD-F12a total energy             -264.616774431208
  CCSD[T]-F12a energy                -264.665327484712
  CCSD-T-F12a energy                 -264.661675755778
 !CCSD(T)-F12a total energy          -264.662641140957

 F12b corrections for ansatz F12/3C(FIX) added to CCSD(T)-F12a energy

  CCSD-F12b singlet pair energy        -0.651692731563
  CCSD-F12b triplet pair energy        -0.313488544846
  CCSD-F12b correlation energy         -0.965180068046

  Triples (T) contribution (scaled)    -0.045866709749
  Total correlation energy             -1.011046777795

  CCSD-F12b total energy             -264.603360437881
  CCSD[T]-F12b energy                -264.651913491384
  CCSD-T-F12b energy                 -264.648261762450
 !CCSD(T)-F12b total energy          -264.649227147630

 Timing summary (sec):

 STEP                 CPU(USER)    SYS     CPU(TOT)    WALL
 Transformation         56.90     10.74     67.64     70.47
 CCSD iterations       122.65     25.44    148.09    168.26
 Triples               142.56     10.87    153.43    158.24
 MP2-F12                17.83      5.63     23.46     37.21
 F12b energy             7.94      0.59      8.53      9.00

 Program statistics:

 Available memory in ccsd:              2999998934
 Min. memory needed in ccsd:              10122141
 Max. memory used in ccsd:                13600269
 Max. memory used in cckext:              10183028 (11 integral passes)



 **********************************************************************************************************************************
 DATASETS  * FILE   NREC   LENGTH (MB)   RECORD NAMES
              1      19      670.65       500      610      700      900      950      970     1000      129      960     1100   
                                          VAR    BASINP    GEOM    SYMINP    ZMAT    AOBASIS   BASIS     P2S    ABASIS      S 
                                         1400     1410     1200     1210     1080     1600     1650     1700     1380   
                                           T        V       H0       H01     AOSYM     SMH    MOLCAS    OPER     JKOP   

              2       6        2.87       700     1000      520     2100     7360     7350   
                                         GEOM     BASIS   MCVARS     RHF    F12ABS    EF12   

 PROGRAMS   *        TOTAL   CCSD(T)        HF       INT
 CPU TIMES  *       405.94    348.02      8.61     48.84
 REAL TIME  *       513.95 SEC
 DISK USED  *         8.77 GB      
 SF USED    *         2.21 GB      
 GA USED    *         2.40 MB       (max)       0.00 MB       (current)
 **********************************************************************************************************************************

     CCSD(T)-F12        HF-SCF  
   -264.64922715   -263.63575874
 **********************************************************************************************************************************
 Variable memory released
