 Entering Gaussian System, Link 0=g03
 Input=TS7freq.gjf
 Output=TS7freq.log
 Initial command:
 /opt/g03/l1.exe /scratch/nyee/Gau-22419.inp -scrdir=/scratch/nyee/
 Entering Link 1 = /opt/g03/l1.exe PID=     22421.
  
 Copyright (c) 1988,1990,1992,1993,1995,1998,2003,2004, Gaussian, Inc.
                  All Rights Reserved.
  
 This is the Gaussian(R) 03 program.  It is based on the
 the Gaussian(R) 98 system (copyright 1998, Gaussian, Inc.),
 the Gaussian(R) 94 system (copyright 1995, Gaussian, Inc.),
 the Gaussian 92(TM) system (copyright 1992, Gaussian, Inc.),
 the Gaussian 90(TM) system (copyright 1990, Gaussian, Inc.),
 the Gaussian 88(TM) system (copyright 1988, Gaussian, Inc.),
 the Gaussian 86(TM) system (copyright 1986, Carnegie Mellon
 University), and the Gaussian 82(TM) system (copyright 1983,
 Carnegie Mellon University). Gaussian is a federally registered
 trademark of Gaussian, Inc.
  
 This software contains proprietary and confidential information,
 including trade secrets, belonging to Gaussian, Inc.
  
 This software is provided under written license and may be
 used, copied, transmitted, or stored only in accord with that
 written license.
  
 The following legend is applicable only to US Government
 contracts under FAR:
  
                    RESTRICTED RIGHTS LEGEND
  
 Use, reproduction and disclosure by the US Government is
 subject to restrictions as set forth in subparagraphs (a)
 and (c) of the Commercial Computer Software - Restricted
 Rights clause in FAR 52.227-19.
  
 Gaussian, Inc.
 340 Quinnipiac St., Bldg. 40, Wallingford CT 06492
  
  
 ---------------------------------------------------------------
 Warning -- This program may not be used in any manner that
 competes with the business of Gaussian, Inc. or will provide
 assistance to any competitor of Gaussian, Inc.  The licensee
 of this program is prohibited from giving any competitor of
 Gaussian, Inc. access to this program.  By using this program,
 the user acknowledges that Gaussian, Inc. is engaged in the
 business of creating and licensing software in the field of
 computational chemistry and represents and warrants to the
 licensee that it is not a competitor of Gaussian, Inc. and that
 it will not use this program in any manner prohibited above.
 ---------------------------------------------------------------
  

 Cite this work as:
 Gaussian 03, Revision D.01,
 M. J. Frisch, G. W. Trucks, H. B. Schlegel, G. E. Scuseria, 
 M. A. Robb, J. R. Cheeseman, J. A. Montgomery, Jr., T. Vreven, 
 K. N. Kudin, J. C. Burant, J. M. Millam, S. S. Iyengar, J. Tomasi, 
 V. Barone, B. Mennucci, M. Cossi, G. Scalmani, N. Rega, 
 G. A. Petersson, H. Nakatsuji, M. Hada, M. Ehara, K. Toyota, 
 R. Fukuda, J. Hasegawa, M. Ishida, T. Nakajima, Y. Honda, O. Kitao, 
 H. Nakai, M. Klene, X. Li, J. E. Knox, H. P. Hratchian, J. B. Cross, 
 V. Bakken, C. Adamo, J. Jaramillo, R. Gomperts, R. E. Stratmann, 
 O. Yazyev, A. J. Austin, R. Cammi, C. Pomelli, J. W. Ochterski, 
 P. Y. Ayala, K. Morokuma, G. A. Voth, P. Salvador, J. J. Dannenberg, 
 V. G. Zakrzewski, S. Dapprich, A. D. Daniels, M. C. Strain, 
 O. Farkas, D. K. Malick, A. D. Rabuck, K. Raghavachari, 
 J. B. Foresman, J. V. Ortiz, Q. Cui, A. G. Baboul, S. Clifford, 
 J. Cioslowski, B. B. Stefanov, G. Liu, A. Liashenko, P. Piskorz, 
 I. Komaromi, R. L. Martin, D. J. Fox, T. Keith, M. A. Al-Laham, 
 C. Y. Peng, A. Nanayakkara, M. Challacombe, P. M. W. Gill, 
 B. Johnson, W. Chen, M. W. Wong, C. Gonzalez, and J. A. Pople, 
 Gaussian, Inc., Wallingford CT, 2004.
 
 ******************************************
 Gaussian 03:  AM64L-G03RevD.01 13-Oct-2005
                 9-Jun-2013 
 ******************************************
 %chk=TS7freq.chk
 %mem=1000mb
 %nproc=8
 Will use up to    8 processors via shared memory.
 -------------------------------------
 # freq nosymm b3lyp/cbsb7 iop(7/33=1)
 -------------------------------------
 1/10=4,30=1,38=1/1,3;
 2/15=1,17=6,18=5,40=1/2;
 3/5=4,6=6,7=700,11=2,16=1,25=1,30=1,74=-5/1,2,3;
 4//1;
 5/5=2,38=5/2;
 8/6=4,10=90,11=11/1;
 11/6=1,8=1,9=11,15=111,16=1,31=1/1,2,10;
 10/6=1,31=1/2;
 6/7=2,8=2,9=2,10=2,18=1,28=1/1;
 7/8=1,10=1,25=1,30=1,33=1/1,2,3,16;
 1/10=4,30=1/3;
 99//99;
 -------------------
 Title Card Required
 -------------------
 Symbolic Z-matrix:
 Charge =  0 Multiplicity = 2
 C                    -4.03307   0.96137   0.29405 
 H                    -3.78815   0.55386   1.53884 
 H                    -3.67378   1.96669   0.08287 
 O                    -5.37867   0.88772   0.04612 
 H                    -5.6642   -0.01894   0.23022 
 C                    -3.16751  -0.23668  -0.18879 
 C                    -1.68398   0.11965  -0.11619 
 H                    -1.08515  -0.76643  -0.33671 
 H                    -1.4337    0.89743  -0.84241 
 H                    -1.42431   0.46902   0.88313 
 C                    -3.57061  -0.80869  -1.54195 
 H                    -3.36704  -0.08472  -2.33406 
 H                    -2.99741  -1.71571  -1.74663 
 H                    -4.63201  -1.05871  -1.57104 
 O                    -3.51947  -1.23712   0.79789 
 O                    -3.41732  -0.551     2.0433 
 

 GradGradGradGradGradGradGradGradGradGradGradGradGradGradGradGradGradGrad
 Berny optimization.
 Initialization pass.
 Trust Radius=3.00D-01 FncErr=1.00D-07 GrdErr=1.00D-07
 Number of steps in this run=   2 maximum allowed number of steps=   2.
 GradGradGradGradGradGradGradGradGradGradGradGradGradGradGradGradGradGrad

                          Input orientation:                          
 ---------------------------------------------------------------------
 Center     Atomic     Atomic              Coordinates (Angstroms)
 Number     Number      Type              X           Y           Z
 ---------------------------------------------------------------------
    1          6             0       -4.033069    0.961365    0.294052
    2          1             0       -3.788147    0.553859    1.538842
    3          1             0       -3.673776    1.966689    0.082874
    4          8             0       -5.378670    0.887715    0.046119
    5          1             0       -5.664196   -0.018942    0.230217
    6          6             0       -3.167512   -0.236682   -0.188789
    7          6             0       -1.683976    0.119649   -0.116192
    8          1             0       -1.085154   -0.766428   -0.336712
    9          1             0       -1.433703    0.897425   -0.842407
   10          1             0       -1.424310    0.469017    0.883129
   11          6             0       -3.570605   -0.808692   -1.541954
   12          1             0       -3.367039   -0.084719   -2.334064
   13          1             0       -2.997408   -1.715710   -1.746631
   14          1             0       -4.632008   -1.058706   -1.571044
   15          8             0       -3.519474   -1.237119    0.797891
   16          8             0       -3.417316   -0.550996    2.043299
 ---------------------------------------------------------------------
                    Distance matrix (angstroms):
                    1          2          3          4          5
     1  C    0.000000
     2  H    1.332498   0.000000
     3  H    1.088285   2.031997   0.000000
     4  O    1.370233   2.206682   2.017969   0.000000
     5  H    1.904114   2.357999   2.815353   0.968217   0.000000
     6  C    1.554877   1.998713   2.277048   2.491720   2.540946
     7  C    2.528838   2.712049   2.722221   3.777173   3.997669
     8  H    3.474670   3.545001   3.787736   4.617037   4.674160
     9  H    2.837663   3.366273   2.649037   4.043802   4.459520
    10  H    2.719383   2.454564   2.818426   4.063601   4.317526
    11  C    2.591890   3.375674   3.217678   2.944295   2.854368
    12  H    2.906008   3.947723   3.184957   3.264592   3.443370
    13  H    3.521890   4.070693   4.167088   3.957548   3.728097
    14  H    2.813894   3.603312   3.578641   2.638423   2.321866
    15  O    2.313215   1.956731   3.286251   2.921762   2.531016
    16  O    2.392959   1.269920   3.201215   3.147305   2.935782
                    6          7          8          9         10
     6  C    0.000000
     7  C    1.527456   0.000000
     8  H    2.153770   1.091947   0.000000
     9  H    2.172443   1.093142   1.773590   0.000000
    10  H    2.164665   1.090012   1.769001   1.777947   0.000000
    11  C    1.523396   2.540469   2.762582   2.822508   3.481401
    12  H    2.159886   2.791670   3.108238   2.632002   3.798835
    13  H    2.154839   2.784237   2.558461   3.176676   3.763417
    14  H    2.175109   3.492278   3.766852   3.819230   4.318128
    15  O    1.448547   2.458744   2.726681   3.405480   2.703309
    16  O    2.267909   2.849146   3.339138   3.789452   2.521605
                   11         12         13         14         15
    11  C    0.000000
    12  H    1.092252   0.000000
    13  H    1.092305   1.772523   0.000000
    14  H    1.090839   1.769462   1.770424   0.000000
    15  O    2.379294   3.340719   2.641249   2.623245   0.000000
    16  O    3.597769   4.402414   3.987035   3.846651   1.425567
                   16
    16  O    0.000000
 Symmetry turned off by external request.
 Stoichiometry    C4H9O3(2)
 Framework group  C1[X(C4H9O3)]
 Deg. of freedom    42
 Full point group                 C1
 Rotational constants (GHZ):      2.9305969      2.6503931      1.9937925
 Standard basis: CBSB7 (5D, 7F)
 Integral buffers will be    131072 words long.
 Raffenetti 2 integral format.
 Two-electron integral symmetry is turned off.
   180 basis functions,   296 primitive gaussians,   187 cartesian basis functions
    29 alpha electrons       28 beta electrons
       nuclear repulsion energy       342.7285249927 Hartrees.
 NAtoms=   16 NActive=   16 NUniq=   16 SFac= 7.50D-01 NAtFMM=   80 NAOKFM=F Big=F
 One-electron integrals computed using PRISM.
 NBasis=   180 RedAO= T  NBF=   180
 NBsUse=   180 1.00D-06 NBFU=   180
 Harris functional with IExCor=  402 diagonalized for initial guess.
 ExpMin= 1.03D-01 ExpMax= 8.59D+03 ExpMxC= 1.30D+03 IAcc=1 IRadAn=         1 AccDes= 1.00D-06
 HarFok:  IExCor= 402 AccDes= 1.00D-06 IRadAn=         1 IDoV=1
 ScaDFX=  1.000000  1.000000  1.000000  1.000000
 <S**2> of initial guess= 0.7500
 Requested convergence on RMS density matrix=1.00D-08 within 128 cycles.
 Requested convergence on MAX density matrix=1.00D-06.
 Requested convergence on             energy=1.00D-06.
 No special actions if energy rises.
 Integral accuracy reduced to 1.0D-05 until final iterations.
 Initial convergence to 1.0D-05 achieved.  Increase integral accuracy.
 SCF Done:  E(UB+HF-LYP) =  -383.445064809     A.U. after   22 cycles
             Convg  =    0.2229D-08             -V/T =  2.0033
             S**2   =   0.7571
 Annihilation of the first spin contaminant:
 S**2 before annihilation     0.7571,   after     0.7500
 Range of M.O.s used for correlation:     1   180
 NBasis=   180 NAE=    29 NBE=    28 NFC=     0 NFV=     0
 NROrb=    180 NOA=    29 NOB=    28 NVA=   151 NVB=   152
 Symmetrizing basis deriv contribution to polar:
 IMax=3 JMax=2 DiffMx= 0.00D+00
 G2DrvN: will do   17 centers at a time, making    1 passes doing MaxLOS=2.
 FoFDir/FoFCou used for L=0 through L=2.
 DoAtom=TTTTTTTTTTTTTTTT
          Differentiating once with respect to electric field.
                with respect to dipole field.
          Differentiating once with respect to nuclear coordinates.
 Symmetry not used in FoFDir.
 MinBra= 0 MaxBra= 2 Meth= 1.
 IRaf=       0 NMat=  51 IRICut=      51 DoRegI=T DoRafI=T ISym2E= 0 JSym2E=0.
          There are  51 degrees of freedom in the 1st order CPHF.
    48 vectors were produced by pass  0.
 AX will form  48 AO Fock derivatives at one time.
    48 vectors were produced by pass  1.
    48 vectors were produced by pass  2.
    48 vectors were produced by pass  3.
    48 vectors were produced by pass  4.
    48 vectors were produced by pass  5.
    30 vectors were produced by pass  6.
     4 vectors were produced by pass  7.
     3 vectors were produced by pass  8.
 Inv2:  IOpt= 1 Iter= 1 AM= 2.72D-15 Conv= 1.00D-12.
 Inverted reduced A of dimension  325 with in-core refinement.
 Isotropic polarizability for W=    0.000000       61.66 Bohr**3.
 End of Minotr Frequency-dependent properties file   721 does not exist.

 **********************************************************************

            Population analysis using the SCF density.

 **********************************************************************

 Alpha  occ. eigenvalues --  -19.17975 -19.17079 -19.16523 -10.25377 -10.25192
 Alpha  occ. eigenvalues --  -10.18148 -10.17332  -1.12878  -1.08018  -0.88603
 Alpha  occ. eigenvalues --   -0.79232  -0.71660  -0.70369  -0.60865  -0.52888
 Alpha  occ. eigenvalues --   -0.52525  -0.49243  -0.46554  -0.45886  -0.43301
 Alpha  occ. eigenvalues --   -0.41088  -0.40681  -0.39346  -0.38626  -0.36674
 Alpha  occ. eigenvalues --   -0.34535  -0.33703  -0.25494  -0.23484
 Alpha virt. eigenvalues --    0.02693   0.03509   0.04543   0.07346   0.09231
 Alpha virt. eigenvalues --    0.09602   0.10625   0.12156   0.13796   0.15983
 Alpha virt. eigenvalues --    0.17226   0.18274   0.18896   0.20819   0.22311
 Alpha virt. eigenvalues --    0.26716   0.31178   0.34006   0.34942   0.38139
 Alpha virt. eigenvalues --    0.39263   0.40093   0.42581   0.44385   0.48604
 Alpha virt. eigenvalues --    0.49662   0.52528   0.54586   0.56130   0.56712
 Alpha virt. eigenvalues --    0.57740   0.58733   0.59513   0.60755   0.61896
 Alpha virt. eigenvalues --    0.65168   0.67143   0.73233   0.77718   0.81779
 Alpha virt. eigenvalues --    0.84387   0.85180   0.87540   0.89097   0.91833
 Alpha virt. eigenvalues --    0.95504   0.98004   0.98830   1.00595   1.08016
 Alpha virt. eigenvalues --    1.15785   1.22351   1.23100   1.29096   1.32222
 Alpha virt. eigenvalues --    1.35303   1.37217   1.39478   1.41965   1.43672
 Alpha virt. eigenvalues --    1.45738   1.46235   1.47612   1.49111   1.49679
 Alpha virt. eigenvalues --    1.50729   1.52793   1.55252   1.58955   1.60112
 Alpha virt. eigenvalues --    1.62715   1.65472   1.67488   1.69875   1.73465
 Alpha virt. eigenvalues --    1.77368   1.79225   1.82879   1.87116   1.87484
 Alpha virt. eigenvalues --    1.91057   1.92378   1.97785   2.03549   2.05814
 Alpha virt. eigenvalues --    2.10327   2.12613   2.17815   2.23870   2.27128
 Alpha virt. eigenvalues --    2.29626   2.34130   2.35609   2.39338   2.42363
 Alpha virt. eigenvalues --    2.44924   2.46144   2.49344   2.50148   2.51075
 Alpha virt. eigenvalues --    2.53132   2.54698   2.58171   2.60069   2.60361
 Alpha virt. eigenvalues --    2.64430   2.67270   2.73970   2.79076   2.83824
 Alpha virt. eigenvalues --    2.84910   2.90395   2.91255   2.96624   3.00872
 Alpha virt. eigenvalues --    3.07649   3.12211   3.14387   3.15869   3.19203
 Alpha virt. eigenvalues --    3.28652   3.34377   3.41637   3.53104   3.61184
 Alpha virt. eigenvalues --    3.71852   3.76366   3.78471   3.80561   3.81315
 Alpha virt. eigenvalues --    3.81929   3.87821   3.97086   4.22240   4.25339
 Alpha virt. eigenvalues --    4.74141   4.80996   4.84173   4.90919   5.00074
 Alpha virt. eigenvalues --    5.24232   5.28993   5.61397   5.68414  23.69173
 Alpha virt. eigenvalues --   23.70033  23.89329  23.92941  49.77476  49.81267
 Alpha virt. eigenvalues --   49.89412
  Beta  occ. eigenvalues --  -19.17853 -19.16640 -19.15277 -10.25345 -10.24463
  Beta  occ. eigenvalues --  -10.18137 -10.17328  -1.11766  -1.07041  -0.86931
  Beta  occ. eigenvalues --   -0.78372  -0.71341  -0.69339  -0.60305  -0.52213
  Beta  occ. eigenvalues --   -0.50758  -0.48619  -0.46128  -0.44890  -0.42238
  Beta  occ. eigenvalues --   -0.40566  -0.40461  -0.38316  -0.38150  -0.36003
  Beta  occ. eigenvalues --   -0.32763  -0.31769  -0.24056
  Beta virt. eigenvalues --   -0.12362   0.02878   0.04091   0.04807   0.07486
  Beta virt. eigenvalues --    0.09358   0.09783   0.10721   0.12634   0.13873
  Beta virt. eigenvalues --    0.16724   0.17601   0.19042   0.19676   0.21247
  Beta virt. eigenvalues --    0.22424   0.26924   0.31378   0.34279   0.35303
  Beta virt. eigenvalues --    0.38498   0.39499   0.40227   0.43160   0.44847
  Beta virt. eigenvalues --    0.49012   0.50638   0.53230   0.54814   0.56300
  Beta virt. eigenvalues --    0.56920   0.57796   0.58984   0.59595   0.60926
  Beta virt. eigenvalues --    0.62024   0.65408   0.67469   0.73864   0.78709
  Beta virt. eigenvalues --    0.82473   0.85105   0.85606   0.87959   0.89588
  Beta virt. eigenvalues --    0.92451   0.96417   0.98524   0.99231   1.00893
  Beta virt. eigenvalues --    1.08617   1.16093   1.22473   1.23834   1.29363
  Beta virt. eigenvalues --    1.32435   1.35503   1.37423   1.40050   1.42475
  Beta virt. eigenvalues --    1.43761   1.45832   1.46981   1.47788   1.49546
  Beta virt. eigenvalues --    1.50420   1.51098   1.53104   1.55654   1.59340
  Beta virt. eigenvalues --    1.60412   1.62930   1.65827   1.67726   1.70129
  Beta virt. eigenvalues --    1.73555   1.77423   1.79629   1.83022   1.87255
  Beta virt. eigenvalues --    1.88002   1.91155   1.92948   1.98196   2.04350
  Beta virt. eigenvalues --    2.06044   2.10416   2.13300   2.19086   2.23992
  Beta virt. eigenvalues --    2.27495   2.29814   2.34216   2.35846   2.39479
  Beta virt. eigenvalues --    2.42471   2.45111   2.46304   2.49438   2.50315
  Beta virt. eigenvalues --    2.51313   2.53478   2.54842   2.58664   2.60137
  Beta virt. eigenvalues --    2.60571   2.65267   2.67538   2.74711   2.79724
  Beta virt. eigenvalues --    2.83977   2.85595   2.91383   2.92134   2.97540
  Beta virt. eigenvalues --    3.02179   3.08616   3.12686   3.14708   3.17035
  Beta virt. eigenvalues --    3.20520   3.29553   3.34804   3.42738   3.55130
  Beta virt. eigenvalues --    3.62260   3.72664   3.76432   3.78609   3.80970
  Beta virt. eigenvalues --    3.81996   3.82387   3.88315   3.97365   4.22649
  Beta virt. eigenvalues --    4.25446   4.74705   4.82023   4.85923   4.91656
  Beta virt. eigenvalues --    5.04257   5.24735   5.29389   5.61862   5.69025
  Beta virt. eigenvalues --   23.69446  23.70591  23.89362  23.92949  49.78633
  Beta virt. eigenvalues --   49.81569  49.89750
          Condensed to atoms (all electrons):
              1          2          3          4          5          6
     1  C    5.151657   0.273797   0.376832   0.278057  -0.054218   0.261951
     2  H    0.273797   0.506728  -0.015343  -0.014442  -0.004233  -0.050371
     3  H    0.376832  -0.015343   0.559052  -0.029260   0.009456  -0.042226
     4  O    0.278057  -0.014442  -0.029260   7.785869   0.313669  -0.040010
     5  H   -0.054218  -0.004233   0.009456   0.313669   0.464756  -0.005369
     6  C    0.261951  -0.050371  -0.042226  -0.040010  -0.005369   5.473023
     7  C   -0.078741  -0.004808   0.004863   0.004184   0.001297   0.266918
     8  H    0.007196   0.000076  -0.000390  -0.000203  -0.000008  -0.023198
     9  H   -0.000454   0.000044   0.001266  -0.000080  -0.000117  -0.031838
    10  H   -0.007276  -0.000588  -0.000747   0.000173  -0.000018  -0.030638
    11  C   -0.072107   0.003730  -0.002132   0.004042  -0.004107   0.308677
    12  H   -0.000951   0.000237   0.000963  -0.000483   0.000099  -0.030700
    13  H    0.008081  -0.000099  -0.000364   0.000142  -0.000432  -0.030952
    14  H   -0.015534   0.000413  -0.000243   0.011447   0.003471  -0.029849
    15  O   -0.056082  -0.052385   0.005393  -0.002012   0.014320   0.193472
    16  O   -0.085491   0.142733   0.002272  -0.000628   0.001366  -0.081066
              7          8          9         10         11         12
     1  C   -0.078741   0.007196  -0.000454  -0.007276  -0.072107  -0.000951
     2  H   -0.004808   0.000076   0.000044  -0.000588   0.003730   0.000237
     3  H    0.004863  -0.000390   0.001266  -0.000747  -0.002132   0.000963
     4  O    0.004184  -0.000203  -0.000080   0.000173   0.004042  -0.000483
     5  H    0.001297  -0.000008  -0.000117  -0.000018  -0.004107   0.000099
     6  C    0.266918  -0.023198  -0.031838  -0.030638   0.308677  -0.030700
     7  C    4.945502   0.391759   0.390145   0.401217  -0.050361  -0.002750
     8  H    0.391759   0.555090  -0.024263  -0.023590  -0.007851  -0.000163
     9  H    0.390145  -0.024263   0.588944  -0.028867  -0.005960   0.001275
    10  H    0.401217  -0.023590  -0.028867   0.544486   0.009087  -0.000030
    11  C   -0.050361  -0.007851  -0.005960   0.009087   4.881884   0.394905
    12  H   -0.002750  -0.000163   0.001275  -0.000030   0.394905   0.567715
    13  H   -0.009493   0.004073   0.000059  -0.000056   0.403139  -0.024816
    14  H    0.011027  -0.000441  -0.000318  -0.000216   0.393640  -0.025653
    15  O   -0.054075   0.002890   0.004415  -0.008577  -0.045114   0.003816
    16  O   -0.003647  -0.001061  -0.000080   0.021055   0.005994  -0.000241
             13         14         15         16
     1  C    0.008081  -0.015534  -0.056082  -0.085491
     2  H   -0.000099   0.000413  -0.052385   0.142733
     3  H   -0.000364  -0.000243   0.005393   0.002272
     4  O    0.000142   0.011447  -0.002012  -0.000628
     5  H   -0.000432   0.003471   0.014320   0.001366
     6  C   -0.030952  -0.029849   0.193472  -0.081066
     7  C   -0.009493   0.011027  -0.054075  -0.003647
     8  H    0.004073  -0.000441   0.002890  -0.001061
     9  H    0.000059  -0.000318   0.004415  -0.000080
    10  H   -0.000056  -0.000216  -0.008577   0.021055
    11  C    0.403139   0.393640  -0.045114   0.005994
    12  H   -0.024816  -0.025653   0.003816  -0.000241
    13  H    0.548310  -0.026350   0.001055  -0.000122
    14  H   -0.026350   0.577014   0.001678  -0.000381
    15  O    0.001055   0.001678   8.140142   0.080896
    16  O   -0.000122  -0.000381   0.080896   8.153649
 Mulliken atomic charges:
              1
     1  C    0.013283
     2  H    0.214510
     3  H    0.130609
     4  O   -0.310464
     5  H    0.260068
     6  C   -0.107823
     7  C   -0.213037
     8  H    0.120083
     9  H    0.105831
    10  H    0.124586
    11  C   -0.217466
    12  H    0.116776
    13  H    0.127824
    14  H    0.100295
    15  O   -0.229830
    16  O   -0.235246
 Sum of Mulliken charges=   0.00000
 Atomic charges with hydrogens summed into heavy atoms:
              1
     1  C    0.143893
     2  H    0.000000
     3  H    0.000000
     4  O   -0.050395
     5  H    0.000000
     6  C   -0.107823
     7  C    0.137463
     8  H    0.000000
     9  H    0.000000
    10  H    0.000000
    11  C    0.127429
    12  H    0.000000
    13  H    0.000000
    14  H    0.000000
    15  O   -0.229830
    16  O   -0.020736
 Sum of Mulliken charges=   0.00000
          Atomic-Atomic Spin Densities.
              1          2          3          4          5          6
     1  C    0.521989   0.047936  -0.007833  -0.084178  -0.000929   0.026539
     2  H    0.047936  -0.059146  -0.001356  -0.000745   0.000476   0.013945
     3  H   -0.007833  -0.001356  -0.009534   0.000275  -0.000106   0.005845
     4  O   -0.084178  -0.000745   0.000275   0.212635   0.001219  -0.001923
     5  H   -0.000929   0.000476  -0.000106   0.001219  -0.003414  -0.000465
     6  C    0.026539   0.013945   0.005845  -0.001923  -0.000465   0.013964
     7  C   -0.004613   0.002174  -0.001765   0.000300  -0.000112  -0.010598
     8  H   -0.000040  -0.000031   0.000147  -0.000015   0.000011   0.001770
     9  H    0.000326  -0.000109   0.000356  -0.000042   0.000009   0.000610
    10  H    0.003220   0.001532  -0.000593  -0.000042  -0.000021  -0.001484
    11  C   -0.015956  -0.000767  -0.001586   0.002295  -0.000168  -0.005214
    12  H   -0.000065   0.000012  -0.000036   0.000088  -0.000018  -0.000749
    13  H    0.001254   0.000006   0.000096  -0.000271   0.000073   0.000215
    14  H   -0.003979  -0.000003  -0.000292   0.002366  -0.000375   0.001425
    15  O    0.003852   0.004544  -0.000101  -0.000454  -0.000722  -0.011757
    16  O   -0.059397  -0.033173   0.001484   0.003950   0.000730  -0.003288
              7          8          9         10         11         12
     1  C   -0.004613  -0.000040   0.000326   0.003220  -0.015956  -0.000065
     2  H    0.002174  -0.000031  -0.000109   0.001532  -0.000767   0.000012
     3  H   -0.001765   0.000147   0.000356  -0.000593  -0.001586  -0.000036
     4  O    0.000300  -0.000015  -0.000042  -0.000042   0.002295   0.000088
     5  H   -0.000112   0.000011   0.000009  -0.000021  -0.000168  -0.000018
     6  C   -0.010598   0.001770   0.000610  -0.001484  -0.005214  -0.000749
     7  C    0.014239  -0.003473  -0.000179   0.001397   0.010466   0.000212
     8  H   -0.003473   0.003954   0.000419  -0.001475  -0.001789  -0.000026
     9  H   -0.000179   0.000419  -0.000778  -0.000153  -0.000533  -0.000042
    10  H    0.001397  -0.001475  -0.000153   0.000528   0.000790   0.000018
    11  C    0.010466  -0.001789  -0.000533   0.000790   0.018660   0.000941
    12  H    0.000212  -0.000026  -0.000042   0.000018   0.000941  -0.000669
    13  H   -0.002216   0.000828   0.000149  -0.000183  -0.000874  -0.000134
    14  H    0.001004  -0.000200  -0.000063   0.000092   0.000863   0.000379
    15  O   -0.003460   0.001777   0.000152  -0.001202  -0.002906  -0.000072
    16  O   -0.001836   0.000023   0.000120  -0.002270  -0.001232  -0.000015
             13         14         15         16
     1  C    0.001254  -0.003979   0.003852  -0.059397
     2  H    0.000006  -0.000003   0.004544  -0.033173
     3  H    0.000096  -0.000292  -0.000101   0.001484
     4  O   -0.000271   0.002366  -0.000454   0.003950
     5  H    0.000073  -0.000375  -0.000722   0.000730
     6  C    0.000215   0.001425  -0.011757  -0.003288
     7  C   -0.002216   0.001004  -0.003460  -0.001836
     8  H    0.000828  -0.000200   0.001777   0.000023
     9  H    0.000149  -0.000063   0.000152   0.000120
    10  H   -0.000183   0.000092  -0.001202  -0.002270
    11  C   -0.000874   0.000863  -0.002906  -0.001232
    12  H   -0.000134   0.000379  -0.000072  -0.000015
    13  H    0.006062  -0.002391   0.001690   0.000077
    14  H   -0.002391   0.002314  -0.000700  -0.000438
    15  O    0.001690  -0.000700   0.066027  -0.024585
    16  O    0.000077  -0.000438  -0.024585   0.527855
 Mulliken atomic spin densities:
              1
     1  C    0.428126
     2  H   -0.024705
     3  H   -0.014997
     4  O    0.135458
     5  H   -0.003813
     6  C    0.028833
     7  C    0.001540
     8  H    0.001880
     9  H    0.000242
    10  H    0.000153
    11  C    0.002990
    12  H   -0.000177
    13  H    0.004381
    14  H    0.000002
    15  O    0.032082
    16  O    0.408005
 Sum of Mulliken spin densities=   1.00000
 APT atomic charges:
              1
     1  C    0.535371
     2  H   -0.088006
     3  H    0.014825
     4  O   -0.630723
     5  H    0.272225
     6  C    0.327787
     7  C   -0.015440
     8  H    0.004190
     9  H   -0.000301
    10  H    0.017677
    11  C    0.021867
    12  H    0.009520
    13  H    0.004465
    14  H   -0.006568
    15  O   -0.361080
    16  O   -0.105809
 Sum of APT charges=   0.00000
 APT Atomic charges with hydrogens summed into heavy atoms:
              1
     1  C    0.550196
     2  H    0.000000
     3  H    0.000000
     4  O   -0.358498
     5  H    0.000000
     6  C    0.327787
     7  C    0.006126
     8  H    0.000000
     9  H    0.000000
    10  H    0.000000
    11  C    0.029284
    12  H    0.000000
    13  H    0.000000
    14  H    0.000000
    15  O   -0.361080
    16  O   -0.193815
 Sum of APT charges=   0.00000
 Electronic spatial extent (au):  <R**2>=  3284.9711
 Charge=     0.0000 electrons
 Dipole moment (field-independent basis, Debye):
    X=     0.3639    Y=     1.0579    Z=    -2.5098  Tot=     2.7479
 Quadrupole moment (field-independent basis, Debye-Ang):
   XX=   -44.4748   YY=   -44.5947   ZZ=   -47.0569
   XY=    -0.7378   XZ=     7.6216   YZ=     3.4623
 Traceless Quadrupole moment (field-independent basis, Debye-Ang):
   XX=     0.9006   YY=     0.7808   ZZ=    -1.6814
   XY=    -0.7378   XZ=     7.6216   YZ=     3.4623
 Octapole moment (field-independent basis, Debye-Ang**2):
  XXX=   447.6863  YYY=    18.0198  ZZZ=   -24.2315  XYY=   159.0830
  XXY=   -12.3680  XXZ=   -25.7860  XZZ=   163.6659  YZZ=     9.3716
  YYZ=    -8.0249  XYZ=   -12.0773
 Hexadecapole moment (field-independent basis, Debye-Ang**3):
 XXXX= -3409.2715 YYYY=  -216.4127 ZZZZ=  -364.0078 XXXY=   157.6226
 XXXZ=   101.7603 YYYX=   -33.0549 YYYZ=    -0.6195 ZZZX=    89.9736
 ZZZY=     4.5185 XXYY=  -669.3384 XXZZ=  -687.4278 YYZZ=   -94.7619
 XXYZ=    41.6225 YYXZ=    28.9630 ZZXY=   -22.0760
 N-N= 3.427285249927D+02 E-N=-1.584789002147D+03  KE= 3.821867067637D+02
  Exact polarizability:  61.524  -4.508  59.677   2.988  -2.052  63.781
 Approx polarizability:  83.555  -8.371  94.903   8.846  -9.621  99.639
                          Isotropic Fermi Contact Couplings
        Atom                 a.u.       MegaHertz       Gauss      10(-4) cm-1
     1  C(13)              0.06455      72.56207      25.89195      24.20410
     2  H(1)              -0.01438     -64.28722     -22.93928     -21.44391
     3  H(1)              -0.00321     -14.36738      -5.12664      -4.79244
     4  O(17)              0.01642      -9.95484      -3.55213      -3.32058
     5  H(1)              -0.00144      -6.41848      -2.29027      -2.14097
     6  C(13)             -0.01301     -14.62366      -5.21809      -4.87793
     7  C(13)             -0.00028      -0.31014      -0.11066      -0.10345
     8  H(1)               0.00049       2.16992       0.77428       0.72381
     9  H(1)               0.00022       0.97451       0.34773       0.32506
    10  H(1)              -0.00014      -0.62645      -0.22353      -0.20896
    11  C(13)              0.00118       1.33138       0.47507       0.44410
    12  H(1)               0.00064       2.84448       1.01498       0.94882
    13  H(1)               0.00175       7.81276       2.78779       2.60606
    14  H(1)              -0.00020      -0.89172      -0.31819      -0.29745
    15  O(17)              0.04325     -26.21664      -9.35475      -8.74493
    16  O(17)              0.03333     -20.20438      -7.20943      -6.73946
 --------------------------------------------------------
       Center         ----  Spin Dipole Couplings  ----
                      3XX-RR        3YY-RR        3ZZ-RR
 --------------------------------------------------------
     1   Atom       -0.304608     -0.297118      0.601727
     2   Atom       -0.079513      0.034854      0.044659
     3   Atom       -0.028991      0.033092     -0.004101
     4   Atom       -0.368093     -0.354911      0.723004
     5   Atom       -0.009108      0.022845     -0.013737
     6   Atom       -0.029325      0.054288     -0.024963
     7   Atom        0.008810     -0.007071     -0.001739
     8   Atom        0.003204     -0.002274     -0.000930
     9   Atom        0.004475     -0.003110     -0.001366
    10   Atom        0.008781     -0.004516     -0.004265
    11   Atom       -0.006598      0.002357      0.004241
    12   Atom       -0.003699     -0.002975      0.006674
    13   Atom       -0.001744      0.000238      0.001506
    14   Atom       -0.002559      0.000472      0.002087
    15   Atom        0.219767     -0.067537     -0.152230
    16   Atom       -0.249341      0.906538     -0.657197
 --------------------------------------------------------
                        XY            XZ            YZ
 --------------------------------------------------------
     1   Atom        0.000860     -0.012165     -0.027465
     2   Atom       -0.041019      0.042489     -0.107027
     3   Atom        0.021593     -0.003692     -0.009351
     4   Atom        0.007384      0.019324      0.063422
     5   Atom        0.019427      0.003037     -0.001026
     6   Atom       -0.033958      0.003019     -0.010915
     7   Atom       -0.002217     -0.000009     -0.001437
     8   Atom       -0.002131     -0.003084      0.000813
     9   Atom        0.001301     -0.004441     -0.001194
    10   Atom        0.001468     -0.001975     -0.001674
    11   Atom        0.004575      0.003573      0.012039
    12   Atom       -0.001116     -0.001646      0.001782
    13   Atom       -0.001852     -0.000897      0.003241
    14   Atom        0.000448      0.001687      0.005380
    15   Atom       -0.146445     -0.030299     -0.016592
    16   Atom       -1.163007      0.457363     -0.726010
 --------------------------------------------------------


 ---------------------------------------------------------------------------------
              Anisotropic Spin Dipole Couplings in Principal Axis System
 ---------------------------------------------------------------------------------

       Atom             a.u.   MegaHertz   Gauss  10(-4) cm-1        Axes

              Baa    -0.3048   -40.902   -14.595   -13.643  0.9974 -0.0715  0.0112
     1 C(13)  Bbb    -0.2979   -39.978   -14.265   -13.335  0.0711  0.9970  0.0314
              Bcc     0.6027    80.880    28.860    26.979 -0.0134 -0.0305  0.9994
 
              Baa    -0.0940   -50.152   -17.895   -16.729  0.9712  0.1727 -0.1643
     2 H(1)   Bbb    -0.0674   -35.950   -12.828   -11.992 -0.0110  0.7210  0.6929
              Bcc     0.1614    86.102    30.723    28.720  0.2381 -0.6711  0.7021
 
              Baa    -0.0358   -19.090    -6.812    -6.368  0.9548 -0.2961  0.0239
     3 H(1)   Bbb    -0.0063    -3.342    -1.192    -1.115  0.0406  0.2098  0.9769
              Bcc     0.0420    22.432     8.004     7.483  0.2943  0.9318 -0.2124
 
              Baa    -0.3715    26.880     9.591     8.966  0.8994 -0.4370  0.0094
     4 O(17)  Bbb    -0.3556    25.731     9.181     8.583  0.4367  0.8975 -0.0606
              Bcc     0.7271   -52.611   -18.773   -17.549  0.0180  0.0586  0.9981
 
              Baa    -0.0199   -10.630    -3.793    -3.546  0.8053 -0.3768 -0.4578
     5 H(1)   Bbb    -0.0121    -6.456    -2.304    -2.153  0.4107 -0.2023  0.8890
              Bcc     0.0320    17.086     6.097     5.699  0.4275  0.9040  0.0081
 
              Baa    -0.0414    -5.558    -1.983    -1.854  0.9392  0.3393  0.0527
     6 C(13)  Bbb    -0.0263    -3.529    -1.259    -1.177 -0.0904  0.0962  0.9913
              Bcc     0.0677     9.087     3.243     3.031 -0.3312  0.9358 -0.1210
 
              Baa    -0.0077    -1.035    -0.369    -0.345  0.1295  0.9641  0.2320
     7 C(13)  Bbb    -0.0014    -0.188    -0.067    -0.063 -0.0486 -0.2276  0.9726
              Bcc     0.0091     1.223     0.437     0.408  0.9904 -0.1372  0.0174
 
              Baa    -0.0031    -1.644    -0.587    -0.548  0.4375  0.8448  0.3080
     8 H(1)   Bbb    -0.0024    -1.295    -0.462    -0.432  0.2884 -0.4562  0.8419
              Bcc     0.0055     2.939     1.049     0.980  0.8517 -0.2795 -0.4432
 
              Baa    -0.0040    -2.157    -0.770    -0.720  0.3211  0.5440  0.7752
     9 H(1)   Bbb    -0.0031    -1.661    -0.593    -0.554 -0.3855  0.8227 -0.4177
              Bcc     0.0072     3.818     1.362     1.274  0.8650  0.1647 -0.4739
 
              Baa    -0.0061    -3.241    -1.157    -1.081  0.0204  0.7228  0.6908
    10 H(1)   Bbb    -0.0032    -1.713    -0.611    -0.571  0.1995 -0.6800  0.7056
              Bcc     0.0093     4.954     1.768     1.652  0.9797  0.1234 -0.1581
 
              Baa    -0.0094    -1.258    -0.449    -0.420 -0.5366  0.6971 -0.4755
    11 C(13)  Bbb    -0.0074    -0.994    -0.355    -0.331  0.8095  0.2661 -0.5234
              Bcc     0.0168     2.252     0.804     0.751  0.2384  0.6658  0.7071
 
              Baa    -0.0045    -2.411    -0.860    -0.804  0.8275  0.5605  0.0325
    12 H(1)   Bbb    -0.0028    -1.481    -0.528    -0.494 -0.5369  0.8070 -0.2458
              Bcc     0.0073     3.892     1.389     1.298 -0.1640  0.1860  0.9688
 
              Baa    -0.0032    -1.703    -0.608    -0.568  0.6533  0.6757 -0.3416
    13 H(1)   Bbb    -0.0015    -0.818    -0.292    -0.273  0.7028 -0.3733  0.6056
              Bcc     0.0047     2.520     0.899     0.841 -0.2817  0.6357  0.7187
 
              Baa    -0.0045    -2.400    -0.856    -0.800  0.4044  0.6548 -0.6386
    14 H(1)   Bbb    -0.0025    -1.324    -0.473    -0.442  0.8999 -0.4096  0.1499
              Bcc     0.0070     3.724     1.329     1.242  0.1634  0.6352  0.7548
 
              Baa    -0.1708    12.356     4.409     4.121  0.2471  0.4853  0.8387
    15 O(17)  Bbb    -0.1116     8.073     2.881     2.693  0.2977  0.7857 -0.5423
              Bcc     0.2823   -20.429    -7.289    -6.814  0.9221 -0.3836 -0.0496
 
              Baa    -0.9714    70.289    25.081    23.446  0.8657  0.4588 -0.2000
    16 O(17)  Bbb    -0.9423    68.183    24.329    22.743  0.0159  0.3741  0.9272
              Bcc     1.9137  -138.472   -49.410   -46.189 -0.5003  0.8059 -0.3166
 

 ---------------------------------------------------------------------------------

 Use density number 0.
 Entering OneElI...
 Calculate overlap and kinetic energy integrals
    NBasis = 187  MinDer = 2  MaxDer = 2
 Requested accuracy = 0.1000D-12
 PrsmSu:  NPrtUS=   1 ThrOK=F
 PRISM was handed   130757964 working-precision words and  2556 shell-pairs
 Entering OneElI...
 Calculate potential energy integrals
    NBasis = 187  MinDer = 2  MaxDer = 2
 Requested accuracy = 0.1000D-12
 PrsmSu:  NPrtUS=   8 ThrOK=T
 PRISM was handed    16299386 working-precision words and  2437 shell-pairs
 PRISM was handed    16299386 working-precision words and  2437 shell-pairs
 PRISM was handed    16299386 working-precision words and  2437 shell-pairs
 PRISM was handed    16299386 working-precision words and  2437 shell-pairs
 PRISM was handed    16299386 working-precision words and  2437 shell-pairs
 PRISM was handed    16299386 working-precision words and  2437 shell-pairs
 PRISM was handed    16299386 working-precision words and  2437 shell-pairs
 PRISM was handed    16299386 working-precision words and  2437 shell-pairs
 Polarizability after L701:
                1             2             3
      1  0.615240D+02
      2 -0.450771D+01  0.596770D+02
      3  0.298791D+01 -0.205234D+01  0.637808D+02
 Dipole Derivatives after L701:
               1            2            3            4            5
      1 0.867607D+00-0.628761D-01 0.455952D+00 0.501062D-01 0.281081D+00
      2-0.203417D+00 0.355319D+00-0.619295D+00 0.851952D-01-0.296550D+00
      3 0.271514D+00-0.122680D+00 0.383188D+00-0.493099D-01 0.230375D+00
               6            7            8            9           10
      1-0.276479D+00 0.187540D-01-0.503170D-01-0.703054D-02-0.120664D+01
      2 0.323341D+00-0.432410D-01-0.492639D-01 0.139912D+00 0.335891D+00
      3-0.175731D-01 0.194996D-01 0.105773D-01 0.749835D-01-0.203631D+00
              11           12           13           14           15
      1-0.526874D-01-0.215834D+00 0.384352D+00 0.345318D-01-0.177501D-01
      2-0.213798D+00 0.147478D+00 0.242110D-01 0.114903D+00 0.140831D-01
      3-0.135940D+00-0.471732D+00-0.476319D-01 0.747816D-01 0.317420D+00
              16           17           18           19           20
      1 0.484149D+00 0.206861D+00-0.136746D+00-0.120052D+00-0.286141D-01
      2-0.314727D-01 0.129243D+00 0.127746D+00-0.685409D-01 0.830375D-01
      3-0.951103D-01 0.884198D-01 0.369967D+00-0.581379D-02-0.613641D-01
              21           22           23           24           25
      1-0.283498D-01 0.454338D-04 0.966869D-01 0.272036D-01 0.329203D-01
      2-0.529989D-01 0.349518D-01-0.602343D-01-0.314666D-01 0.439940D-02
      3-0.930524D-02 0.352983D-01-0.380281D-01 0.727577D-01 0.112860D-01
              26           27           28           29           30
      1-0.479778D-01 0.425597D-01 0.600523D-01-0.542927D-02-0.668076D-01
      2-0.221311D-01 0.936152D-01-0.134263D-01 0.419435D-01-0.609173D-01
      3 0.102924D+00-0.116910D-01-0.944776D-02-0.403616D-01-0.489657D-01
              31           32           33           34           35
      1 0.173803D-01-0.518395D-01-0.958112D-02 0.692348D-01-0.266772D-01
      2-0.178768D-01 0.104732D+00-0.635241D-01-0.328425D-01-0.258468D-01
      3 0.192459D-02-0.114855D+00-0.565100D-01 0.274986D-01 0.101666D+00
              36           37           38           39           40
      1 0.280895D-01 0.192646D-01 0.754322D-01-0.563517D-02-0.127104D+00
      2 0.374074D-01 0.915822D-01-0.413289D-01 0.247156D-02-0.567491D-01
      3-0.148266D-01 0.803736D-02-0.666741D-01 0.354584D-01-0.267787D-01
              41           42           43           44           45
      1-0.341960D-01 0.174677D-01-0.378957D+00 0.735205D-02 0.335815D+00
      2 0.571774D-01 0.508890D-02 0.595849D-02-0.489454D+00-0.361557D+00
      3-0.763104D-02 0.502218D-01 0.530039D-01 0.820519D-01-0.214829D+00
              46           47           48
      1-0.171115D+00-0.341330D+00-0.142873D+00
      2-0.114623D+00 0.312251D+00 0.298616D+00
      3 0.966116D-02-0.103262D+00-0.458564D+00
 Hessian after L701:
                1             2             3             4             5
      1  0.993937D+01
      2  0.165461D+01  0.153031D+02
      3 -0.884957D+00  0.115199D+00  0.188363D+02
      4 -0.293126D+01 -0.268985D+00  0.675035D+00  0.498128D+01
      5 -0.222875D+00 -0.269057D+01 -0.101317D+01  0.109012D+01  0.270973D+01
      6  0.798096D+00 -0.140806D+01  0.101977D+00 -0.104013D+01  0.265709D+01
      7 -0.427676D+01  0.109873D+01 -0.179255D+00  0.663869D-01 -0.280728D-02
      8  0.118489D+01 -0.199657D+01 -0.408941D+00 -0.125626D-01 -0.361104D-01
      9 -0.174795D+00 -0.384737D+00 -0.465375D+01  0.144338D-01  0.116837D+00
     10  0.119714D+01  0.919411D+00  0.180620D+01 -0.150853D+00  0.173405D-01
     11  0.649159D+00 -0.908290D+01  0.156698D+00  0.484682D-01  0.296281D-01
     12  0.188623D+01  0.181065D+00 -0.897688D+01 -0.687973D-01  0.114412D-01
     13  0.244135D-01 -0.211677D+00 -0.193526D-01 -0.422794D-01 -0.240007D-01
     14 -0.176639D-01  0.164317D+00 -0.288451D-01 -0.715771D-02  0.755619D-02
     15 -0.306577D-01 -0.329798D-01  0.204482D+00 -0.408220D-01 -0.162991D-01
     16 -0.384695D+01 -0.301279D+01 -0.103681D+01  0.253826D+00 -0.377475D-01
     17 -0.290437D+01 -0.216497D+01  0.142255D+01 -0.405985D-01  0.193175D+00
     18 -0.114013D+01  0.153058D+01 -0.571033D+01  0.147572D-01 -0.131395D+00
     19 -0.183630D+00  0.183865D+00  0.845928D-01 -0.601702D-01  0.475327D-01
     20 -0.171597D-02  0.135373D+00 -0.141065D-01  0.228130D-01 -0.890598D-02
     21  0.803789D-01 -0.465148D-01  0.131391D+00  0.421188D-01 -0.299925D-01
     22  0.133721D+00 -0.111893D+00 -0.285780D-01  0.330008D-02 -0.351870D-02
     23 -0.113526D+00  0.117303D-01  0.155017D-01 -0.407508D-02 -0.925363D-03
     24 -0.348221D-01  0.200126D-01 -0.441042D-01 -0.402222D-02  0.217339D-02
     25  0.434917D-01  0.148488D-01 -0.316662D-01  0.165323D-02  0.254114D-02
     26  0.286184D-01 -0.252924D-01 -0.114153D-01  0.222837D-02 -0.117419D-02
     27 -0.569821D-01 -0.125414D-01 -0.676054D-02 -0.608530D-02 -0.253874D-02
     28 -0.306490D-01 -0.165537D-01 -0.155608D-01  0.173892D-01 -0.111995D-02
     29 -0.154649D-01  0.312859D-02  0.498911D-03  0.219148D-02 -0.806923D-02
     30  0.188499D-01  0.832546D-03 -0.867801D-04  0.210779D-03  0.223952D-02
     31  0.843941D-01  0.252975D-02 -0.377545D-01 -0.431620D-01 -0.240814D-02
     32  0.126338D-01  0.818738D-01  0.706965D-01  0.146714D-04 -0.208401D-01
     33 -0.144599D-02 -0.198463D-01  0.200927D+00 -0.726901D-02  0.630204D-01
     34 -0.176160D-01 -0.937176D-02 -0.292674D-01 -0.251881D-02  0.315098D-03
     35 -0.315602D-02 -0.261509D-01 -0.475006D-02 -0.552403D-04 -0.241150D-02
     36 -0.323726D-01  0.157279D-01  0.466642D-01 -0.689191D-03  0.873730D-04
     37 -0.285823D-01 -0.622499D-01 -0.439549D-01 -0.109317D-02 -0.356538D-03
     38 -0.639946D-01  0.110289D+00  0.109633D+00 -0.165936D-05 -0.746155D-04
     39 -0.458796D-01  0.114400D+00  0.240501D-01 -0.155425D-03  0.195426D-02
     40  0.317396D-01 -0.170382D-01 -0.134136D-01 -0.169722D-02  0.331004D-02
     41 -0.171456D-01 -0.278106D-01 -0.534075D-01  0.282063D-02 -0.109740D-02
     42 -0.210850D-01 -0.718015D-01 -0.350148D-01  0.389337D-02  0.772177D-02
     43  0.131839D+00 -0.456237D+00  0.187435D+00  0.347903D+00 -0.895784D-01
     44 -0.389883D+00  0.416351D-01 -0.328865D+00 -0.468147D-01 -0.192152D+00
     45  0.164661D+00 -0.256833D+00 -0.384559D-01  0.130974D-01 -0.317145D+00
     46 -0.270672D+00  0.292799D+00 -0.432696D+00 -0.243871D+01 -0.776744D+00
     47  0.219882D+00  0.162774D+00 -0.272729D-01 -0.788403D+00  0.222363D-01
     48 -0.525093D+00  0.255493D+00 -0.804068D-01  0.404426D+00 -0.135203D+01
                6             7             8             9            10
      6  0.185395D+01
      7  0.485042D-02  0.437129D+01
      8  0.123363D+00 -0.126839D+01  0.152167D+01
      9 -0.593609D-01  0.329703D+00  0.454449D+00  0.463883D+01
     10 -0.561489D-01 -0.263407D+00  0.247338D-01 -0.134741D+00  0.468684D+01
     11  0.260259D-01 -0.437047D-01  0.198414D+00 -0.853555D-01 -0.107485D+01
     12  0.952210D-01 -0.113483D+00 -0.878990D-01  0.427970D-01 -0.128404D+01
     13 -0.443913D-01  0.718326D-01  0.139870D+00 -0.139245D-01 -0.611513D+01
     14  0.237597D-02  0.121067D+00  0.993950D-01 -0.123392D-01  0.182405D+01
     15 -0.104510D-01 -0.115377D-01 -0.117049D-01 -0.384702D-01 -0.296613D+00
     16 -0.169935D-01  0.141339D+00  0.944682D-01 -0.167546D-01  0.502039D-01
     17 -0.361360D-01  0.112399D+00 -0.198208D+00  0.335730D-01 -0.431072D+00
     18 -0.277717D+00 -0.151149D-01  0.461494D-01  0.173952D+00 -0.168585D+00
     19  0.532402D-01  0.170283D-01 -0.120956D+00  0.207014D-02  0.353295D+00
     20 -0.123778D-01 -0.752112D-01  0.756986D-01 -0.330870D-02 -0.119012D+00
     21 -0.371014D-01  0.133437D-02  0.311069D-02 -0.623084D-01 -0.143667D-01
     22 -0.627950D-02 -0.268900D-02 -0.821952D-02  0.629967D-03  0.221661D-01
     23  0.551424D-02  0.127081D-02  0.105779D-01 -0.970727D-03 -0.280884D-01
     24  0.758622D-03  0.390528D-03  0.261279D-02 -0.162089D-02 -0.753316D-02
     25 -0.813663D-02  0.934704D-02 -0.233829D-01 -0.826207D-02  0.380534D-01
     26 -0.495207D-02 -0.596157D-02 -0.114635D-01  0.212211D-02  0.225279D-01
     27  0.724759D-02 -0.996869D-02  0.171946D-01 -0.608116D-02 -0.318496D-01
     28 -0.109597D-01 -0.171303D-02 -0.108915D-01  0.306372D-02  0.468621D-01
     29  0.662949D-03 -0.419666D-03 -0.345526D-02  0.286689D-03  0.665234D-02
     30 -0.106780D-01  0.208207D-02 -0.153499D-01  0.957013D-03  0.417011D-01
     31 -0.809885D-02 -0.165783D-01 -0.526137D-02 -0.519522D-03  0.129837D+00
     32  0.652483D-01  0.977940D-02  0.171583D-01  0.548368D-02 -0.321004D+00
     33  0.147403D+00  0.364133D-02  0.670000D-02 -0.138694D-01 -0.233283D+00
     34 -0.244343D-02 -0.751086D-02 -0.533026D-02 -0.271626D-02  0.430287D-02
     35 -0.135912D-02 -0.219813D-02  0.823626D-03  0.108120D-01  0.689965D-02
     36  0.130983D-01  0.205909D-02  0.308241D-01  0.122147D-01 -0.570678D-01
     37 -0.331382D-02 -0.180697D-02 -0.525844D-02  0.438562D-03  0.165609D-01
     38  0.459528D-02  0.352218D-02  0.753650D-02 -0.146735D-02 -0.426581D-01
     39 -0.695298D-03  0.178457D-02  0.135072D-02 -0.185547D-02 -0.214427D-01
     40  0.100294D-01  0.329054D-02  0.138016D-01  0.107151D-02 -0.118427D+00
     41  0.110033D-01  0.399447D-02  0.833150D-02  0.154204D-02 -0.649049D-01
     42  0.123760D-01  0.192512D-02  0.454443D-02 -0.144216D-02 -0.396823D-01
     43 -0.193874D-01 -0.637985D-01  0.541195D-02 -0.423215D-03  0.326677D-01
     44 -0.305555D+00  0.294743D-01  0.215239D+00 -0.524716D-01 -0.455728D+00
     45  0.174641D+00 -0.741550D-02 -0.672157D-01 -0.412803D-01  0.170257D+00
     46  0.350069D+00 -0.462507D-01 -0.292631D-02  0.725694D-03  0.698812D-01
     47 -0.112744D+01  0.184517D-01  0.909567D-01 -0.844550D-01 -0.284296D+00
     48 -0.201067D+01 -0.109956D-01 -0.991879D-01  0.112904D-01  0.327193D+00
               11            12            13            14            15
     11  0.109316D+02
     12  0.736614D+00  0.162920D+02
     13  0.235301D+01 -0.372758D+00  0.585800D+01
     14 -0.215764D+01 -0.831355D+00 -0.194037D+01  0.206439D+01
     15 -0.828932D+00 -0.686889D+01  0.341797D+00  0.909879D+00  0.681354D+01
     16 -0.418653D+00 -0.255193D+00 -0.125222D+00  0.248619D-01 -0.574631D-01
     17  0.118723D+00  0.991385D-01 -0.461072D-01 -0.693896D-02  0.172670D-01
     18  0.655865D-01  0.226698D-01 -0.451436D-01  0.559257D-02  0.210676D-01
     19 -0.118541D+00 -0.155058D-01  0.682760D-01  0.191097D-01 -0.912695D-02
     20 -0.150399D+00  0.457526D-02 -0.895104D-03 -0.199380D-01  0.483287D-03
     21  0.628631D-02 -0.168694D+00 -0.751051D-02 -0.210737D-02 -0.169866D-01
     22 -0.189048D-01 -0.169407D-02  0.567869D-02  0.638051D-02 -0.162737D-02
     23  0.785009D-02  0.219935D-02 -0.447575D-02 -0.654276D-02  0.125721D-02
     24  0.516685D-02 -0.981335D-02 -0.157366D-02 -0.175703D-02 -0.434247D-03
     25 -0.271054D-02 -0.136012D-01  0.234696D-02  0.505003D-02 -0.927731D-03
     26 -0.214559D-01 -0.567740D-02  0.378757D-02  0.503391D-02 -0.130348D-02
     27  0.371152D-02 -0.856426D-02 -0.373132D-02 -0.575990D-02  0.479510D-03
     28 -0.130215D-01  0.156525D-01  0.525754D-02  0.611429D-02 -0.623047D-03
     29 -0.212701D-01  0.250018D-02  0.254505D-02  0.192311D-02 -0.462615D-03
     30 -0.111867D-01 -0.719342D-02  0.586801D-02  0.746909D-02 -0.197023D-02
     31 -0.418662D+00 -0.287708D+00 -0.111824D-01  0.443647D-01 -0.253857D-03
     32 -0.763450D-01  0.197864D+00  0.696896D-02 -0.191577D-01 -0.112041D-02
     33  0.215628D+00 -0.173742D+00  0.174838D-01 -0.234032D-01 -0.162126D-01
     34 -0.209568D-01 -0.415494D-01  0.467854D-02  0.512176D-02 -0.690990D-02
     35 -0.374073D-01 -0.740842D-02  0.380863D-02  0.287917D-02 -0.288755D-02
     36  0.358063D-01  0.396143D-01 -0.118688D-01 -0.108436D-01  0.712159D-02
     37 -0.427782D-01 -0.191514D-01  0.209838D-02  0.729710D-02 -0.188457D-02
     38  0.360395D-01  0.261987D-01 -0.407680D-02 -0.914342D-02  0.173723D-02
     39  0.266739D-01 -0.525432D-02 -0.530668D-03 -0.461956D-02 -0.461538D-03
     40  0.211943D-01  0.189469D-01 -0.149979D-01 -0.152967D-01 -0.136800D-01
     41  0.839828D-01  0.119844D+00 -0.217184D-01 -0.178787D-01  0.277071D-01
     42  0.136708D+00 -0.332777D-01 -0.326813D-01  0.120761D-01  0.214059D-01
     43 -0.584459D+00  0.164293D+00  0.210170D+00 -0.115693D+00  0.759415D-01
     44  0.258383D+00 -0.158350D+00 -0.233397D+00 -0.551512D-01 -0.530667D-01
     45 -0.212483D+00 -0.290843D+00  0.112772D+00 -0.394209D-01 -0.119879D+00
     46 -0.314593D+00  0.388355D+00  0.560647D-01  0.327738D-01  0.543881D-01
     47 -0.117194D+00 -0.290750D+00 -0.232678D-01 -0.531046D-01 -0.957493D-02
     48 -0.276948D+00  0.507951D-01  0.755458D-01  0.230582D-01  0.565382D-02
               16            17            18            19            20
     16  0.171010D+02
     17  0.673135D-01  0.165965D+02
     18  0.785197D+00  0.703866D+00  0.162165D+02
     19 -0.665000D+00  0.145088D+01  0.138949D+00  0.117934D+02
     20  0.143457D+01 -0.565445D+01  0.199927D+00 -0.126112D+01  0.156337D+02
     21  0.771768D-01  0.190068D+00 -0.599120D+01  0.706110D-01 -0.240927D+00
     22  0.830897D-01  0.290250D-01 -0.389751D-01 -0.345835D+01 -0.144097D+01
     23 -0.639701D-01  0.552456D-01  0.257289D-01 -0.119618D+01 -0.252959D+01
     24 -0.484313D-01  0.163295D-01  0.364591D-01 -0.305837D+00  0.480519D+00
     25  0.453923D-01 -0.849023D-01  0.109195D+00 -0.413528D+01  0.599015D+00
     26 -0.277901D-01  0.229145D-01  0.533701D-01  0.447195D+00 -0.286228D+01
     27  0.505920D-01  0.393911D-01  0.358112D-01 -0.415069D+00 -0.132577D+01
     28  0.126733D+00  0.134603D-02 -0.111127D+00 -0.439272D+01  0.299172D+00
     29  0.379621D-01  0.592264D-01 -0.312978D-01  0.209504D+00 -0.423495D+01
     30  0.150472D-01  0.902233D-03  0.168495D-02  0.598388D+00  0.865766D+00
     31 -0.590816D+01  0.539953D+00  0.135956D+01  0.529675D-01  0.946839D-01
     32  0.553580D+00 -0.553139D+01  0.189580D+01  0.462639D-01 -0.220976D-02
     33  0.144767D+01  0.192207D+01 -0.162557D+01  0.481163D-01  0.473466D-01
     34  0.617419D-01  0.190446D-01  0.544098D-02 -0.109905D-01 -0.465379D-02
     35  0.902799D-02  0.673480D-01  0.188557D-01 -0.141809D-01 -0.262982D-01
     36  0.378506D-01  0.112712D+00  0.291468D-02  0.252043D-01 -0.986088D-02
     37  0.677859D-01 -0.285309D-01 -0.236864D-01 -0.580665D-02 -0.178577D-01
     38  0.100991D-01  0.200959D-01  0.323539D-01 -0.116887D-01  0.711942D-02
     39  0.311068D-01 -0.474891D-01  0.973430D-01 -0.242459D-01 -0.224359D-01
     40  0.324447D-01 -0.171453D-01  0.656181D-01  0.168301D+00  0.908750D-01
     41 -0.514963D-01  0.218114D-01  0.207074D-01  0.922169D-01 -0.279180D-01
     42 -0.500974D-01 -0.139924D-01  0.130350D+00  0.113036D+00  0.426720D-01
     43 -0.779806D+01  0.152532D+01 -0.125890D+01  0.603765D+00  0.345085D+00
     44  0.153000D+01 -0.372965D+01 -0.414116D+01  0.202895D+00 -0.285766D-01
     45 -0.138914D+01 -0.418018D+01 -0.295055D+01 -0.128620D+00  0.353566D-01
     46  0.379816D+00 -0.192557D+00  0.322948D+00 -0.145094D+00  0.352205D-01
     47 -0.149437D+00  0.130580D+00 -0.294659D+00  0.231966D-01 -0.306411D+00
     48  0.426244D+00 -0.280063D+00 -0.183367D+00 -0.235802D+00 -0.478545D-01
               21            22            23            24            25
     21  0.153364D+02
     22 -0.331394D+00  0.295354D+01
     23  0.433597D+00  0.143914D+01  0.261486D+01
     24 -0.426338D+01  0.495102D+00 -0.502002D+00  0.420140D+01
     25 -0.566152D+00  0.767976D-01  0.311772D-01 -0.221807D-01  0.380622D+01
     26 -0.134708D+01  0.343282D-01 -0.815875D-01  0.640342D-01 -0.677228D+00
     27 -0.306396D+01 -0.170461D-01  0.322445D-01  0.668379D-01  0.607902D+00
     28  0.946778D+00  0.640563D-01  0.100368D-01  0.256724D-01  0.957224D-01
     29  0.982084D+00  0.822105D-02  0.125923D-01 -0.739352D-01  0.639800D-02
     30 -0.202085D+01  0.124647D-01 -0.277930D-01  0.177320D-01  0.979101D-02
     31  0.164062D+00 -0.437906D-02 -0.312178D-01  0.133497D-02 -0.290884D-02
     32  0.654064D-01 -0.847373D-02 -0.281572D-02  0.634445D-03  0.122992D-01
     33  0.268881D-01 -0.131767D-03 -0.655013D-02 -0.321898D-02 -0.804675D-02
     34  0.194313D-01  0.287348D-02 -0.390326D-02  0.368933D-02  0.711573D-02
     35 -0.297456D-01 -0.884710D-02  0.417238D-02 -0.243361D-02  0.344998D-02
     36  0.291764D-01  0.138196D-01 -0.116381D-01  0.119798D-02  0.230415D-01
     37 -0.219006D-01  0.114530D-01  0.116474D-01  0.191277D-01 -0.295152D-02
     38 -0.210528D-02  0.331909D-01 -0.186513D-01  0.141865D-01  0.106972D-01
     39 -0.266360D-01  0.338001D-01  0.604510D-02 -0.128229D-02  0.307644D-02
     40  0.101684D+00  0.951545D-02 -0.877810D-02 -0.112555D-02  0.591239D-02
     41  0.382040D-01  0.160160D-02 -0.268626D-02 -0.281006D-03  0.315349D-02
     42 -0.206972D-01  0.150798D-02 -0.152504D-02 -0.164510D-02  0.737667D-03
     43 -0.199713D+00  0.715516D-01 -0.984310D-02 -0.770002D-01  0.798695D-02
     44  0.929292D-01  0.524844D-01 -0.514286D-01 -0.287349D-01  0.833854D-01
     45 -0.188184D+00 -0.871346D-01  0.317714D-02 -0.132558D-01 -0.665862D-01
     46 -0.362539D+00  0.276805D-01 -0.292135D-01 -0.427908D-01  0.110118D-02
     47 -0.113210D+00 -0.353743D-02 -0.228004D-01  0.347473D-02  0.162081D-01
     48  0.336185D+00 -0.444641D-01  0.252141D-01  0.143726D-01 -0.281843D-01
               26            27            28            29            30
     26  0.279997D+01
     27  0.130974D+01  0.306260D+01
     28  0.110030D-01 -0.104346D-01  0.393812D+01
     29  0.896278D-01  0.691840D-01 -0.491389D+00  0.420618D+01
     30  0.385043D-01 -0.110844D+00 -0.819824D+00 -0.933368D+00  0.213068D+01
     31  0.318981D-01 -0.134368D-01  0.387823D-01  0.601727D-01  0.120735D+00
     32  0.122536D-01 -0.862802D-02  0.602782D-01 -0.189532D-01  0.719612D-01
     33 -0.388346D-02 -0.135690D-01  0.128447D+00  0.766109D-01  0.899376D-01
     34  0.119947D-01  0.850670D-02 -0.741209D-03  0.621208D-03  0.258990D-02
     35 -0.107098D-01  0.505052D-02 -0.199050D-02 -0.379350D-02 -0.535696D-02
     36  0.194307D-01 -0.441908D-02  0.728033D-02  0.410596D-02  0.131240D-01
     37  0.108966D-02  0.214552D-02 -0.286048D-02 -0.692314D-03 -0.191748D-02
     38  0.178877D-01 -0.348651D-02  0.560377D-02  0.584754D-02  0.129195D-01
     39  0.633416D-02 -0.463471D-02  0.384410D-02  0.535701D-02  0.574096D-02
     40  0.997175D-02 -0.534625D-02  0.153352D-02  0.304807D-02  0.789457D-02
     41  0.258430D-02 -0.211657D-02 -0.727468D-03  0.335016D-03  0.201309D-02
     42  0.952791D-03 -0.197511D-02 -0.255317D-02 -0.313591D-03  0.375904D-03
     43  0.835321D-01 -0.674520D-01  0.514997D-01  0.363607D-01  0.435130D-01
     44  0.634869D-01 -0.878733D-01  0.854315D-02 -0.131318D-01  0.319016D-01
     45 -0.889990D-01  0.201748D-01  0.446913D-02  0.187672D-02 -0.127378D-01
     46  0.228052D-01 -0.317450D-01  0.427297D-01  0.134290D+00 -0.573939D-01
     47  0.204177D-03 -0.278008D-01  0.133597D+00 -0.752304D-01 -0.414551D-01
     48 -0.311770D-01  0.276584D-01 -0.164124D+00 -0.103791D+00 -0.958711D-01
               31            32            33            34            35
     31  0.156063D+02
     32 -0.103117D+00  0.157697D+02
     33 -0.864306D+00 -0.148292D+01  0.122968D+02
     34 -0.427538D+01  0.343606D+00 -0.363173D+00  0.422211D+01
     35  0.337686D+00 -0.314487D+01 -0.128771D+01 -0.303869D+00  0.323686D+01
     36 -0.419409D+00 -0.151549D+01 -0.279789D+01  0.393932D+00  0.133170D+01
     37 -0.363782D+01 -0.121780D+01 -0.265797D+00  0.707949D-01  0.152351D-01
     38 -0.129266D+01 -0.233083D+01  0.431644D+00  0.459583D-01 -0.697047D-01
     39 -0.404789D+00  0.630610D+00 -0.428840D+01 -0.256534D-01  0.578442D-01
     40 -0.169742D+01  0.658650D+00  0.953950D-02 -0.124057D-02 -0.493061D-01
     41  0.789598D+00 -0.435328D+01 -0.165671D-01 -0.869351D-01  0.266354D-01
     42  0.312338D+00  0.559685D-01 -0.455668D+01  0.642097D-01  0.291697D-01
     43 -0.109153D+00 -0.618135D-01  0.188188D-01 -0.470444D-01  0.690128D-02
     44 -0.553901D-01 -0.178994D+00  0.740505D-02  0.739950D-02 -0.111206D-01
     45  0.130712D-01 -0.114814D+00  0.271091D+00 -0.208936D-01 -0.942344D-01
     46 -0.206168D+00  0.813169D-02  0.697382D-01 -0.105771D-01  0.594806D-03
     47  0.782942D-02 -0.201351D+00  0.704610D-01  0.958697D-03 -0.625826D-02
     48  0.651782D-01  0.633069D-01  0.456123D+00 -0.519379D-02 -0.175488D-01
               36            37            38            39            40
     36  0.232886D+01
     37 -0.132512D-01  0.363339D+01
     38  0.521680D-01  0.127694D+01  0.220984D+01
     39  0.674877D-01  0.439749D+00 -0.783634D+00  0.391702D+01
     40  0.522753D-01 -0.570668D-01  0.416575D-01  0.248044D-01  0.167029D+01
     41  0.427013D-01  0.761476D-01  0.663758D-01 -0.678977D-02 -0.736827D+00
     42  0.545243D-01  0.702545D-02  0.416563D-02  0.753466D-01 -0.408406D+00
     43 -0.195158D-01 -0.507531D-01 -0.720671D-02 -0.949141D-02 -0.343424D-01
     44 -0.910524D-01 -0.656549D-02 -0.468039D-01  0.803955D-04 -0.353309D-02
     45  0.159667D+00 -0.550122D-01  0.664187D-01  0.113870D+00  0.107040D+00
     46 -0.128853D-02 -0.133420D-01 -0.538001D-02 -0.597723D-02  0.217094D-02
     47 -0.637780D-02 -0.626612D-02 -0.582266D-02  0.143184D-01  0.541556D-02
     48  0.266456D-01 -0.186167D-01  0.346734D-01  0.283606D-01  0.430668D-01
               41            42            43            44            45
     41  0.429848D+01
     42 -0.198368D+00  0.424229D+01
     43  0.377562D-02  0.284727D-01  0.118307D+02
     44 -0.619267D-01 -0.156645D-01 -0.125592D+01  0.802748D+01
     45 -0.550274D-04  0.933364D-01  0.880337D+00  0.107721D+01  0.133119D+01
     46  0.644588D-02  0.213593D-01 -0.518495D+01  0.533050D+00  0.289101D+00
     47 -0.159365D-01  0.768602D-02  0.574366D+00 -0.423729D+01  0.418734D+01
     48  0.138629D-01  0.207357D-01  0.253075D+00  0.405328D+01  0.149121D+01
               46            47            48
     46  0.773631D+01
     47  0.255303D+00  0.463465D+01
     48 -0.562255D+00 -0.226029D+01 -0.987144D-01
 ReadGW:  IGet=0 IStart=         114 Next=        7213 LGW=        7099.
 ICntrl=12127.
 Symmetry not used in FoFDir.
 MinBra= 0 MaxBra= 2 Meth= 1.
 IRaf=       0 NMat=   1 IRICut=       1 DoRegI=T DoRafI=F ISym2E= 0 JSym2E=0.
 PrsmSu:  NPrtUS=   8 ThrOK=T
 PRISM was handed    16285505 working-precision words and  2510 shell-pairs
 PRISM was handed    16285505 working-precision words and  2510 shell-pairs
 PRISM was handed    16285505 working-precision words and  2510 shell-pairs
 PRISM was handed    16285505 working-precision words and  2510 shell-pairs
 PRISM was handed    16285505 working-precision words and  2510 shell-pairs
 PRISM was handed    16285505 working-precision words and  2510 shell-pairs
 PRISM was handed    16285505 working-precision words and  2510 shell-pairs
 PRISM was handed    16285505 working-precision words and  2510 shell-pairs
 Pruned (  75, 302) grid will be used in CalDFT.
 CkSvGd:  ISavGI=        -1 IRadAn=       4 IRASav=       4 ISavGd=        -1.
 CalDSu:  NPrtUS=   8 ThrOK=T
 IPart= 0 IRanGd=          0 ScrnBf=T ScrnGd=T RCrit=4.00D+00 DoMicB=T.
 IPart= 4 IRanGd=          0 ScrnBf=T ScrnGd=T RCrit=4.00D+00 DoMicB=T.
 IPart= 6 IRanGd=          0 ScrnBf=T ScrnGd=T RCrit=4.00D+00 DoMicB=T.
 CutRad = 1000.00    CtRdIn =    0.00    XCrit =  15.00   ICut = 0
 IPart= 2 IRanGd=          0 ScrnBf=T ScrnGd=T RCrit=4.00D+00 DoMicB=T.
 CutRad = 1000.00    CtRdIn =    0.00    XCrit =  15.00   ICut = 0
 CutRad = 1000.00    CtRdIn =    0.00    XCrit =  15.00   ICut = 0
 CutRad = 1000.00    CtRdIn =    0.00    XCrit =  15.00   ICut = 0
 IPart= 1 IRanGd=          0 ScrnBf=T ScrnGd=T RCrit=4.00D+00 DoMicB=T.
 IPart= 3 IRanGd=          0 ScrnBf=T ScrnGd=T RCrit=4.00D+00 DoMicB=T.
 IPart= 5 IRanGd=          0 ScrnBf=T ScrnGd=T RCrit=4.00D+00 DoMicB=T.
 CutRad = 1000.00    CtRdIn =    0.00    XCrit =  15.00   ICut = 0
 CutRad = 1000.00    CtRdIn =    0.00    XCrit =  15.00   ICut = 0
 IPart= 7 IRanGd=          0 ScrnBf=T ScrnGd=T RCrit=4.00D+00 DoMicB=T.
 CutRad = 1000.00    CtRdIn =    0.00    XCrit =  15.00   ICut = 0
 CutRad = 1000.00    CtRdIn =    0.00    XCrit =  15.00   ICut = 0
 IPart= 1        14019 of        15684 points in      32 batches and      108 microbatches, Max-NSigAt=      16 Max-NSgAt2=      16
 IPart= 7        13836 of        16058 points in      33 batches and       95 microbatches, Max-NSigAt=      16 Max-NSgAt2=      16
 IPart= 5        13852 of        15582 points in      33 batches and      110 microbatches, Max-NSigAt=      16 Max-NSgAt2=      16
 IPart= 2        13701 of        15362 points in      32 batches and      114 microbatches, Max-NSigAt=      16 Max-NSgAt2=      16
 IPart= 3        13924 of        15776 points in      30 batches and       89 microbatches, Max-NSigAt=      16 Max-NSgAt2=      16
 IPart= 6        14889 of        16830 points in      34 batches and       82 microbatches, Max-NSigAt=      16 Max-NSgAt2=      16
 IPart= 4        13592 of        15840 points in      33 batches and       85 microbatches, Max-NSigAt=      16 Max-NSgAt2=      16
 IPart= 0        13875 of        16512 points in      34 batches and       92 microbatches, Max-NSigAt=      16 Max-NSgAt2=      16
 Polarizability after L703:
                1             2             3
      1  0.615240D+02
      2 -0.450771D+01  0.596770D+02
      3  0.298791D+01 -0.205234D+01  0.637808D+02
 Dipole Derivatives after L703:
               1            2            3            4            5
      1 0.867607D+00-0.628761D-01 0.455952D+00 0.501062D-01 0.281081D+00
      2-0.203417D+00 0.355319D+00-0.619295D+00 0.851952D-01-0.296550D+00
      3 0.271514D+00-0.122680D+00 0.383188D+00-0.493099D-01 0.230375D+00
               6            7            8            9           10
      1-0.276479D+00 0.187540D-01-0.503170D-01-0.703054D-02-0.120664D+01
      2 0.323341D+00-0.432410D-01-0.492639D-01 0.139912D+00 0.335891D+00
      3-0.175731D-01 0.194996D-01 0.105773D-01 0.749835D-01-0.203631D+00
              11           12           13           14           15
      1-0.526874D-01-0.215834D+00 0.384352D+00 0.345318D-01-0.177501D-01
      2-0.213798D+00 0.147478D+00 0.242110D-01 0.114903D+00 0.140831D-01
      3-0.135940D+00-0.471732D+00-0.476319D-01 0.747816D-01 0.317420D+00
              16           17           18           19           20
      1 0.484149D+00 0.206861D+00-0.136746D+00-0.120052D+00-0.286141D-01
      2-0.314727D-01 0.129243D+00 0.127746D+00-0.685409D-01 0.830375D-01
      3-0.951103D-01 0.884198D-01 0.369967D+00-0.581379D-02-0.613641D-01
              21           22           23           24           25
      1-0.283498D-01 0.454338D-04 0.966869D-01 0.272036D-01 0.329203D-01
      2-0.529989D-01 0.349518D-01-0.602343D-01-0.314666D-01 0.439940D-02
      3-0.930524D-02 0.352983D-01-0.380281D-01 0.727577D-01 0.112860D-01
              26           27           28           29           30
      1-0.479778D-01 0.425597D-01 0.600523D-01-0.542927D-02-0.668076D-01
      2-0.221311D-01 0.936152D-01-0.134263D-01 0.419435D-01-0.609173D-01
      3 0.102924D+00-0.116910D-01-0.944776D-02-0.403616D-01-0.489657D-01
              31           32           33           34           35
      1 0.173803D-01-0.518395D-01-0.958112D-02 0.692348D-01-0.266772D-01
      2-0.178768D-01 0.104732D+00-0.635241D-01-0.328425D-01-0.258468D-01
      3 0.192459D-02-0.114855D+00-0.565100D-01 0.274986D-01 0.101666D+00
              36           37           38           39           40
      1 0.280895D-01 0.192646D-01 0.754322D-01-0.563517D-02-0.127104D+00
      2 0.374074D-01 0.915822D-01-0.413289D-01 0.247156D-02-0.567491D-01
      3-0.148266D-01 0.803736D-02-0.666741D-01 0.354584D-01-0.267787D-01
              41           42           43           44           45
      1-0.341960D-01 0.174677D-01-0.378957D+00 0.735205D-02 0.335815D+00
      2 0.571774D-01 0.508890D-02 0.595849D-02-0.489454D+00-0.361557D+00
      3-0.763104D-02 0.502218D-01 0.530039D-01 0.820519D-01-0.214829D+00
              46           47           48
      1-0.171115D+00-0.341330D+00-0.142873D+00
      2-0.114623D+00 0.312251D+00 0.298616D+00
      3 0.966116D-02-0.103262D+00-0.458564D+00
 Hessian after L703:
                1             2             3             4             5
      1  0.517102D+00
      2  0.865374D-01  0.600622D+00
      3  0.650991D-02 -0.429981D-01  0.173821D+00
      4 -0.195136D-01 -0.172305D-01  0.384764D-01  0.439742D-01
      5 -0.258811D-01  0.658945D-02 -0.955277D-01  0.297306D-01 -0.223367D-01
      6  0.131820D-01 -0.166529D-01  0.377065D-01 -0.306734D-01  0.109734D+00
      7 -0.739876D-01 -0.674684D-01  0.151507D-01  0.138454D-02  0.560060D-03
      8 -0.782393D-01 -0.292300D+00  0.496581D-01 -0.131798D-02  0.236022D-03
      9  0.212144D-01  0.634267D-01 -0.455425D-01  0.427402D-02  0.146331D-01
     10 -0.288655D+00  0.191834D-02 -0.317679D-01 -0.208781D-01  0.144079D-01
     11 -0.337580D-01 -0.105145D+00  0.386556D-02  0.295068D-02  0.390289D-02
     12 -0.491824D-01  0.102495D-01 -0.381402D-01 -0.261806D-01  0.146741D-01
     13 -0.223980D-01 -0.480667D-01  0.746293D-02 -0.301313D-04 -0.227638D-03
     14 -0.572405D-02 -0.325546D-02 -0.456954D-02  0.182646D-02 -0.386375D-02
     15 -0.393755D-02 -0.105316D-01 -0.668859D-03 -0.838490D-03 -0.249094D-02
     16 -0.891792D-01  0.133707D-01 -0.822910D-03  0.345466D-02 -0.252452D-02
     17  0.136355D-01 -0.986047D-01 -0.287740D-01  0.489388D-02 -0.131081D-01
     18  0.212715D-01 -0.325698D-01 -0.461048D-01  0.351278D-02  0.132595D-01
     19 -0.256713D-01  0.604213D-03  0.576684D-03 -0.124736D-03  0.211511D-03
     20  0.244625D-01  0.680617D-02  0.367779D-02 -0.361993D-03  0.188092D-02
     21  0.850360D-02  0.514607D-04 -0.795360D-04  0.159397D-02 -0.652428D-03
     22 -0.448720D-02 -0.349628D-02 -0.252611D-02  0.346556D-03 -0.100843D-02
     23 -0.161936D-02 -0.547950D-03  0.253026D-03 -0.129879D-03 -0.608408D-04
     24 -0.361674D-03  0.274706D-03  0.860775D-03 -0.461322D-03  0.151464D-03
     25  0.961180D-03 -0.572203D-03  0.119247D-02 -0.177532D-03  0.501275D-03
     26  0.558248D-03 -0.140360D-03  0.262874D-03 -0.623936D-04  0.555139D-03
     27 -0.150927D-03  0.108664D-02 -0.775025D-03 -0.111918D-03 -0.309978D-03
     28  0.195072D-03 -0.651890D-04 -0.115100D-02 -0.128401D-02  0.191287D-03
     29  0.237586D-03  0.638453D-03 -0.937132D-03  0.158013D-03 -0.555573D-03
     30  0.401977D-04 -0.521695D-03  0.366486D-03  0.226251D-03 -0.968389D-04
     31  0.610460D-02  0.626424D-02  0.126150D-01 -0.617258D-04 -0.186865D-02
     32 -0.803554D-03 -0.119271D-01 -0.188269D-01  0.138762D-03  0.312629D-02
     33  0.251421D-02 -0.800724D-02 -0.118911D-01  0.835392D-03 -0.242731D-02
     34  0.505868D-03 -0.159842D-03  0.524299D-03 -0.754774D-04  0.206279D-03
     35  0.184719D-03  0.535801D-03 -0.109846D-03  0.182645D-04 -0.292216D-03
     36 -0.671494D-03  0.574228D-03 -0.550302D-03 -0.515014D-04 -0.492076D-03
     37 -0.165827D-02 -0.404295D-03 -0.167503D-02 -0.282008D-04  0.244320D-03
     38 -0.143179D-02  0.401936D-03 -0.123947D-02  0.140406D-03  0.312080D-03
     39 -0.210070D-02 -0.117244D-02 -0.227975D-02 -0.509606D-04  0.132296D-02
     40 -0.175419D-02  0.462136D-03 -0.285157D-04 -0.161374D-03  0.224113D-03
     41 -0.258529D-02  0.140412D-03 -0.799026D-03  0.547504D-04 -0.539720D-03
     42 -0.954105D-03  0.446916D-03  0.102707D-02 -0.207798D-03  0.212224D-03
     43  0.584212D-02  0.149004D-01 -0.612205D-02  0.382039D-02  0.972184D-02
     44 -0.672608D-03 -0.698741D-01 -0.206251D-03  0.629847D-02 -0.439016D-01
     45 -0.145785D-01  0.194029D-01 -0.498180D-01  0.142584D-01 -0.486857D-01
     46 -0.340589D-02  0.134060D-01 -0.384148D-01 -0.106455D-01 -0.244888D-01
     47  0.250991D-01 -0.339401D-01  0.136271D+00 -0.271075D-01  0.680557D-01
     48 -0.129847D-02  0.169409D-01 -0.179320D-01 -0.460115D-02 -0.330406D-02
                6             7             8             9            10
      6  0.187400D-01
      7  0.121657D-02  0.942099D-01
      8 -0.254957D-02  0.884503D-01  0.303583D+00
      9 -0.384346D-02 -0.171019D-01 -0.557020D-01  0.410703D-01
     10 -0.184200D-01 -0.219256D-01 -0.404132D-02 -0.479090D-02  0.434850D+00
     11 -0.182350D-02 -0.373411D-01  0.195284D-02 -0.925117D-02  0.126318D+00
     12 -0.177112D-01  0.659954D-02 -0.102524D-02 -0.594290D-04  0.349934D-01
     13 -0.935291D-03 -0.637124D-02  0.728181D-03 -0.244546D-02 -0.757274D-01
     14  0.389040D-02 -0.565720D-03  0.231171D-02  0.245404D-03 -0.133336D+00
     15  0.231176D-02 -0.148093D-02  0.707136D-03  0.384929D-02  0.250902D-01
     16  0.131369D-01  0.796958D-02 -0.938036D-02 -0.197486D-03 -0.349689D-01
     17 -0.112838D-01  0.866242D-02 -0.763639D-02 -0.114948D-01  0.437734D-02
     18 -0.380445D-01 -0.413774D-02  0.768757D-02  0.192783D-02 -0.105770D-01
     19 -0.348755D-03  0.618041D-03 -0.749831D-03 -0.603198D-03 -0.634121D-03
     20  0.699556D-03  0.426190D-03  0.165547D-03  0.375513D-03  0.636963D-02
     21  0.107480D-02  0.107616D-03  0.275815D-03  0.721566D-03  0.236494D-02
     22  0.238087D-03  0.977123D-04  0.163195D-03 -0.162541D-03 -0.205566D-02
     23 -0.120703D-03 -0.216125D-03  0.377930D-03 -0.405089D-04 -0.558893D-03
     24 -0.509560D-04 -0.432870D-04 -0.472497D-04 -0.232897D-03 -0.133004D-03
     25 -0.430268D-03 -0.415122D-03  0.572769D-03  0.433337D-04 -0.144952D-03
     26 -0.514093D-03  0.244308D-03  0.342951D-03 -0.966894D-04 -0.545535D-03
     27  0.464984D-03  0.197459D-03 -0.508931D-03  0.140532D-03  0.478764D-03
     28  0.211840D-03 -0.107359D-03  0.293722D-03 -0.848180D-04  0.111435D-02
     29  0.730530D-03 -0.469619D-04 -0.899704D-04  0.258423D-03  0.320819D-03
     30  0.166752D-03 -0.279724D-03  0.268883D-03 -0.190009D-03 -0.993699D-04
     31  0.280327D-02 -0.529393D-03  0.457534D-03 -0.975089D-04 -0.970637D-03
     32 -0.572562D-02  0.215725D-03 -0.427361D-03 -0.295949D-03 -0.401452D-02
     33  0.103914D-02 -0.340373D-03  0.423929D-03  0.230950D-03 -0.167537D-02
     34 -0.163938D-03  0.960594D-04  0.364980D-04  0.448162D-04 -0.340381D-03
     35  0.450868D-03 -0.620141D-04 -0.386352D-04 -0.117701D-04  0.153664D-03
     36  0.807737D-03  0.109664D-03 -0.423680D-03 -0.110130D-03  0.982665D-03
     37 -0.538427D-03  0.103258D-03 -0.441280D-05  0.175284D-03  0.115112D-02
     38 -0.416154D-03  0.828935D-04 -0.101091D-03  0.599354D-04 -0.101333D-03
     39 -0.191181D-02  0.292249D-03 -0.372040D-03 -0.337952D-03 -0.489491D-03
     40 -0.101312D-03  0.500503D-04 -0.179122D-04 -0.131349D-03  0.118757D-02
     41  0.461178D-03  0.112072D-03  0.364097D-04 -0.980043D-05  0.186697D-02
     42 -0.928522D-04  0.777396D-04  0.541510D-04 -0.284457D-04  0.846892D-03
     43  0.253618D-02 -0.153265D-02  0.254516D-02 -0.329931D-03  0.402872D-02
     44 -0.888284D-04  0.698676D-02 -0.504218D-02  0.353416D-02  0.633088D-03
     45  0.257197D-01 -0.177576D-02  0.325217D-02  0.514286D-02  0.154486D-01
     46  0.182864D-01  0.339848D-03  0.503823D-03  0.193202D-03  0.396952D-02
     47 -0.767909D-01 -0.403835D-04 -0.337086D-02 -0.563055D-02 -0.137689D-01
     48 -0.263767D-01  0.140818D-02 -0.169901D-02 -0.273858D-02 -0.122523D-01
               11            12            13            14            15
     11  0.536497D+00
     12 -0.953343D-01  0.765636D-01
     13 -0.901374D-01  0.119399D-01  0.102554D+00
     14 -0.441186D+00  0.889532D-01  0.138457D+00  0.440909D+00
     15  0.960727D-01 -0.322351D-01 -0.185984D-01 -0.864107D-01  0.302621D-01
     16  0.238085D-01  0.123000D-01 -0.189859D-02  0.242366D-02 -0.136475D-02
     17  0.905665D-02  0.764217D-03 -0.614612D-03  0.122342D-02  0.212842D-02
     18  0.647304D-02 -0.190380D-03  0.208811D-02 -0.107685D-03  0.169850D-02
     19  0.199546D-02  0.147344D-02  0.190267D-03  0.453539D-04  0.125514D-03
     20 -0.474646D-02 -0.208739D-02 -0.531296D-03 -0.734950D-03  0.228733D-03
     21 -0.116587D-02  0.822389D-03 -0.292544D-03  0.442488D-04 -0.783872D-03
     22  0.160159D-02  0.902145D-03  0.292804D-03  0.235498D-03 -0.430568D-04
     23  0.798429D-03 -0.744338D-05  0.151146D-03  0.449195D-04 -0.422444D-04
     24 -0.829841D-04 -0.409216D-04 -0.158260D-05  0.100924D-04  0.966658D-04
     25  0.244177D-03 -0.590990D-03  0.200039D-03 -0.154898D-03  0.215697D-03
     26  0.106278D-03 -0.396348D-03  0.129330D-03  0.239570D-04  0.832319D-04
     27 -0.379260D-03  0.415997D-03 -0.142235D-03 -0.713542D-04 -0.410186D-04
     28  0.187473D-03  0.575765D-03  0.995069D-05 -0.165615D-03 -0.296074D-03
     29 -0.196880D-04  0.549974D-03 -0.292661D-04 -0.119477D-03 -0.151725D-03
     30  0.281494D-03  0.512723D-04  0.123393D-03 -0.148487D-04 -0.320891D-04
     31 -0.124341D-02 -0.745952D-03 -0.153828D-03  0.122251D-02  0.182074D-02
     32 -0.108001D-02 -0.253444D-02  0.289551D-03  0.386031D-03  0.906129D-03
     33  0.962514D-04  0.479326D-03  0.331524D-03  0.211300D-03  0.244721D-04
     34  0.119507D-03 -0.331784D-03  0.170659D-03 -0.259867D-03 -0.254278D-03
     35  0.819081D-04  0.111727D-03 -0.126281D-04 -0.413714D-04 -0.877944D-04
     36 -0.162031D-03  0.537476D-03 -0.222154D-03  0.469602D-04 -0.161537D-04
     37  0.962553D-03  0.139174D-02  0.243340D-03 -0.209621D-03 -0.944600D-03
     38  0.467929D-03  0.419131D-03 -0.635867D-04 -0.125013D-03 -0.194074D-03
     39  0.175293D-03  0.163237D-03 -0.154526D-03  0.787372D-04  0.873531D-04
     40  0.180685D-02  0.210318D-02  0.407977D-03 -0.155843D-03 -0.380095D-03
     41  0.542703D-03  0.135366D-02  0.569088D-03 -0.135674D-03 -0.167535D-02
     42  0.488627D-04 -0.741353D-04  0.980889D-03 -0.882843D-03 -0.134991D-02
     43  0.244009D-02  0.115134D-02  0.271322D-02 -0.346665D-02  0.732344D-03
     44  0.156609D-02  0.479454D-02  0.119191D-03  0.814131D-04 -0.100418D-02
     45  0.438150D-02  0.166770D-01  0.124138D-02 -0.440311D-02 -0.205132D-02
     46  0.446285D-04  0.360125D-02 -0.202742D-03 -0.172953D-03  0.153737D-03
     47 -0.279598D-02 -0.204849D-01 -0.760705D-03  0.448059D-02  0.246228D-02
     48 -0.319557D-02 -0.725898D-02 -0.137599D-02  0.297970D-02 -0.115182D-02
               16            17            18            19            20
     16  0.485410D+00
     17  0.254950D-01  0.404836D+00
     18  0.192795D-01  0.728340D-01  0.477563D+00
     19 -0.174097D+00 -0.179638D-01 -0.114155D-01  0.465908D+00
     20 -0.110342D-01 -0.745821D-01 -0.933942D-02 -0.261828D-01  0.569977D+00
     21 -0.139738D-01 -0.763620D-02 -0.816303D-01 -0.492336D-02  0.128162D-02
     22 -0.215540D-01  0.276813D-01  0.773924D-02 -0.121985D+00  0.115488D+00
     23 -0.549649D-02  0.555792D-02  0.191889D-02  0.118190D+00 -0.224357D+00
     24 -0.226015D-03  0.203476D-02 -0.992207D-03  0.288604D-01 -0.452787D-01
     25 -0.232367D-02 -0.203983D-01  0.214513D-01 -0.609004D-01 -0.403724D-01
     26  0.762951D-03 -0.619589D-02  0.455962D-02 -0.419121D-01 -0.178635D+00
     27 -0.906284D-03 -0.260292D-02  0.334592D-04  0.389090D-01  0.124667D+00
     28 -0.718274D-02 -0.104307D-01 -0.328036D-01 -0.618324D-01 -0.185157D-01
     29 -0.194185D-02 -0.446981D-02 -0.628360D-02 -0.185969D-01 -0.754167D-01
     30 -0.833316D-03 -0.471119D-03 -0.543641D-03 -0.588079D-01 -0.804774D-01
     31 -0.901544D-01 -0.129426D-01 -0.260204D-01 -0.114325D-01 -0.134877D-01
     32 -0.138831D-01 -0.943069D-01 -0.464156D-01 -0.382974D-02 -0.256764D-02
     33 -0.271547D-01 -0.341383D-01 -0.149722D+00 -0.591184D-02 -0.378744D-02
     34 -0.910335D-04  0.751282D-02 -0.500259D-02 -0.215296D-04  0.172484D-03
     35  0.312809D-02  0.858071D-02 -0.891827D-02 -0.291490D-04  0.851860D-04
     36  0.721828D-02  0.216805D-01 -0.182842D-01  0.647284D-03  0.766870D-03
     37  0.414238D-02 -0.857131D-02 -0.134619D-02  0.675667D-03 -0.761828D-03
     38  0.670168D-02 -0.116003D-01 -0.308323D-02  0.547048D-03  0.180084D-03
     39  0.169500D-01 -0.264147D-01 -0.845427D-02  0.130120D-02  0.366615D-03
     40 -0.828311D-02 -0.197283D-02 -0.206670D-03  0.621027D-03 -0.767524D-03
     41 -0.129949D-01 -0.500879D-02  0.193612D-02  0.174101D-03 -0.697961D-03
     42 -0.307737D-01 -0.600102D-02  0.304576D-03  0.543672D-04 -0.168473D-02
     43 -0.725517D-01 -0.268543D-01  0.618768D-02 -0.943471D-02 -0.333759D-01
     44 -0.342784D-01 -0.124083D+00  0.523440D-02 -0.107974D-01 -0.183292D-01
     45  0.836848D-02  0.345690D-01 -0.669713D-01  0.914524D-02  0.124619D-01
[...]
    Z8       -0.63629   0.00000   0.00000  -0.00004  -0.00004  -0.63633
    X9       -2.70931   0.00000   0.00000  -0.00016  -0.00013  -2.70944
    Y9        1.69589   0.00001   0.00000   0.00010   0.00006   1.69595
    Z9       -1.59192   0.00000   0.00000  -0.00002  -0.00002  -1.59194
   X10       -2.69156   0.00000   0.00000  -0.00008  -0.00006  -2.69162
   Y10        0.88631   0.00001   0.00000   0.00010   0.00006   0.88637
   Z10        1.66887   0.00000   0.00000  -0.00004  -0.00004   1.66883
   X11       -6.74747   0.00000   0.00000  -0.00002  -0.00003  -6.74750
   Y11       -1.52821   0.00000   0.00000  -0.00010  -0.00010  -1.52830
   Z11       -2.91387   0.00000   0.00000   0.00003   0.00004  -2.91383
   X12       -6.36278   0.00000   0.00000  -0.00038  -0.00038  -6.36316
   Y12       -0.16010   0.00000   0.00000   0.00000   0.00000  -0.16010
   Z12       -4.41074   0.00000   0.00000   0.00003   0.00003  -4.41071
   X13       -5.66428   0.00001   0.00000   0.00030   0.00028  -5.66401
   Y13       -3.24222   0.00000   0.00000   0.00012   0.00012  -3.24210
   Z13       -3.30065   0.00000   0.00000  -0.00007  -0.00007  -3.30073
   X14       -8.75323   0.00000   0.00000   0.00008   0.00006  -8.75316
   Y14       -2.00066   0.00000   0.00000  -0.00054  -0.00051  -2.00117
   Z14       -2.96884   0.00000   0.00000   0.00016   0.00016  -2.96868
   X15       -6.65084   0.00000   0.00000   0.00003   0.00001  -6.65083
   Y15       -2.33782   0.00000   0.00000  -0.00007  -0.00006  -2.33788
   Z15        1.50780   0.00000   0.00000   0.00001   0.00002   1.50781
   X16       -6.45779   0.00000   0.00000   0.00002   0.00001  -6.45778
   Y16       -1.04123   0.00000   0.00000  -0.00009  -0.00008  -1.04131
   Z16        3.86128   0.00000   0.00000   0.00002   0.00002   3.86129
         Item               Value     Threshold  Converged?
 Maximum Force            0.000007     0.000450     YES
 RMS     Force            0.000003     0.000300     YES
 Maximum Displacement     0.000507     0.001800     YES
 RMS     Displacement     0.000149     0.001200     YES
 Predicted change in Energy=-1.090350D-09
 Optimization completed.
    -- Stationary point found.
 GradGradGradGradGradGradGradGradGradGradGradGradGradGradGradGradGradGrad


 Test job not archived.
 1\1\GINC-NODE24\Freq\UB3LYP\CBSB7\C4H9O3(2)\NYEE\09-Jun-2013\0\\# freq
  nosymm b3lyp/cbsb7 iop(7/33=1)\\Title Card Required\\0,2\C,-4.033069,
 0.961365,0.294052\H,-3.788147,0.553859,1.538842\H,-3.673776,1.966689,0
 .082874\O,-5.37867,0.887715,0.046119\H,-5.664196,-0.018942,0.230217\C,
 -3.167512,-0.236682,-0.188789\C,-1.683976,0.119649,-0.116192\H,-1.0851
 54,-0.766428,-0.336712\H,-1.433703,0.897425,-0.842407\H,-1.42431,0.469
 017,0.883129\C,-3.570605,-0.808692,-1.541954\H,-3.367039,-0.084719,-2.
 334064\H,-2.997408,-1.71571,-1.746631\H,-4.632008,-1.058706,-1.571044\
 O,-3.519474,-1.237119,0.797891\O,-3.417316,-0.550996,2.043299\\Version
 =AM64L-G03RevD.01\HF=-383.4450648\S2=0.757147\S2-1=0.\S2A=0.750025\RMS
 D=2.229e-09\RMSF=3.442e-06\ZeroPoint=0.1267973\Thermal=0.1346256\Dipol
 e=0.1431861,0.4162156,-0.9874499\DipoleDeriv=0.8676071,-0.2034166,0.27
 15143,-0.0628761,0.3553192,-0.1226797,0.4559516,-0.6192955,0.3831876,0
 .0501062,0.0851952,-0.0493099,0.2810808,-0.2965503,0.2303753,-0.276478
 6,0.3233413,-0.0175731,0.018754,-0.043241,0.0194996,-0.050317,-0.04926
 39,0.0105773,-0.0070305,0.1399117,0.0749835,-1.2066392,0.335891,-0.203
 6315,-0.0526874,-0.2137981,-0.1359397,-0.2158342,0.1474777,-0.4717316,
 0.3843517,0.024211,-0.0476319,0.0345318,0.1149028,0.0747816,-0.0177501
 ,0.0140831,0.3174198,0.4841494,-0.0314727,-0.0951103,0.2068606,0.12924
 34,0.0884198,-0.1367464,0.1277462,0.3699674,-0.1200517,-0.0685409,-0.0
 058138,-0.0286141,0.0830375,-0.0613641,-0.0283498,-0.0529989,-0.009305
 2,0.0000454,0.0349518,0.0352983,0.0966869,-0.0602343,-0.0380281,0.0272
 036,-0.0314666,0.0727577,0.0329203,0.0043994,0.011286,-0.0479778,-0.02
 21311,0.1029236,0.0425597,0.0936152,-0.011691,0.0600523,-0.0134263,-0.
 0094478,-0.0054293,0.0419435,-0.0403616,-0.0668076,-0.0609173,-0.04896
 57,0.0173803,-0.0178768,0.0019246,-0.0518395,0.1047317,-0.1148551,-0.0
 095811,-0.0635241,-0.05651,0.0692348,-0.0328425,0.0274986,-0.0266772,-
 0.0258468,0.1016655,0.0280895,0.0374074,-0.0148266,0.0192646,0.0915822
 ,0.0080374,0.0754322,-0.0413289,-0.0666741,-0.0056352,0.0024716,0.0354
 584,-0.1271038,-0.0567491,-0.0267787,-0.034196,0.0571774,-0.007631,0.0
 174677,0.0050889,0.0502218,-0.3789568,0.0059585,0.0530039,0.007352,-0.
 4894536,0.0820519,0.3358148,-0.3615568,-0.2148287,-0.1711145,-0.114623
 2,0.0096612,-0.3413299,0.3122514,-0.1032616,-0.1428735,0.298616,-0.458
 5644\Polar=61.5239996,-4.5077141,59.6770132,2.9879081,-2.052344,63.780
 775\PG=C01 [X(C4H9O3)]\NImag=1\\0.51710179,0.08653742,0.60062182,0.006
 50991,-0.04299815,0.17382123,-0.01951357,-0.01723054,0.03847643,0.0439
 7422,-0.02588114,0.00658945,-0.09552766,0.02973061,-0.02233672,0.01318
 205,-0.01665292,0.03770654,-0.03067345,0.10973358,0.01873997,-0.073987
 58,-0.06746838,0.01515068,0.00138454,0.00056006,0.00121657,0.09420991,
 -0.07823932,-0.29229953,0.04965807,-0.00131798,0.00023602,-0.00254957,
 0.08845025,0.30358261,0.02121441,0.06342668,-0.04554245,0.00427402,0.0
 1463310,-0.00384346,-0.01710188,-0.05570200,0.04107031,-0.28865542,0.0
 0191834,-0.03176792,-0.02087812,0.01440789,-0.01841995,-0.02192565,-0.
 00404132,-0.00479090,0.43484991,-0.03375803,-0.10514467,0.00386556,0.0
 0295068,0.00390289,-0.00182350,-0.03734109,0.00195284,-0.00925117,0.12
 631845,0.53649688,-0.04918237,0.01024945,-0.03814016,-0.02618062,0.014
 67415,-0.01771115,0.00659954,-0.00102524,-0.00005943,0.03499335,-0.095
 33432,0.07656359,-0.02239802,-0.04806670,0.00746293,-0.00003013,-0.000
 22764,-0.00093529,-0.00637124,0.00072818,-0.00244546,-0.07572739,-0.09
 013744,0.01193992,0.10255368,-0.00572405,-0.00325546,-0.00456954,0.001
 82646,-0.00386375,0.00389040,-0.00056572,0.00231171,0.00024540,-0.1333
 3565,-0.44118578,0.08895323,0.13845738,0.44090944,-0.00393755,-0.01053
 162,-0.00066886,-0.00083849,-0.00249094,0.00231176,-0.00148093,0.00070
 714,0.00384929,0.02509016,0.09607270,-0.03223512,-0.01859836,-0.086410
 70,0.03026213,-0.08917920,0.01337066,-0.00082291,0.00345466,-0.0025245
 2,0.01313695,0.00796958,-0.00938036,-0.00019749,-0.03496887,0.02380851
 ,0.01230005,-0.00189859,0.00242366,-0.00136475,0.48540987,0.01363552,-
 0.09860471,-0.02877398,0.00489388,-0.01310805,-0.01128384,0.00866242,-
 0.00763639,-0.01149478,0.00437734,0.00905665,0.00076422,-0.00061461,0.
 00122342,0.00212842,0.02549503,0.40483620,0.02127145,-0.03256979,-0.04
 610483,0.00351278,0.01325953,-0.03804446,-0.00413774,0.00768757,0.0019
 2783,-0.01057703,0.00647304,-0.00019038,0.00208811,-0.00010768,0.00169
 850,0.01927946,0.07283396,0.47756310,-0.02567129,0.00060421,0.00057668
 ,-0.00012474,0.00021151,-0.00034876,0.00061804,-0.00074983,-0.00060320
 ,-0.00063412,0.00199546,0.00147344,0.00019027,0.00004535,0.00012551,-0
 .17409679,-0.01796382,-0.01141553,0.46590788,0.02446253,0.00680617,0.0
 0367779,-0.00036199,0.00188092,0.00069956,0.00042619,0.00016555,0.0003
 7551,0.00636963,-0.00474646,-0.00208739,-0.00053130,-0.00073495,0.0002
 2873,-0.01103420,-0.07458213,-0.00933942,-0.02618280,0.56997707,0.0085
 0360,0.00005146,-0.00007954,0.00159397,-0.00065243,0.00107480,0.000107
 62,0.00027581,0.00072157,0.00236494,-0.00116587,0.00082239,-0.00029254
 ,0.00004425,-0.00078387,-0.01397375,-0.00763620,-0.08163035,-0.0049233
 6,0.00128162,0.58394035,-0.00448720,-0.00349628,-0.00252611,0.00034656
 ,-0.00100843,0.00023809,0.00009771,0.00016319,-0.00016254,-0.00205566,
 0.00160159,0.00090215,0.00029280,0.00023550,-0.00004306,-0.02155404,0.
 02768126,0.00773924,-0.12198517,0.11548765,0.02911899,0.13553811,-0.00
 161936,-0.00054795,0.00025303,-0.00012988,-0.00006084,-0.00012070,-0.0
 0021613,0.00037793,-0.00004051,-0.00055889,0.00079843,-0.00000744,0.00
 015115,0.00004492,-0.00004224,-0.00549649,0.00555792,0.00191889,0.1181
 8961,-0.22435667,-0.04468974,-0.12737137,0.24108701,-0.00036167,0.0002
 7471,0.00086077,-0.00046132,0.00015146,-0.00005096,-0.00004329,-0.0000
 4725,-0.00023290,-0.00013300,-0.00008298,-0.00004092,-0.00000158,0.000
 01009,0.00009667,-0.00022602,0.00203476,-0.00099221,0.02886035,-0.0452
 7873,-0.05765131,-0.03128006,0.04956810,0.05745754,0.00096118,-0.00057
 220,0.00119247,-0.00017753,0.00050127,-0.00043027,-0.00041512,0.000572
 77,0.00004333,-0.00014495,0.00024418,-0.00059099,0.00020004,-0.0001549
 0,0.00021570,-0.00232367,-0.02039831,0.02145131,-0.06090038,-0.0403724
 3,0.03730248,0.00443043,0.01161712,-0.01294311,0.06390051,0.00055825,-
 0.00014036,0.00026287,-0.00006239,0.00055514,-0.00051409,0.00024431,0.
 00034295,-0.00009669,-0.00054554,0.00010628,-0.00039635,0.00012933,0.0
 0002396,0.00008323,0.00076295,-0.00619589,0.00455962,-0.04191205,-0.17
 863461,0.12414710,-0.00682939,-0.01745941,0.01760569,0.04612368,0.1924
 0564,-0.00015093,0.00108664,-0.00077503,-0.00011192,-0.00030998,0.0004
 6498,0.00019746,-0.00050893,0.00014053,0.00047876,-0.00037926,0.000416
 00,-0.00014224,-0.00007135,-0.00004102,-0.00090628,-0.00260292,0.00003
 346,0.03890903,0.12466720,-0.16292840,-0.00274798,-0.00551870,0.004812
 26,-0.04228256,-0.13768019,0.17463952,0.00019507,-0.00006519,-0.001151
 00,-0.00128401,0.00019129,0.00021184,-0.00010736,0.00029372,-0.0000848
 2,0.00111435,0.00018747,0.00057576,0.00000995,-0.00016561,-0.00029607,
 -0.00718274,-0.01043068,-0.03280356,-0.06183236,-0.01851572,-0.0549455
 8,0.00422531,0.00463172,0.01672139,0.00094263,0.00348971,0.00707155,0.
 06814650,0.00023759,0.00063845,-0.00093713,0.00015801,-0.00055557,0.00
 073053,-0.00004696,-0.00008997,0.00025842,0.00032082,-0.00001969,0.000
 54997,-0.00002927,-0.00011948,-0.00015172,-0.00194185,-0.00446981,-0.0
 0628360,-0.01859693,-0.07541670,-0.07849410,-0.00707143,-0.00789366,-0
 .02455535,0.00664107,0.00870908,0.02173724,0.02138022,0.07736285,0.000
 04020,-0.00052169,0.00036649,0.00022625,-0.00009684,0.00016675,-0.0002
 7972,0.00026888,-0.00019001,-0.00009937,0.00028149,0.00005127,0.000123
 39,-0.00001485,-0.00003209,-0.00083332,-0.00047112,-0.00054364,-0.0588
 0789,-0.08047735,-0.27429375,-0.00072805,-0.00106239,-0.00429321,-0.00
 434078,-0.00701500,-0.01723808,0.06301677,0.08764549,0.29704562,0.0061
 0460,0.00626424,0.01261499,-0.00006173,-0.00186865,0.00280327,-0.00052
 939,0.00045753,-0.00009751,-0.00097064,-0.00124341,-0.00074595,-0.0001
 5383,0.00122251,0.00182074,-0.09015443,-0.01294257,-0.02602045,-0.0114
 3251,-0.01348771,-0.03186638,0.00120714,-0.00016135,-0.00038076,0.0011
 9935,0.00033630,-0.00005533,-0.00626625,-0.00197480,-0.00070506,0.5738
 1796,-0.00080355,-0.01192714,-0.01882688,0.00013876,0.00312629,-0.0057
 2562,0.00021573,-0.00042736,-0.00029595,-0.00401452,-0.00108001,-0.002
 53444,0.00028955,0.00038603,0.00090613,-0.01388309,-0.09430694,-0.0464
 1557,-0.00382974,-0.00256764,-0.00863109,0.00111068,0.00050569,0.00055
 453,0.00023046,-0.00010206,-0.00003102,-0.00121302,0.00017995,0.000221
 21,-0.00660056,0.55345536,0.00251421,-0.00800724,-0.01189114,0.0008353
 9,-0.00242731,0.00103914,-0.00034037,0.00042393,0.00023095,-0.00167537
 ,0.00009625,0.00047933,0.00033152,0.00021130,0.00002447,-0.02715474,-0
 .03413826,-0.14972186,-0.00591184,-0.00378744,-0.00133630,0.00095352,0
 .00029840,0.00006354,0.00047380,0.00032114,-0.00030173,0.00154621,0.00
 032712,0.00059115,-0.02379055,-0.03934012,0.48824002,0.00050587,-0.000
 15984,0.00052430,-0.00007548,0.00020628,-0.00016394,0.00009606,0.00003
 650,0.00004482,-0.00034038,0.00011951,-0.00033178,0.00017066,-0.000259
 87,-0.00025428,-0.00009103,0.00751282,-0.00500259,-0.00002153,0.000172
 48,0.00009398,-0.00001641,0.00007617,-0.00012504,-0.00026310,-0.000330
 99,-0.00047395,0.00007951,0.00007959,0.00018197,-0.05523530,-0.0343894
 5,0.03599566,0.05606741,0.00018472,0.00053580,-0.00010985,0.00001826,-
 0.00029222,0.00045087,-0.00006201,-0.00003864,-0.00001177,0.00015366,0
 .00008191,0.00011173,-0.00001263,-0.00004137,-0.00008779,0.00312809,0.
 00858071,-0.00891827,-0.00002915,0.00008519,0.00021919,-0.00009169,-0.
 00005032,0.00011466,-0.00014800,0.00028017,-0.00028809,0.00026106,0.00
 011282,-0.00001661,-0.03412465,-0.16435127,0.12828160,0.03807275,0.176
 54271,-0.00067149,0.00057423,-0.00055030,-0.00005150,-0.00049208,0.000
 80774,0.00010966,-0.00042368,-0.00011013,0.00098266,-0.00016203,0.0005
 3748,-0.00022215,0.00004696,-0.00001615,0.00721828,0.02168046,-0.01828
 424,0.00064728,0.00076687,0.00102608,-0.00006952,-0.00009557,-0.000010
 31,-0.00074940,-0.00058383,0.00015441,0.00025653,-0.00031001,0.0002357
 9,0.03483916,0.12662811,-0.18383976,-0.03859288,-0.13888164,0.20068174
 ,-0.00165827,-0.00040429,-0.00167503,-0.00002820,0.00024432,-0.0005384
 3,0.00010326,-0.00000441,0.00017528,0.00115112,0.00096255,0.00139174,0
 .00024334,-0.00020962,-0.00094460,0.00414238,-0.00857131,-0.00134619,0
 .00067567,-0.00076183,0.00003283,0.00003103,-0.00006871,-0.00034969,-0
 .00005937,-0.00010283,-0.00005445,0.00003507,0.00014279,0.00012489,-0.
 12162076,0.11614275,0.02494226,0.00321749,-0.00623589,-0.00199543,0.12
 875924,-0.00143179,0.00040194,-0.00123947,0.00014041,0.00031208,-0.000
 41615,0.00008289,-0.00010109,0.00005994,-0.00010133,0.00046793,0.00041
 913,-0.00006359,-0.00012501,-0.00019407,0.00670168,-0.01160030,-0.0030
 8323,0.00054705,0.00018008,0.00062131,-0.00078410,0.00022855,-0.000284
 68,0.00000280,-0.00001256,-0.00008419,-0.00015527,0.00041673,0.0000811
 8,0.11614228,-0.22826141,-0.03956214,0.01096940,-0.01657506,-0.0044176
 5,-0.12745923,0.24659690,-0.00210070,-0.00117244,-0.00227975,-0.000050
 96,0.00132296,-0.00191181,0.00029225,-0.00037204,-0.00033795,-0.000489
 49,0.00017529,0.00016324,-0.00015453,0.00007874,0.00008735,0.01695001,
 -0.02641470,-0.00845427,0.00130120,0.00036662,0.00095108,-0.00071376,0
 .00005871,0.00013555,-0.00012724,0.00009105,0.00005026,0.00009544,0.00
 041426,0.00002539,0.02452388,-0.03862216,-0.05350431,-0.01369099,0.019
 28584,0.00532854,-0.02583844,0.04532109,0.05817229,-0.00175419,0.00046
 214,-0.00002852,-0.00016137,0.00022411,-0.00010131,0.00005005,-0.00001
 791,-0.00013135,0.00118757,0.00180685,0.00210318,0.00040798,-0.0001558
 4,-0.00038009,-0.00828311,-0.00197283,-0.00020667,0.00062103,-0.000767
 52,-0.00255496,0.00042812,-0.00001401,0.00020385,0.00013847,0.00007280
 ,0.00018570,-0.00058275,-0.00026147,0.00018430,-0.29923388,-0.05872923
 ,-0.00445954,-0.00453594,-0.00053910,0.00013712,-0.01532423,-0.0042895
 8,0.00008563,0.32567807,-0.00258529,0.00014041,-0.00079903,0.00005475,
 -0.00053972,0.00046118,0.00011207,0.00003641,-0.00000980,0.00186697,0.
 00054270,0.00135366,0.00056909,-0.00013567,-0.00167535,-0.01299488,-0.
 00500879,0.00193612,0.00017410,-0.00069796,-0.00289559,-0.00027722,0.0
 0017582,-0.00003091,0.00039495,0.00021858,-0.00001979,-0.00104343,0.00
 026175,-0.00009301,-0.05711119,-0.05972326,-0.00236100,-0.02086268,-0.
 00489622,-0.00141937,0.02638975,0.00762050,0.00059434,0.06412115,0.060
 96377,-0.00095410,0.00044692,0.00102707,-0.00020780,0.00021222,-0.0000
 9285,0.00007774,0.00005415,-0.00002845,0.00084689,0.00004886,-0.000074
 14,0.00098089,-0.00088284,-0.00134991,-0.03077367,-0.00600102,0.000304
 58,0.00005437,-0.00168473,-0.00545078,0.00013644,0.00012282,-0.0000753
 6,0.00005253,-0.00023190,0.00014246,-0.00172947,-0.00057728,-0.0000346
 0,-0.00239839,-0.00117030,-0.04761969,0.02336133,0.00385814,0.00097702
 ,0.00538993,0.00200272,-0.00089403,0.00435893,0.00404361,0.05057849,0.
 00584212,0.01490040,-0.00612205,0.00382039,0.00972184,0.00253618,-0.00
 153265,0.00254516,-0.00032993,0.00402872,0.00244009,0.00115134,0.00271
 322,-0.00346665,0.00073234,-0.07255172,-0.02685433,0.00618768,-0.00943
 471,-0.03337590,0.02924908,0.00357802,0.00053187,0.00007126,-0.0084699
 9,-0.00273633,-0.00079591,0.00202176,0.00020187,-0.00078350,0.00292628
 ,0.00474176,-0.00488711,-0.00033290,-0.00051173,-0.00157928,0.00025543
 ,0.00003302,-0.00014059,0.00082787,0.00106305,0.00009662,0.08917583,-0
 .00067261,-0.06987413,-0.00020625,0.00629847,-0.04390157,-0.00008883,0
 .00698676,-0.00504218,0.00353416,0.00063309,0.00156609,0.00479454,0.00
 011919,0.00008141,-0.00100418,-0.03427837,-0.12408262,0.00523440,-0.01
 079742,-0.01832923,0.01610837,0.00013147,0.00163277,0.00010309,-0.0045
 1925,0.00024622,-0.00151726,0.00113871,-0.00016533,-0.00041444,0.00387
 735,0.01166683,-0.00435757,-0.00089635,-0.00062188,-0.00452714,0.00044
 249,0.00071179,0.00028717,0.00006841,0.00068625,-0.00012434,0.05247000
 ,0.32584939,-0.01457854,0.01940292,-0.04981802,0.01425836,-0.04868571,
 0.02571968,-0.00177576,0.00325217,0.00514286,0.01544858,0.00438150,0.0
 1667699,0.00124138,-0.00440311,-0.00205132,0.00836848,0.03456900,-0.06
 697126,0.00914524,0.01246188,-0.00683410,-0.00156005,-0.00070135,0.000
 86328,0.00219241,0.00022351,-0.00044679,0.00026679,-0.00138851,-0.0008
 5963,0.00412000,0.02635029,-0.04035644,-0.00057429,-0.00247000,-0.0053
 3238,0.00043000,0.00141852,0.00310839,0.00091060,0.00044229,0.00211195
 ,-0.00686229,0.01524329,0.28031410,-0.00340589,0.01340601,-0.03841485,
 -0.01064549,-0.02448881,0.01828644,0.00033985,0.00050382,0.00019320,0.
 00396952,0.00004463,0.00360125,-0.00020274,-0.00017295,0.00015374,0.00
 130769,0.00749017,0.00997973,-0.00187929,-0.00152709,0.00018910,-0.000
 07675,0.00043855,0.00044869,0.00098151,0.00080218,0.00087905,0.0004853
 2,0.00076076,0.00267992,0.00040339,0.00059347,0.00062695,0.00077508,-0
 .00006370,-0.00025903,0.00007679,-0.00033464,0.00005829,0.00053631,0.0
 0012881,0.00070777,-0.02286766,-0.02100193,-0.03103091,0.03020236,0.02
 509912,-0.03394010,0.13627062,-0.02710752,0.06805566,-0.07679087,-0.00
 004038,-0.00337086,-0.00563055,-0.01376895,-0.00279598,-0.02048492,-0.
 00076070,0.00448059,0.00246228,0.01584318,0.01034074,-0.00718557,-0.00
 170555,0.00097139,0.00141590,0.00051856,-0.00004020,-0.00013718,-0.000
 16321,-0.00034312,0.00152061,0.00001501,0.00104858,0.00168505,0.001214
 65,-0.00657307,0.00402134,-0.00034631,0.00064766,0.00161636,-0.0005065
 2,-0.00026108,-0.00141473,-0.00000797,0.00035542,-0.00011702,-0.021704
 13,-0.08042382,-0.06009668,0.02342072,0.04184819,-0.00129847,0.0169408
 5,-0.01793202,-0.00460115,-0.00330406,-0.02637666,0.00140818,-0.001699
 01,-0.00273858,-0.01225232,-0.00319557,-0.00725898,-0.00137599,0.00297
 970,-0.00115182,-0.00100030,-0.00519397,-0.07058997,0.00091747,-0.0018
 7071,0.00245214,0.00074270,0.00005870,-0.00094244,-0.00145968,-0.00077
 617,0.00087715,0.00124824,0.00103467,-0.00099746,0.00533834,0.00693288
 ,-0.00209738,-0.00099230,-0.00153800,-0.00160552,0.00025532,-0.0006423
 0,-0.00063996,-0.00030687,0.00047264,0.00047823,-0.01852384,-0.0330650
 0,-0.16126731,0.03190067,0.02286535,0.28979058\\0.00000109,0.00000261,
 -0.00000273,0.00000698,0.00000130,0.00000393,0.00000672,0.00000091,0.0
 0000104,0.00000336,0.00000605,0.00000310,-0.00000024,0.00000700,0.0000
 0255,0.00000123,0.00000143,0.00000037,0.00000087,-0.00000445,-0.000001
 00,-0.00000236,-0.00000730,-0.00000266,0.00000222,-0.00000580,-0.00000
 192,0.00000273,-0.00000606,-0.00000247,-0.00000413,0.00000158,-0.00000
 030,-0.00000290,0.00000074,0.00000053,-0.00000678,-0.00000040,-0.00000
 099,-0.00000468,0.00000456,0.00000114,-0.00000451,-0.00000053,-0.00000
 021,0.00000040,-0.00000162,-0.00000036\\\@


       THE DEATH-KNELL OF THE ATOM

 SO THE ATOMS IN TURN, WE NOW CLEARLY DISCERN,
 FLY TO BITS WITH THE UTMOST FACILITY;
 THEY WEND ON THEIR WAY, AND, IN SPLITTING, DISPLAY
 AN ABSOLUTE LACK OF STABILITY.

          SIR WM. RAMSAY, 1905
 Job cpu time:  0 days  1 hours 11 minutes 10.4 seconds.
 File lengths (MBytes):  RWF=    125 Int=      0 D2E=      0 Chk=      8 Scr=      1
 Normal termination of Gaussian 03 at Sun Jun  9 18:16:41 2013.
