 Entering Gaussian System, Link 0=g03
 Input=TS11freq.gjf
 Output=TS11freq.log
 Initial command:
 /opt/g03/l1.exe /scratch/nyee/Gau-16481.inp -scrdir=/scratch/nyee/
 Entering Link 1 = /opt/g03/l1.exe PID=     16483.
  
 Copyright (c) 1988,1990,1992,1993,1995,1998,2003,2004, Gaussian, Inc.
                  All Rights Reserved.
  
 This is the Gaussian(R) 03 program.  It is based on the
 the Gaussian(R) 98 system (copyright 1998, Gaussian, Inc.),
 the Gaussian(R) 94 system (copyright 1995, Gaussian, Inc.),
 the Gaussian 92(TM) system (copyright 1992, Gaussian, Inc.),
 the Gaussian 90(TM) system (copyright 1990, Gaussian, Inc.),
 the Gaussian 88(TM) system (copyright 1988, Gaussian, Inc.),
 the Gaussian 86(TM) system (copyright 1986, Carnegie Mellon
 University), and the Gaussian 82(TM) system (copyright 1983,
 Carnegie Mellon University). Gaussian is a federally registered
 trademark of Gaussian, Inc.
  
 This software contains proprietary and confidential information,
 including trade secrets, belonging to Gaussian, Inc.
  
 This software is provided under written license and may be
 used, copied, transmitted, or stored only in accord with that
 written license.
  
 The following legend is applicable only to US Government
 contracts under FAR:
  
                    RESTRICTED RIGHTS LEGEND
  
 Use, reproduction and disclosure by the US Government is
 subject to restrictions as set forth in subparagraphs (a)
 and (c) of the Commercial Computer Software - Restricted
 Rights clause in FAR 52.227-19.
  
 Gaussian, Inc.
 340 Quinnipiac St., Bldg. 40, Wallingford CT 06492
  
  
 ---------------------------------------------------------------
 Warning -- This program may not be used in any manner that
 competes with the business of Gaussian, Inc. or will provide
 assistance to any competitor of Gaussian, Inc.  The licensee
 of this program is prohibited from giving any competitor of
 Gaussian, Inc. access to this program.  By using this program,
 the user acknowledges that Gaussian, Inc. is engaged in the
 business of creating and licensing software in the field of
 computational chemistry and represents and warrants to the
 licensee that it is not a competitor of Gaussian, Inc. and that
 it will not use this program in any manner prohibited above.
 ---------------------------------------------------------------
  

 Cite this work as:
 Gaussian 03, Revision D.01,
 M. J. Frisch, G. W. Trucks, H. B. Schlegel, G. E. Scuseria, 
 M. A. Robb, J. R. Cheeseman, J. A. Montgomery, Jr., T. Vreven, 
 K. N. Kudin, J. C. Burant, J. M. Millam, S. S. Iyengar, J. Tomasi, 
 V. Barone, B. Mennucci, M. Cossi, G. Scalmani, N. Rega, 
 G. A. Petersson, H. Nakatsuji, M. Hada, M. Ehara, K. Toyota, 
 R. Fukuda, J. Hasegawa, M. Ishida, T. Nakajima, Y. Honda, O. Kitao, 
 H. Nakai, M. Klene, X. Li, J. E. Knox, H. P. Hratchian, J. B. Cross, 
 V. Bakken, C. Adamo, J. Jaramillo, R. Gomperts, R. E. Stratmann, 
 O. Yazyev, A. J. Austin, R. Cammi, C. Pomelli, J. W. Ochterski, 
 P. Y. Ayala, K. Morokuma, G. A. Voth, P. Salvador, J. J. Dannenberg, 
 V. G. Zakrzewski, S. Dapprich, A. D. Daniels, M. C. Strain, 
 O. Farkas, D. K. Malick, A. D. Rabuck, K. Raghavachari, 
 J. B. Foresman, J. V. Ortiz, Q. Cui, A. G. Baboul, S. Clifford, 
 J. Cioslowski, B. B. Stefanov, G. Liu, A. Liashenko, P. Piskorz, 
 I. Komaromi, R. L. Martin, D. J. Fox, T. Keith, M. A. Al-Laham, 
 C. Y. Peng, A. Nanayakkara, M. Challacombe, P. M. W. Gill, 
 B. Johnson, W. Chen, M. W. Wong, C. Gonzalez, and J. A. Pople, 
 Gaussian, Inc., Wallingford CT, 2004.
 
 ******************************************
 Gaussian 03:  AM64L-G03RevD.01 13-Oct-2005
                23-Jul-2014 
 ******************************************
 %chk=TS11freq.chk
 %mem=1000mb
 %nproc=8
 Will use up to    8 processors via shared memory.
 -------------------------------------
 # freq nosymm b3lyp/cbsb7 iop(7/33=1)
 -------------------------------------
 1/10=4,30=1,38=1/1,3;
 2/15=1,17=6,18=5,40=1/2;
 3/5=4,6=6,7=700,11=2,16=1,25=1,30=1,74=-5/1,2,3;
 4//1;
 5/5=2,38=5/2;
 8/6=4,10=90,11=11/1;
 11/6=1,8=1,9=11,15=111,16=1,31=1/1,2,10;
 10/6=1,31=1/2;
 6/7=2,8=2,9=2,10=2,18=1,28=1/1;
 7/8=1,10=1,25=1,30=1,33=1/1,2,3,16;
 1/10=4,30=1/3;
 99//99;
 -------------------
 Title Card Required
 -------------------
 Symbolic Z-matrix:
 Charge =  0 Multiplicity = 2
 O                    -0.46988  -0.38083  -0.45931 
 C                    -0.42734   1.01557  -0.10295 
 C                    -1.47696   1.16441   1.0119 
 H                    -1.24531   0.47268   1.82298 
 H                    -1.47582   2.18161   1.41313 
 H                    -2.47181   0.92555   0.63324 
 C                    -0.82075   1.81364  -1.30769 
 H                    -1.62688   2.54023  -1.31276 
 C                     0.97929   1.39158   0.40776 
 H                     1.01469   2.43109   0.74575 
 H                     1.24183   0.74134   1.24594 
 H                     1.72568   1.26736  -0.37744 
 O                    -0.10211   1.74891  -2.40055 
 O                     0.60322  -0.61368  -1.81452 
 H                     1.37583  -0.92396  -1.32384 
 H                     0.40649   0.87311  -2.35171 
 

 GradGradGradGradGradGradGradGradGradGradGradGradGradGradGradGradGradGrad
 Berny optimization.
 Initialization pass.
 Trust Radius=3.00D-01 FncErr=1.00D-07 GrdErr=1.00D-07
 Number of steps in this run=   2 maximum allowed number of steps=   2.
 GradGradGradGradGradGradGradGradGradGradGradGradGradGradGradGradGradGrad

                          Input orientation:                          
 ---------------------------------------------------------------------
 Center     Atomic     Atomic              Coordinates (Angstroms)
 Number     Number      Type              X           Y           Z
 ---------------------------------------------------------------------
    1          8             0       -0.469881   -0.380827   -0.459313
    2          6             0       -0.427338    1.015570   -0.102951
    3          6             0       -1.476963    1.164411    1.011901
    4          1             0       -1.245308    0.472678    1.822977
    5          1             0       -1.475817    2.181613    1.413131
    6          1             0       -2.471810    0.925550    0.633240
    7          6             0       -0.820747    1.813642   -1.307687
    8          1             0       -1.626877    2.540230   -1.312758
    9          6             0        0.979291    1.391580    0.407756
   10          1             0        1.014690    2.431091    0.745746
   11          1             0        1.241832    0.741335    1.245938
   12          1             0        1.725678    1.267360   -0.377438
   13          8             0       -0.102109    1.748914   -2.400549
   14          8             0        0.603218   -0.613681   -1.814523
   15          1             0        1.375828   -0.923960   -1.323837
   16          1             0        0.406487    0.873110   -2.351712
 ---------------------------------------------------------------------
                    Distance matrix (angstroms):
                    1          2          3          4          5
     1  O    0.000000
     2  C    1.441780   0.000000
     3  C    2.359332   1.538428   0.000000
     4  H    2.557070   2.161714   1.090873   0.000000
     5  H    3.329272   2.181162   1.093475   1.772447   0.000000
     6  H    2.628310   2.174844   1.090944   1.767731   1.782674
     7  C    2.378769   1.497691   2.496519   3.432127   2.822653
     8  H    3.255700   2.286288   2.705437   3.775341   2.753524
     9  C    2.448129   1.542987   2.539642   2.792145   2.768120
    10  H    3.400441   2.191673   2.807784   3.178584   2.590418
    11  H    2.664036   2.163524   2.761451   2.567297   3.080255
    12  H    2.746580   2.184999   3.492531   3.781548   3.780419
    13  O    2.905073   2.433624   3.725142   4.557834   4.076574
    14  O    1.744235   2.577980   3.934137   4.222396   4.749085
    15  H    2.109274   2.916118   4.237379   4.327053   5.026675
    16  H    2.433424   2.402600   3.866023   4.507416   4.407867
                    6          7          8          9         10
     6  H    0.000000
     7  C    2.698502   0.000000
     8  H    2.666085   1.085266   0.000000
     9  C    3.489717   2.522106   3.327413   0.000000
    10  H    3.799341   2.822527   3.350705   1.093651   0.000000
    11  H    3.768351   3.453270   4.244106   1.092838   1.776812
    12  H    4.330959   2.765514   3.706028   1.090437   1.766725
    13  O    3.936659   1.309572   2.033319   3.030460   3.407606
    14  O    4.220968   2.859450   3.895157   3.016791   3.999365
    15  H    4.696292   3.509938   4.584427   2.918455   3.958530
    16  H    4.146961   1.865661   2.827240   2.865585   3.520151
                   11         12         13         14         15
    11  H    0.000000
    12  H    1.773741   0.000000
    13  O    4.014755   2.768696   0.000000
    14  O    3.407392   2.619818   2.534318   0.000000
    15  H    3.065111   2.412457   3.238497   0.966422   0.000000
    16  H    3.695707   2.406960   1.013947   1.593054   2.285959
                   16
    16  H    0.000000
 Symmetry turned off by external request.
 Stoichiometry    C4H9O3(2)
 Framework group  C1[X(C4H9O3)]
 Deg. of freedom    42
 Full point group                 C1
 Rotational constants (GHZ):      3.2164041      2.3176293      1.9158956
 Standard basis: CBSB7 (5D, 7F)
 Integral buffers will be    131072 words long.
 Raffenetti 2 integral format.
 Two-electron integral symmetry is turned off.
   180 basis functions,   296 primitive gaussians,   187 cartesian basis functions
    29 alpha electrons       28 beta electrons
       nuclear repulsion energy       336.6696291592 Hartrees.
 NAtoms=   16 NActive=   16 NUniq=   16 SFac= 7.50D-01 NAtFMM=   80 NAOKFM=F Big=F
 One-electron integrals computed using PRISM.
 NBasis=   180 RedAO= T  NBF=   180
 NBsUse=   180 1.00D-06 NBFU=   180
 Harris functional with IExCor=  402 diagonalized for initial guess.
 ExpMin= 1.03D-01 ExpMax= 8.59D+03 ExpMxC= 1.30D+03 IAcc=1 IRadAn=         1 AccDes= 1.00D-06
 HarFok:  IExCor= 402 AccDes= 1.00D-06 IRadAn=         1 IDoV=1
 ScaDFX=  1.000000  1.000000  1.000000  1.000000
 <S**2> of initial guess= 0.7500
 Requested convergence on RMS density matrix=1.00D-08 within 128 cycles.
 Requested convergence on MAX density matrix=1.00D-06.
 Requested convergence on             energy=1.00D-06.
 No special actions if energy rises.
 Integral accuracy reduced to 1.0D-05 until final iterations.
 EnCoef did     3 forward-backward iterations
 EnCoef did     5 forward-backward iterations
 EnCoef did     2 forward-backward iterations
 Initial convergence to 1.0D-05 achieved.  Increase integral accuracy.
 SCF Done:  E(UB+HF-LYP) =  -383.451006960     A.U. after   28 cycles
             Convg  =    0.5163D-08             -V/T =  2.0034
             S**2   =   0.7668
 Annihilation of the first spin contaminant:
 S**2 before annihilation     0.7668,   after     0.7501
 Range of M.O.s used for correlation:     1   180
 NBasis=   180 NAE=    29 NBE=    28 NFC=     0 NFV=     0
 NROrb=    180 NOA=    29 NOB=    28 NVA=   151 NVB=   152

 **** Warning!!: The smallest alpha delta epsilon is  0.45565863D-01

 Symmetrizing basis deriv contribution to polar:
 IMax=3 JMax=2 DiffMx= 0.00D+00
 G2DrvN: will do   17 centers at a time, making    1 passes doing MaxLOS=2.
 FoFDir/FoFCou used for L=0 through L=2.
 DoAtom=TTTTTTTTTTTTTTTT
          Differentiating once with respect to electric field.
                with respect to dipole field.
          Differentiating once with respect to nuclear coordinates.
 Symmetry not used in FoFDir.
 MinBra= 0 MaxBra= 2 Meth= 1.
 IRaf=       0 NMat=  51 IRICut=      51 DoRegI=T DoRafI=T ISym2E= 0 JSym2E=0.
          There are  51 degrees of freedom in the 1st order CPHF.
    48 vectors were produced by pass  0.
 AX will form  48 AO Fock derivatives at one time.
    48 vectors were produced by pass  1.
    48 vectors were produced by pass  2.
    48 vectors were produced by pass  3.
    48 vectors were produced by pass  4.
    48 vectors were produced by pass  5.
    33 vectors were produced by pass  6.
     8 vectors were produced by pass  7.
     3 vectors were produced by pass  8.
 Inv2:  IOpt= 1 Iter= 1 AM= 3.60D-15 Conv= 1.00D-12.
 Inverted reduced A of dimension  332 with in-core refinement.
 Isotropic polarizability for W=    0.000000       81.83 Bohr**3.
 End of Minotr Frequency-dependent properties file   721 does not exist.

 **********************************************************************

            Population analysis using the SCF density.

 **********************************************************************

 Alpha  occ. eigenvalues --  -19.17150 -19.14813 -19.14211 -10.25976 -10.24667
 Alpha  occ. eigenvalues --  -10.17811 -10.17349  -1.09666  -1.02829  -0.94205
 Alpha  occ. eigenvalues --   -0.78869  -0.70976  -0.69008  -0.60565  -0.52610
 Alpha  occ. eigenvalues --   -0.50370  -0.47463  -0.46307  -0.44248  -0.42481
 Alpha  occ. eigenvalues --   -0.41449  -0.40013  -0.39024  -0.38132  -0.37352
 Alpha  occ. eigenvalues --   -0.34527  -0.29876  -0.27566  -0.16439
 Alpha virt. eigenvalues --   -0.11882   0.03390   0.05452   0.07951   0.08501
 Alpha virt. eigenvalues --    0.09455   0.10122   0.12898   0.13446   0.14218
 Alpha virt. eigenvalues --    0.17434   0.19268   0.21873   0.23280   0.24201
 Alpha virt. eigenvalues --    0.27517   0.33681   0.34382   0.36019   0.38869
 Alpha virt. eigenvalues --    0.40148   0.41302   0.43753   0.44950   0.47942
 Alpha virt. eigenvalues --    0.50304   0.53102   0.54618   0.55929   0.57142
 Alpha virt. eigenvalues --    0.57992   0.59463   0.60135   0.61028   0.61827
 Alpha virt. eigenvalues --    0.63165   0.66111   0.74241   0.76138   0.81727
 Alpha virt. eigenvalues --    0.83525   0.85774   0.87780   0.89427   0.93455
 Alpha virt. eigenvalues --    0.96249   0.97719   1.00845   1.05372   1.10792
 Alpha virt. eigenvalues --    1.16797   1.20155   1.22477   1.28087   1.30821
 Alpha virt. eigenvalues --    1.35813   1.37053   1.40103   1.41675   1.43087
 Alpha virt. eigenvalues --    1.44307   1.45007   1.45634   1.47553   1.47852
 Alpha virt. eigenvalues --    1.51145   1.52009   1.54161   1.55850   1.58503
 Alpha virt. eigenvalues --    1.60890   1.61552   1.64485   1.70723   1.71561
 Alpha virt. eigenvalues --    1.74409   1.77151   1.80117   1.85854   1.88157
 Alpha virt. eigenvalues --    1.90483   1.96116   1.97664   1.98864   2.05660
 Alpha virt. eigenvalues --    2.07086   2.12839   2.18899   2.24388   2.24735
 Alpha virt. eigenvalues --    2.31765   2.34562   2.37858   2.41557   2.42950
 Alpha virt. eigenvalues --    2.44165   2.48214   2.49165   2.51320   2.52353
 Alpha virt. eigenvalues --    2.53337   2.55326   2.57695   2.58613   2.62341
 Alpha virt. eigenvalues --    2.65478   2.68895   2.81602   2.82714   2.84325
 Alpha virt. eigenvalues --    2.87960   2.90280   2.94925   3.01528   3.03686
 Alpha virt. eigenvalues --    3.10302   3.11602   3.14262   3.17267   3.18463
 Alpha virt. eigenvalues --    3.22654   3.27790   3.35716   3.42691   3.53712
 Alpha virt. eigenvalues --    3.74486   3.75646   3.77674   3.78324   3.80425
 Alpha virt. eigenvalues --    3.81260   3.87309   3.99708   4.17285   4.25928
 Alpha virt. eigenvalues --    4.81315   4.84317   4.91176   4.92876   5.02949
 Alpha virt. eigenvalues --    5.24034   5.38617   5.48265   5.68594  23.68406
 Alpha virt. eigenvalues --   23.75249  23.89799  23.92417  49.79525  49.86892
 Alpha virt. eigenvalues --   49.88577
  Beta  occ. eigenvalues --  -19.16838 -19.13868 -19.13751 -10.25166 -10.24729
  Beta  occ. eigenvalues --  -10.17769 -10.17292  -1.08888  -1.01252  -0.93076
  Beta  occ. eigenvalues --   -0.78100  -0.70805  -0.67731  -0.60210  -0.51829
  Beta  occ. eigenvalues --   -0.49766  -0.46704  -0.45702  -0.43865  -0.41666
  Beta  occ. eigenvalues --   -0.40735  -0.39482  -0.37925  -0.37164  -0.37035
  Beta  occ. eigenvalues --   -0.32944  -0.29360  -0.26612
  Beta virt. eigenvalues --   -0.07045  -0.06048   0.03469   0.05704   0.08169
  Beta virt. eigenvalues --    0.08706   0.09587   0.10207   0.12966   0.13733
  Beta virt. eigenvalues --    0.14320   0.17679   0.19552   0.22432   0.23381
  Beta virt. eigenvalues --    0.25151   0.27681   0.34005   0.34638   0.36492
  Beta virt. eigenvalues --    0.39306   0.40380   0.41727   0.45094   0.45928
  Beta virt. eigenvalues --    0.48433   0.50854   0.53463   0.54948   0.56091
  Beta virt. eigenvalues --    0.57303   0.58159   0.59720   0.60274   0.61274
  Beta virt. eigenvalues --    0.62007   0.63493   0.66473   0.74865   0.76726
  Beta virt. eigenvalues --    0.82382   0.83999   0.86189   0.88087   0.90128
  Beta virt. eigenvalues --    0.93974   0.96549   0.98192   1.01123   1.05801
  Beta virt. eigenvalues --    1.11246   1.17448   1.20656   1.23988   1.28513
  Beta virt. eigenvalues --    1.31217   1.35959   1.37611   1.40346   1.41906
  Beta virt. eigenvalues --    1.43401   1.44430   1.45195   1.45912   1.47928
  Beta virt. eigenvalues --    1.48310   1.51634   1.52591   1.54400   1.56140
  Beta virt. eigenvalues --    1.58824   1.61111   1.61896   1.64590   1.71035
  Beta virt. eigenvalues --    1.72765   1.74884   1.77673   1.80912   1.86074
  Beta virt. eigenvalues --    1.88274   1.90645   1.96910   1.98027   1.99297
  Beta virt. eigenvalues --    2.05840   2.07287   2.13091   2.19167   2.24607
  Beta virt. eigenvalues --    2.24849   2.31940   2.34725   2.38022   2.41744
  Beta virt. eigenvalues --    2.43284   2.44373   2.48441   2.49335   2.51709
  Beta virt. eigenvalues --    2.52651   2.53680   2.55534   2.58210   2.58943
  Beta virt. eigenvalues --    2.62569   2.66320   2.70215   2.82340   2.83007
  Beta virt. eigenvalues --    2.85387   2.89429   2.91363   2.95427   3.02150
  Beta virt. eigenvalues --    3.04505   3.10705   3.13009   3.15781   3.17793
  Beta virt. eigenvalues --    3.19546   3.23172   3.28292   3.37224   3.43395
  Beta virt. eigenvalues --    3.54422   3.74893   3.75779   3.78009   3.78499
  Beta virt. eigenvalues --    3.80547   3.81381   3.87846   4.00334   4.17787
  Beta virt. eigenvalues --    4.26174   4.82606   4.84712   4.92478   4.93864
  Beta virt. eigenvalues --    5.06090   5.24515   5.39219   5.48766   5.69023
  Beta virt. eigenvalues --   23.68573  23.75884  23.89907  23.92476  49.80062
  Beta virt. eigenvalues --   49.87777  49.88916
          Condensed to atoms (all electrons):
              1          2          3          4          5          6
     1  O    8.235588   0.189846  -0.040204   0.003085   0.003314   0.004223
     2  C    0.189846   5.264230   0.313962  -0.024147  -0.037915  -0.036908
     3  C   -0.040204   0.313962   4.919443   0.394422   0.391470   0.397675
     4  H    0.003085  -0.024147   0.394422   0.548220  -0.024334  -0.025379
     5  H    0.003314  -0.037915   0.391470  -0.024334   0.580478  -0.023638
     6  H    0.004223  -0.036908   0.397675  -0.025379  -0.023638   0.554367
     7  C   -0.074743   0.340246  -0.060753   0.008226  -0.003018  -0.004864
     8  H    0.004016  -0.056439  -0.000828  -0.000608   0.000799   0.002696
     9  C   -0.076392   0.277805  -0.056826  -0.009913   0.000566   0.012168
    10  H    0.004812  -0.025091  -0.003882   0.000471   0.000721  -0.000654
    11  H    0.007053  -0.029113  -0.008031   0.004617  -0.000822  -0.000403
    12  H   -0.007487  -0.031717   0.009829  -0.000343   0.000155  -0.000336
    13  O    0.002498  -0.059539   0.003285  -0.000219   0.000043  -0.000160
    14  O   -0.001118  -0.001115   0.003367  -0.000083  -0.000091   0.000213
    15  H    0.004880  -0.006543  -0.000250  -0.000013  -0.000004  -0.000063
    16  H    0.003645  -0.005517  -0.000674   0.000100  -0.000010  -0.000155
              7          8          9         10         11         12
     1  O   -0.074743   0.004016  -0.076392   0.004812   0.007053  -0.007487
     2  C    0.340246  -0.056439   0.277805  -0.025091  -0.029113  -0.031717
     3  C   -0.060753  -0.000828  -0.056826  -0.003882  -0.008031   0.009829
     4  H    0.008226  -0.000608  -0.009913   0.000471   0.004617  -0.000343
     5  H   -0.003018   0.000799   0.000566   0.000721  -0.000822   0.000155
     6  H   -0.004864   0.002696   0.012168  -0.000654  -0.000403  -0.000336
     7  C    5.032574   0.405766  -0.106503   0.003215   0.009648  -0.014966
     8  H    0.405766   0.538608   0.006368  -0.000361  -0.000485   0.000009
     9  C   -0.106503   0.006368   5.029851   0.376644   0.390448   0.396585
    10  H    0.003215  -0.000361   0.376644   0.589325  -0.022723  -0.027449
    11  H    0.009648  -0.000485   0.390448  -0.022723   0.560925  -0.027817
    12  H   -0.014966   0.000009   0.396585  -0.027449  -0.027817   0.583327
    13  O    0.354239  -0.031433   0.004230  -0.000518  -0.000110   0.006498
    14  O   -0.000488  -0.000572   0.001540   0.000292  -0.001175   0.016470
    15  H   -0.000232   0.000012   0.001025  -0.000061   0.000634   0.000716
    16  H   -0.052427   0.004094  -0.004773  -0.000234   0.000230   0.001476
             13         14         15         16
     1  O    0.002498  -0.001118   0.004880   0.003645
     2  C   -0.059539  -0.001115  -0.006543  -0.005517
     3  C    0.003285   0.003367  -0.000250  -0.000674
     4  H   -0.000219  -0.000083  -0.000013   0.000100
     5  H    0.000043  -0.000091  -0.000004  -0.000010
     6  H   -0.000160   0.000213  -0.000063  -0.000155
     7  C    0.354239  -0.000488  -0.000232  -0.052427
     8  H   -0.031433  -0.000572   0.000012   0.004094
     9  C    0.004230   0.001540   0.001025  -0.004773
    10  H   -0.000518   0.000292  -0.000061  -0.000234
    11  H   -0.000110  -0.001175   0.000634   0.000230
    12  H    0.006498   0.016470   0.000716   0.001476
    13  O    7.731224  -0.040333   0.002446   0.303079
    14  O   -0.040333   8.093153   0.264328   0.079413
    15  H    0.002446   0.264328   0.473291  -0.006047
    16  H    0.303079   0.079413  -0.006047   0.384266
 Mulliken atomic charges:
              1
     1  O   -0.263015
     2  C   -0.072045
     3  C   -0.262004
     4  H    0.125897
     5  H    0.112283
     6  H    0.121217
     7  C    0.164080
     8  H    0.128358
     9  C   -0.242823
    10  H    0.105494
    11  H    0.117124
    12  H    0.095051
    13  O   -0.275229
    14  O   -0.413801
    15  H    0.265881
    16  H    0.293533
 Sum of Mulliken charges=   0.00000
 Atomic charges with hydrogens summed into heavy atoms:
              1
     1  O   -0.263015
     2  C   -0.072045
     3  C    0.097393
     4  H    0.000000
     5  H    0.000000
     6  H    0.000000
     7  C    0.292438
     8  H    0.000000
     9  C    0.074846
    10  H    0.000000
    11  H    0.000000
    12  H    0.000000
    13  O    0.018304
    14  O   -0.147920
    15  H    0.000000
    16  H    0.000000
 Sum of Mulliken charges=   0.00000
          Atomic-Atomic Spin Densities.
              1          2          3          4          5          6
     1  O    0.471924  -0.040782   0.001666  -0.000072  -0.000197  -0.000488
     2  C   -0.040782   0.005587   0.007666  -0.000244  -0.006861  -0.001453
     3  C    0.001666   0.007666   0.017542   0.000407  -0.002350  -0.003068
     4  H   -0.000072  -0.000244   0.000407  -0.002094   0.000516   0.000503
     5  H   -0.000197  -0.006861  -0.002350   0.000516   0.011434   0.002299
     6  H   -0.000488  -0.001453  -0.003068   0.000503   0.002299   0.000534
     7  C   -0.040194   0.041368  -0.011458   0.000032  -0.001076   0.004734
     8  H   -0.000017   0.001005   0.000288  -0.000009  -0.000225  -0.000041
     9  C   -0.019479  -0.021137  -0.005762   0.001132   0.004296   0.001851
    10  H    0.000239   0.001387  -0.000082  -0.000004  -0.000301  -0.000062
    11  H    0.000851   0.001432   0.000367  -0.000376  -0.000335  -0.000142
    12  H   -0.002467   0.000437  -0.000327   0.000051   0.000173   0.000079
    13  O    0.004578  -0.003103   0.000243  -0.000003   0.000038  -0.000184
    14  O   -0.128118   0.015644  -0.000651   0.000190   0.000084   0.000367
    15  H    0.012893  -0.002279   0.000222  -0.000059  -0.000039  -0.000087
    16  H    0.011004  -0.001025   0.000340  -0.000046  -0.000103  -0.000205
              7          8          9         10         11         12
     1  O   -0.040194  -0.000017  -0.019479   0.000239   0.000851  -0.002467
     2  C    0.041368   0.001005  -0.021137   0.001387   0.001432   0.000437
     3  C   -0.011458   0.000288  -0.005762  -0.000082   0.000367  -0.000327
     4  H    0.000032  -0.000009   0.001132  -0.000004  -0.000376   0.000051
     5  H   -0.001076  -0.000225   0.004296  -0.000301  -0.000335   0.000173
     6  H    0.004734  -0.000041   0.001851  -0.000062  -0.000142   0.000079
     7  C    0.642436   0.002036  -0.023762   0.001916   0.000609  -0.001849
     8  H    0.002036  -0.034467  -0.000396  -0.000030   0.000022  -0.000005
     9  C   -0.023762  -0.000396   0.080094  -0.001431  -0.003162   0.003039
    10  H    0.001916  -0.000030  -0.001431  -0.002447   0.000615  -0.000011
    11  H    0.000609   0.000022  -0.003162   0.000615   0.003452  -0.000849
    12  H   -0.001849  -0.000005   0.003039  -0.000011  -0.000849  -0.001340
    13  O   -0.100108   0.000967   0.004299  -0.000319  -0.000102   0.000987
    14  O    0.015942  -0.000110   0.006689  -0.000129  -0.000405   0.001163
    15  H   -0.001602   0.000021  -0.001961   0.000084   0.000468  -0.000782
    16  H   -0.009210   0.000094  -0.004272   0.000158   0.000179  -0.001092
             13         14         15         16
     1  O    0.004578  -0.128118   0.012893   0.011004
     2  C   -0.003103   0.015644  -0.002279  -0.001025
     3  C    0.000243  -0.000651   0.000222   0.000340
     4  H   -0.000003   0.000190  -0.000059  -0.000046
     5  H    0.000038   0.000084  -0.000039  -0.000103
     6  H   -0.000184   0.000367  -0.000087  -0.000205
     7  C   -0.100108   0.015942  -0.001602  -0.009210
     8  H    0.000967  -0.000110   0.000021   0.000094
     9  C    0.004299   0.006689  -0.001961  -0.004272
    10  H   -0.000319  -0.000129   0.000084   0.000158
    11  H   -0.000102  -0.000405   0.000468   0.000179
    12  H    0.000987   0.001163  -0.000782  -0.001092
    13  O    0.173539  -0.002415  -0.000008   0.000090
    14  O   -0.002415   0.231136  -0.010502  -0.008478
    15  H   -0.000008  -0.010502   0.005475   0.003091
    16  H    0.000090  -0.008478   0.003091   0.011305
 Mulliken atomic spin densities:
              1
     1  O    0.271339
     2  C   -0.002358
     3  C    0.005043
     4  H   -0.000077
     5  H    0.007351
     6  H    0.004637
     7  C    0.519813
     8  H   -0.030869
     9  C    0.020038
    10  H   -0.000416
    11  H    0.002623
    12  H   -0.002794
    13  O    0.078498
    14  O    0.120407
    15  H    0.004935
    16  H    0.001830
 Sum of Mulliken spin densities=   1.00000
 APT atomic charges:
              1
     1  O    0.274885
     2  C   -0.212576
     3  C    0.215167
     4  H    0.017779
     5  H    0.002774
     6  H   -0.013364
     7  C    0.126020
     8  H    0.087524
     9  C    0.115366
    10  H    0.003515
    11  H    0.017483
    12  H   -0.026674
    13  O   -0.184277
    14  O   -0.488510
    15  H    0.284154
    16  H   -0.219267
 Sum of APT charges=   0.00000
 APT Atomic charges with hydrogens summed into heavy atoms:
              1
     1  O    0.274885
     2  C   -0.212576
     3  C    0.222356
     4  H    0.000000
     5  H    0.000000
     6  H    0.000000
     7  C    0.213544
     8  H    0.000000
     9  C    0.109691
    10  H    0.000000
    11  H    0.000000
    12  H    0.000000
    13  O   -0.403544
    14  O   -0.204357
    15  H    0.000000
    16  H    0.000000
 Sum of APT charges=   0.00000
 Electronic spatial extent (au):  <R**2>=  1001.8288
 Charge=     0.0000 electrons
 Dipole moment (field-independent basis, Debye):
    X=     0.7955    Y=     1.9299    Z=     1.9374  Tot=     2.8479
 Quadrupole moment (field-independent basis, Debye-Ang):
   XX=   -38.9803   YY=   -42.0295   ZZ=   -47.9037
   XY=    -4.1946   XZ=    -1.6753   YZ=     0.5968
 Traceless Quadrupole moment (field-independent basis, Debye-Ang):
   XX=     3.9908   YY=     0.9417   ZZ=    -4.9325
   XY=    -4.1946   XZ=    -1.6753   YZ=     0.5968
 Octapole moment (field-independent basis, Debye-Ang**2):
  XXX=    29.8201  YYY=  -114.6388  ZZZ=    87.9713  XYY=     5.2121
  XXY=   -37.7957  XXZ=    19.0101  XZZ=    11.9093  YZZ=   -44.5313
  YYZ=    30.0175  XYZ=     3.0687
 Hexadecapole moment (field-independent basis, Debye-Ang**3):
 XXXX=  -262.6003 YYYY=  -472.5199 ZZZZ=  -542.2447 XXXY=    40.4564
 XXXZ=    16.3557 YYYX=    33.6139 YYYZ=    61.2167 ZZZX=    14.1081
 ZZZY=    67.7447 XXYY=  -115.2661 XXZZ=  -123.1901 YYZZ=  -186.7413
 XXYZ=    13.0017 YYXZ=    12.1737 ZZXY=    15.8786
 N-N= 3.366696291592D+02 E-N=-1.573118605152D+03  KE= 3.821705369988D+02
  Exact polarizability:  68.536 -26.293 106.665  -3.359  -9.979  70.303
 Approx polarizability: 105.529 -62.800 239.405  -9.151 -22.527 104.252
                          Isotropic Fermi Contact Couplings
        Atom                 a.u.       MegaHertz       Gauss      10(-4) cm-1
     1  O(17)              0.21237    -128.73484     -45.93579     -42.94132
     2  C(13)             -0.02179     -24.49387      -8.74002      -8.17028
     3  C(13)              0.02398      26.95635       9.61870       8.99167
     4  H(1)              -0.00001      -0.03320      -0.01184      -0.01107
     5  H(1)               0.00356      15.92865       5.68374       5.31323
     6  H(1)               0.00010       0.46076       0.16441       0.15369
     7  C(13)              0.04640      52.15862      18.61149      17.39824
     8  H(1)              -0.00886     -39.62347     -14.13864     -13.21697
     9  C(13)              0.02170      24.39112       8.70336       8.13600
    10  H(1)               0.00008       0.34603       0.12347       0.11542
    11  H(1)               0.00134       5.99261       2.13831       1.99892
    12  H(1)              -0.00047      -2.09925      -0.74906      -0.70023
    13  O(17)              0.01477      -8.95136      -3.19407      -2.98585
    14  O(17)              0.18010    -109.17591     -38.95668     -36.41716
    15  H(1)              -0.00166      -7.40054      -2.64070      -2.46855
    16  H(1)               0.00146       6.53912       2.33332       2.18121
 --------------------------------------------------------
       Center         ----  Spin Dipole Couplings  ----
                      3XX-RR        3YY-RR        3ZZ-RR
 --------------------------------------------------------
     1   Atom       -0.457219     -0.519404      0.976623
     2   Atom       -0.011303      0.021342     -0.010038
     3   Atom       -0.010387     -0.004315      0.014702
     4   Atom       -0.004960     -0.003075      0.008035
     5   Atom       -0.003829     -0.001093      0.004923
     6   Atom        0.004475     -0.005119      0.000645
     7   Atom        0.019927      0.250182     -0.270110
     8   Atom        0.016304      0.022932     -0.039236
     9   Atom        0.027830     -0.016577     -0.011253
    10   Atom       -0.000693      0.000386      0.000306
    11   Atom        0.000305     -0.002938      0.002632
    12   Atom        0.006775     -0.003877     -0.002898
    13   Atom        0.184632      0.057732     -0.242364
    14   Atom        0.046844     -0.183082      0.136238
    15   Atom        0.017261     -0.013454     -0.003808
    16   Atom       -0.000986      0.011457     -0.010471
 --------------------------------------------------------
                        XY            XZ            YZ
 --------------------------------------------------------
     1   Atom        0.458990     -0.796469     -0.563082
     2   Atom       -0.012649      0.002458      0.001975
     3   Atom       -0.005022     -0.011412      0.010612
     4   Atom       -0.000579     -0.002429     -0.000646
     5   Atom       -0.000764     -0.003239      0.002940
     6   Atom       -0.000437     -0.006506     -0.000822
     7   Atom        0.439390      0.145525      0.178187
     8   Atom       -0.025300      0.008354      0.006524
     9   Atom        0.001187      0.021173      0.002319
    10   Atom        0.003809      0.005881      0.003829
    11   Atom        0.000937      0.005169     -0.000910
    12   Atom        0.001568      0.002953      0.000607
    13   Atom        0.377748      0.128646      0.095917
    14   Atom       -0.231852     -0.373677      0.299123
    15   Atom       -0.020003      0.007383     -0.002322
    16   Atom       -0.017183     -0.005388     -0.004172
 --------------------------------------------------------


 ---------------------------------------------------------------------------------
              Anisotropic Spin Dipole Couplings in Principal Axis System
 ---------------------------------------------------------------------------------

       Atom             a.u.   MegaHertz   Gauss  10(-4) cm-1        Axes

              Baa    -0.9668    69.960    24.964    23.336  0.7725 -0.6201  0.1369
     1 O(17)  Bbb    -0.6016    43.533    15.534    14.521  0.4861  0.7161  0.5008
              Bcc     1.5685  -113.493   -40.497   -37.857 -0.4086 -0.3203  0.8547
 
              Baa    -0.0169    -2.270    -0.810    -0.757  0.8650  0.3065 -0.3972
     2 C(13)  Bbb    -0.0088    -1.179    -0.421    -0.393  0.3852  0.1016  0.9172
              Bcc     0.0257     3.449     1.231     1.150 -0.3215  0.9464  0.0302
 
              Baa    -0.0149    -2.001    -0.714    -0.668  0.9400  0.1291  0.3160
     3 C(13)  Bbb    -0.0091    -1.215    -0.434    -0.405  0.0101  0.9148 -0.4038
              Bcc     0.0240     3.216     1.148     1.073 -0.3412  0.3827  0.8586
 
              Baa    -0.0056    -2.981    -1.064    -0.994  0.9471  0.2648  0.1814
     4 H(1)   Bbb    -0.0029    -1.553    -0.554    -0.518 -0.2688  0.9632 -0.0028
              Bcc     0.0085     4.534     1.618     1.512 -0.1755 -0.0461  0.9834
 
              Baa    -0.0049    -2.620    -0.935    -0.874  0.9418 -0.0655  0.3298
     5 H(1)   Bbb    -0.0022    -1.174    -0.419    -0.392  0.1728  0.9357 -0.3076
              Bcc     0.0071     3.794     1.354     1.266 -0.2885  0.3467  0.8925
 
              Baa    -0.0057    -3.039    -1.084    -1.014  0.3109  0.8481  0.4290
     6 H(1)   Bbb    -0.0036    -1.946    -0.695    -0.649  0.5127 -0.5297  0.6757
              Bcc     0.0093     4.985     1.779     1.663  0.8003  0.0099 -0.5995
 
              Baa    -0.3310   -44.415   -15.848   -14.815 -0.4970  0.1119  0.8605
     7 C(13)  Bbb    -0.3160   -42.400   -15.129   -14.143  0.6327 -0.6319  0.4476
              Bcc     0.6470    86.815    30.978    28.958  0.5939  0.7669  0.2433
 
              Baa    -0.0423   -22.578    -8.056    -7.531 -0.2141 -0.1790  0.9603
     8 H(1)   Bbb    -0.0028    -1.506    -0.538    -0.502  0.7194  0.6360  0.2790
              Bcc     0.0451    24.084     8.594     8.034 -0.6607  0.7506 -0.0074
 
              Baa    -0.0211    -2.835    -1.012    -0.946 -0.3655 -0.3449  0.8645
     9 C(13)  Bbb    -0.0160    -2.153    -0.768    -0.718 -0.1711  0.9379  0.3019
              Bcc     0.0372     4.989     1.780     1.664  0.9150  0.0375  0.4018
 
              Baa    -0.0061    -3.258    -1.163    -1.087  0.7516 -0.0531 -0.6575
    10 H(1)   Bbb    -0.0030    -1.579    -0.563    -0.527 -0.3143  0.8475 -0.4277
              Bcc     0.0091     4.837     1.726     1.613  0.5799  0.5281  0.6203
 
              Baa    -0.0048    -2.539    -0.906    -0.847  0.6314 -0.5814 -0.5132
    11 H(1)   Bbb    -0.0020    -1.073    -0.383    -0.358  0.4612  0.8135 -0.3541
              Bcc     0.0068     3.611     1.289     1.205  0.6234 -0.0131  0.7818
 
              Baa    -0.0042    -2.226    -0.794    -0.743 -0.0368  0.9326 -0.3590
    12 H(1)   Bbb    -0.0037    -1.959    -0.699    -0.653 -0.3024  0.3320  0.8935
              Bcc     0.0078     4.185     1.493     1.396  0.9525  0.1414  0.2698
 
              Baa    -0.2803    20.284     7.238     6.766 -0.4348  0.2395  0.8681
    13 O(17)  Bbb    -0.2568    18.582     6.631     6.198 -0.4994  0.7381 -0.4537
              Bcc     0.5371   -38.867   -13.869   -12.965  0.7494  0.6308  0.2013
 
              Baa    -0.3628    26.255     9.368     8.758  0.0530  0.8735 -0.4838
    14 O(17)  Bbb    -0.2782    20.131     7.183     6.715  0.8021  0.2514  0.5418
              Bcc     0.6411   -46.386   -16.552   -15.473 -0.5949  0.4168  0.6873
 
              Baa    -0.0234   -12.480    -4.453    -4.163  0.4499  0.8908 -0.0640
    15 H(1)   Bbb    -0.0055    -2.946    -1.051    -0.983 -0.1757  0.1586  0.9716
              Bcc     0.0289    15.426     5.504     5.146  0.8756 -0.4259  0.2278
 
              Baa    -0.0187    -9.969    -3.557    -3.325  0.6274  0.4461  0.6383
    16 H(1)   Bbb    -0.0048    -2.577    -0.920    -0.860 -0.5276 -0.3594  0.7697
              Bcc     0.0235    12.546     4.477     4.185 -0.5727  0.8197 -0.0098
 

 ---------------------------------------------------------------------------------

 Use density number 0.
 Entering OneElI...
 Calculate overlap and kinetic energy integrals
    NBasis = 187  MinDer = 2  MaxDer = 2
 Requested accuracy = 0.1000D-12
 PrsmSu:  NPrtUS=   1 ThrOK=F
 PRISM was handed   130758718 working-precision words and  2555 shell-pairs
 Entering OneElI...
 Calculate potential energy integrals
    NBasis = 187  MinDer = 2  MaxDer = 2
 Requested accuracy = 0.1000D-12
 PrsmSu:  NPrtUS=   8 ThrOK=T
 PRISM was handed    16300353 working-precision words and  2414 shell-pairs
 PRISM was handed    16300353 working-precision words and  2414 shell-pairs
 PRISM was handed    16300353 working-precision words and  2414 shell-pairs
 PRISM was handed    16300353 working-precision words and  2414 shell-pairs
 PRISM was handed    16300353 working-precision words and  2414 shell-pairs
 PRISM was handed    16300353 working-precision words and  2414 shell-pairs
 PRISM was handed    16300353 working-precision words and  2414 shell-pairs
 PRISM was handed    16300353 working-precision words and  2414 shell-pairs
 Polarizability after L701:
                1             2             3
      1  0.685361D+02
      2 -0.262929D+02  0.106665D+03
      3 -0.335853D+01 -0.997907D+01  0.703028D+02
 Dipole Derivatives after L701:
               1            2            3            4            5
      1 0.674355D+00-0.589201D+00-0.995369D+00 0.419700D+00 0.563757D+00
      2-0.238699D+01 0.903358D+00 0.231465D+01-0.136418D+00-0.112866D+01
      3 0.325882D+00-0.360942D+00-0.753059D+00 0.251743D+00 0.627004D+00
               6            7            8            9           10
      1-0.171314D+00 0.107921D-01-0.138952D+00 0.457674D-01 0.374733D-01
      2 0.789638D+00 0.656690D-01 0.591220D+00-0.400857D-01 0.878041D-01
      3 0.712332D-01-0.419690D-01-0.256319D+00 0.434902D-01-0.587787D-01
              11           12           13           14           15
      1 0.183331D-01 0.311710D-01 0.877663D-01-0.858773D-02-0.212812D-01
      2 0.309215D-02-0.510091D-01-0.138721D+00-0.348925D-01 0.104004D+00
      3 0.107812D+00 0.127724D-01 0.793013D-01-0.111814D+00-0.445525D-01
              16           17           18           19           20
      1-0.930190D-01-0.250764D-01-0.829575D-01-0.439855D+00-0.577495D-01
      2-0.329390D-01 0.197472D-01-0.984494D-02 0.177263D+01-0.277985D+00
      3-0.258437D-01 0.940561D-03 0.331787D-01-0.841586D+00-0.251177D-01
              21           22           23           24           25
      1 0.432279D+00 0.786675D-01 0.103141D+00 0.658485D-01-0.155892D+00
      2-0.182915D+01-0.190526D-01 0.100339D+00-0.137110D+00-0.307017D-01
      3 0.109590D+01 0.321941D-01-0.818421D-02 0.835664D-01-0.616096D-01
              26           27           28           29           30
      1-0.132398D+00 0.549344D-01 0.288155D-01-0.486567D-01-0.494102D-01
      2 0.469023D+00-0.248167D+00 0.110724D+00-0.426347D-01 0.237835D-01
      3-0.107185D+00 0.329689D-01-0.343171D-01-0.992437D-01 0.243643D-01
              31           32           33           34           35
      1 0.937770D-01 0.391877D-01-0.268999D-01-0.356097D-01 0.659856D-01
      2-0.158386D+00-0.181370D-01-0.701503D-03 0.272670D-03-0.534394D-02
      3-0.313226D-02 0.106398D+00-0.231906D-01 0.618011D-01-0.136162D-02
              36           37           38           39           40
      1 0.107782D+00 0.329765D+00-0.220055D+00-0.483312D+00-0.122492D+01
      2 0.177711D-02-0.212836D+01 0.432746D+00 0.187065D+01 0.233425D+01
      3-0.390671D-01 0.949550D+00-0.146055D+00-0.131534D+01-0.370227D+00
              41           42           43           44           45
      1 0.472784D-01 0.117048D+01 0.203207D+00-0.534238D-01 0.583722D-01
      2-0.601418D+00-0.296570D+01-0.454239D-01 0.453622D+00-0.199491D+00
      3-0.424541D-01 0.360810D+00-0.614265D-01 0.517003D-01 0.195632D+00
              46           47           48
      1-0.150186D-01 0.436417D+00-0.136085D+00
      2 0.705637D+00-0.864076D+00 0.376765D+00
      3-0.201582D+00 0.264822D+00 0.221295D+00
 Hessian after L701:
                1             2             3             4             5
      1  0.884916D+01
      2  0.101624D+00  0.769549D+00
      3  0.204384D+01 -0.231741D+01  0.624809D+01
      4 -0.783567D+01  0.371297D-01 -0.213802D+00  0.191970D+02
      5 -0.694063D-01  0.916696D+00  0.250257D+01  0.134700D+00  0.155545D+02
      6 -0.213614D+00  0.244272D+01 -0.733596D+01 -0.163127D+00 -0.201278D+00
      7 -0.349708D-01 -0.191334D+00 -0.195945D+00 -0.342963D+01 -0.409343D+00
      8 -0.238919D+00 -0.105475D+00  0.300990D+00 -0.444440D+00 -0.598303D+01
      9 -0.197791D+00  0.238728D+00  0.162919D+00 -0.274252D+01  0.483974D+00
     10 -0.390859D-01 -0.361777D-01 -0.397188D-01  0.331503D-01 -0.353793D-01
     11 -0.208929D-01 -0.389231D-01  0.218114D-01  0.563830D-02  0.427239D-01
     12 -0.939790D-01  0.102741D+00  0.636135D-01 -0.262429D-01  0.135131D-01
     13 -0.398044D-01 -0.401564D-01 -0.201730D-01  0.764654D-01  0.679524D-01
     14 -0.413437D-01  0.104309D+00  0.928686D-01  0.185877D-01  0.527213D-01
     15 -0.196532D-01  0.928571D-01  0.731054D-02  0.171283D-01 -0.835768D-01
     16  0.193397D-01 -0.999811D-01 -0.940655D-01  0.426994D-01 -0.542522D-01
     17 -0.471550D-01 -0.106281D-01  0.541774D-01 -0.228798D-01  0.795770D-01
     18 -0.283624D-01  0.470782D-01 -0.320533D-01  0.755191D-01  0.267604D-01
     19  0.937236D-02  0.258480D+00 -0.138465D+00 -0.664431D+01 -0.119621D+01
     20  0.129803D+00  0.286186D+00 -0.302879D+00 -0.117381D+01 -0.542035D+01
     21 -0.137658D+00 -0.251896D+00  0.391685D+00  0.123669D+01 -0.337699D+01
     22 -0.256118D-01 -0.100451D+00  0.255047D-01  0.654398D-01  0.201487D+00
     23 -0.734812D-01  0.149461D+00 -0.483374D-01  0.207602D+00 -0.362218D-01
     24  0.149891D-02 -0.286126D-01 -0.408413D-01 -0.176020D+00  0.201680D+00
     25  0.461605D+00  0.112710D+00  0.173281D+00 -0.126276D+01  0.148493D+01
     26  0.272842D+00 -0.317851D+00 -0.412422D-01  0.151116D+01 -0.542589D+01
     27  0.170430D+00 -0.142695D+00  0.174793D+00  0.180697D+01  0.565737D+00
     28 -0.269719D-01  0.694675D-01  0.203904D-01  0.609336D-01 -0.802349D-01
     29  0.779274D-01  0.146666D+00  0.703366D-01 -0.149332D-01 -0.508746D-02
     30  0.313558D-01  0.752384D-01 -0.258840D-01 -0.101354D-01 -0.462777D-01
     31 -0.199105D-01  0.876604D-01  0.897309D-01  0.389593D-01  0.448653D-01
     32  0.422765D-01 -0.277562D-01  0.448042D-01 -0.113343D-01  0.635736D-01
     33  0.103082D+00  0.109434D+00  0.388828D-01 -0.146157D-02  0.221614D-01
     34  0.519094D-01  0.188389D-01  0.116282D-01  0.255161D-01  0.448969D-01
     35 -0.412982D-04 -0.334101D-01  0.105827D-01  0.524230D-02  0.686147D-01
     36 -0.261197D-01 -0.208564D-01 -0.165774D-01 -0.379677D-02 -0.545456D-03
     37 -0.502775D+00  0.121366D+00  0.505728D-01 -0.122984D+00  0.444377D-01
     38  0.126846D+00  0.227564D+00 -0.709306D+00  0.524194D-01  0.233490D+00
     39  0.204887D-01 -0.723628D+00  0.140686D+00  0.270848D+00 -0.310600D+00
     40 -0.103129D+01 -0.311219D+00 -0.155690D+01 -0.200442D+00 -0.181697D+00
     41 -0.155623D+00 -0.200061D+01  0.310417D+00 -0.283634D+00 -0.123942D+00
     42 -0.166655D+01  0.507288D+00  0.298221D+00 -0.238410D+00  0.231626D+00
     43  0.144222D+00 -0.774067D-01 -0.159205D-01  0.191120D-01 -0.281882D-01
     44 -0.610525D-01 -0.586289D-01 -0.105437D-01 -0.865902D-02  0.193796D-01
     45  0.655720D-01 -0.211959D-01 -0.125639D+00  0.285683D-01 -0.269763D-01
     46  0.204837D-01  0.494498D-01 -0.139953D+00 -0.634439D-01  0.314408D-01
     47 -0.434040D-01 -0.714524D-02  0.211575D-01 -0.127899D-01 -0.367858D-01
     48 -0.525405D-01 -0.109786D+00  0.507518D-01  0.139796D+00 -0.178195D-02
                6             7             8             9            10
      6  0.173533D+02
      7 -0.271282D+01  0.136713D+02
      8  0.509130D+00  0.539198D+00  0.155570D+02
      9 -0.307944D+01  0.224332D+01 -0.561170D+00  0.131598D+02
     10  0.398417D-01 -0.423037D+01 -0.294634D+00  0.346294D+00  0.421957D+01
     11 -0.398371D-01 -0.396529D+00 -0.318072D+01 -0.128599D+01  0.306213D+00
     12  0.837617D-01  0.523464D+00 -0.146571D+01 -0.270506D+01 -0.266572D+00
     13  0.380115D-01 -0.424340D+01 -0.137741D+00 -0.440481D-01  0.677747D-01
     14 -0.356190D-01  0.776754D-03 -0.185790D+01  0.931277D+00  0.468298D-02
     15  0.304111D-01  0.102428D-01  0.107944D+01 -0.381888D+01 -0.205512D-02
     16 -0.111122D-01 -0.188577D+01  0.635880D+00  0.101160D+01  0.151194D-01
     17  0.143019D-01  0.542807D+00 -0.422118D+01  0.210470D+00  0.437350D-01
     18  0.954952D-01  0.749910D+00  0.181101D+00 -0.407448D+01 -0.617900D-01
     19  0.130883D+01  0.452566D-01  0.726709D-01 -0.107390D+00 -0.544940D-01
     20 -0.349820D+01  0.593146D-01  0.824693D-01 -0.421896D-01  0.173716D-01
     21 -0.231309D+01  0.153239D-01 -0.885307D-01 -0.649673D-01 -0.256841D-01
     22 -0.167435D+00 -0.272409D-01 -0.285133D-01  0.401894D-01  0.135437D-02
     23  0.204334D+00 -0.183188D-01  0.129511D-02 -0.685798D-01 -0.254619D-02
     24  0.832589D-01  0.119262D-01 -0.379043D-01  0.337109D-01  0.981645D-03
     25  0.174013D+01  0.637640D-01 -0.159679D-01 -0.158938D-01 -0.340954D-01
     26  0.551228D+00 -0.549584D-01 -0.222044D-01  0.257373D-02 -0.113302D-01
     27 -0.523084D+01 -0.150977D+00 -0.190125D-01  0.576285D-02  0.268410D-01
     28 -0.320100D-01  0.521131D-02  0.183826D-01  0.491362D-02  0.335102D-02
     29 -0.296400D-01  0.412949D-01  0.832138D-02  0.709077D-02  0.940829D-02
     30  0.217376D-01  0.391952D-02  0.345835D-02 -0.198768D-01 -0.331183D-02
     31 -0.523245D-01 -0.132320D-01 -0.664444D-02  0.352756D-02  0.399874D-01
     32 -0.187448D-01 -0.281690D-01 -0.957990D-03 -0.842517D-02  0.165102D-02
     33  0.463591D-01  0.114751D-01 -0.469316D-02  0.273959D-02 -0.444331D-02
     34  0.105610D+00  0.183150D+00  0.210244D-03 -0.121093D+00 -0.855480D-03
     35  0.205090D-01  0.788643D-02 -0.590296D-01 -0.592419D-02  0.115379D-03
     36  0.760863D-01 -0.110821D+00 -0.231233D-02 -0.920896D-02 -0.948230D-03
     37  0.240231D+00 -0.887490D-01  0.617133D-01 -0.196979D+00 -0.815917D-02
     38 -0.300315D+00  0.353087D-01 -0.170571D+00 -0.870343D-01 -0.176772D-02
     39  0.351699D+00 -0.190740D+00 -0.963568D-01  0.292416D+00  0.116450D-02
     40 -0.202272D+00 -0.242296D-01 -0.136156D+00 -0.188358D+00 -0.119009D-01
     41  0.322351D+00 -0.115231D+00 -0.470979D-01  0.163266D+00 -0.202280D-02
     42 -0.666709D-01 -0.195158D+00  0.207953D+00  0.112319D+00 -0.837686D-02
     43  0.407089D-02  0.912274D-02 -0.168099D-01 -0.124708D-01 -0.466666D-05
     44 -0.100110D-01 -0.851982D-02 -0.290417D-02  0.468978D-02 -0.527534D-03
     45 -0.205955D-01 -0.467476D-03 -0.459426D-03 -0.752789D-02 -0.418446D-03
     46  0.779851D-01 -0.222726D-03 -0.822802D-02 -0.233107D-01 -0.134250D-02
     47  0.690721D-01 -0.418298D-02  0.200882D-02  0.172415D-01  0.120881D-02
     48 -0.955597D-01 -0.126596D-01 -0.592323D-02  0.973178D-02 -0.180408D-02
               11            12            13            14            15
     11  0.322244D+01
     12  0.140180D+01  0.225099D+01
     13  0.339925D-01 -0.625497D-02  0.410447D+01
     14 -0.791674D-01  0.301735D-01  0.208885D+00  0.182593D+01
     15  0.520631D-01  0.779690D-01  0.132501D+00 -0.114764D+01  0.357572D+01
     16  0.109514D-01 -0.578739D-01  0.259583D-01 -0.719325D-01 -0.513856D-01
     17  0.638191D-01  0.307492D-01 -0.934781D-01 -0.138005D-01 -0.689491D-01
     18  0.639673D-03  0.146039D-01 -0.431377D-01 -0.417028D-01  0.392595D-01
     19  0.180886D-01 -0.233885D-01 -0.245211D-01 -0.183208D-01 -0.348063D-02
     20 -0.103054D-01 -0.100814D+00 -0.795462D-02  0.367797D-02  0.506486D-01
     21 -0.986110D-01  0.164327D+00  0.113595D-01  0.683659D-01  0.432693D-01
     22 -0.616367D-02  0.736522D-02 -0.789867D-02  0.778292D-02  0.122964D-01
     23  0.506741D-02 -0.680038D-02 -0.379661D-03 -0.155363D-01 -0.132059D-01
     24 -0.579907D-03 -0.164546D-02  0.395249D-03  0.486259D-02  0.182977D-01
     25  0.530479D-02  0.276828D-01  0.312445D-01 -0.537700D-01 -0.362495D-01
     26  0.941939D-02  0.461843D-02 -0.273037D-01 -0.125184D-01  0.160048D-01
     27 -0.133232D-01 -0.613948D-03 -0.338273D-01  0.337425D-01 -0.172691D-01
     28  0.114221D-01 -0.808271D-02  0.170873D-01 -0.648663D-02 -0.108270D-01
     29  0.135866D-01 -0.151645D-01  0.120061D-01 -0.183126D-01 -0.721279D-02
     30 -0.223995D-02 -0.379990D-02 -0.354086D-02 -0.108289D-02 -0.855384D-02
     31  0.154224D-01 -0.284103D-01 -0.528960D-03 -0.705496D-02 -0.121692D-02
     32 -0.236674D-01  0.376230D-02 -0.394644D-02  0.780740D-02  0.288385D-02
     33  0.383485D-02 -0.243389D-01  0.327816D-02 -0.806398D-02 -0.394237D-02
     34  0.583437D-02 -0.831796D-02  0.753572D-02 -0.110231D-01 -0.935999D-02
     35 -0.888230D-03 -0.822109D-03 -0.250255D-02 -0.270152D-03  0.225892D-02
     36 -0.530995D-02  0.617186D-02 -0.633205D-02  0.804904D-02  0.322218D-02
     37  0.482597D-02 -0.144576D-01 -0.163883D-01 -0.791772D-02 -0.139950D-01
     38 -0.104846D-03 -0.154960D-01  0.186662D-02 -0.175609D-01 -0.873045D-03
     39 -0.260511D-01  0.377774D-01 -0.128630D-01  0.352677D-01  0.368145D-01
     40 -0.205829D-03 -0.111524D-01 -0.148710D-02 -0.994353D-02 -0.134054D-01
     41 -0.161730D-01  0.109069D-01 -0.558757D-02  0.106078D-01  0.141374D-01
     42 -0.839149D-02  0.342115D-01 -0.150458D-01  0.300796D-01  0.174207D-01
     43  0.307474D-02 -0.909278D-02  0.122242D-02 -0.725656D-02 -0.367640D-02
     44 -0.206602D-02  0.317988D-02 -0.822807D-03  0.248973D-02  0.146853D-02
     45  0.154529D-02 -0.313277D-02 -0.257797D-03 -0.211493D-02 -0.138630D-02
     46  0.302418D-02 -0.468688D-02  0.227320D-02 -0.566563D-02 -0.686420D-02
     47 -0.504640D-02  0.336384D-02 -0.482916D-02  0.751664D-02  0.969736D-02
     48 -0.135802D-02  0.516206D-02 -0.650970D-04  0.153509D-02  0.328752D-03
               16            17            18            19            20
     16  0.150090D+01
     17 -0.471302D+00  0.420358D+01
     18 -0.671194D+00 -0.204079D+00  0.402681D+01
     19 -0.188930D-01 -0.292056D-03  0.272640D-01  0.170281D+02
     20 -0.189232D-01 -0.241083D-01  0.150811D-01  0.356777D+01  0.187974D+02
     21 -0.107689D-01 -0.563675D-02 -0.190455D-02  0.478403D+01  0.302377D+01
     22 -0.186088D-01  0.838151D-03 -0.515662D-02 -0.279592D+01 -0.165848D+01
     23  0.251107D-01  0.842064D-02 -0.203402D-01 -0.168463D+01 -0.321258D+01
     24 -0.168140D-01 -0.196983D-01  0.717946D-02  0.886950D-02  0.463267D-01
     25  0.246545D+00  0.429482D-01 -0.182697D-01  0.188096D+00  0.262187D+00
     26  0.528423D-01 -0.588768D-01 -0.578200D-02  0.119069D+00  0.203589D+00
     27 -0.102179D-01 -0.342955D-02 -0.706875D-01 -0.653852D-01  0.262081D+00
     28 -0.480950D-04  0.118628D-03  0.150032D-02 -0.162391D-02  0.164192D-01
     29  0.923785D-02  0.241616D-02  0.322435D-02  0.329891D-01 -0.218215D-01
     30  0.284354D-02  0.957507D-03  0.334416D-03  0.562793D-01  0.227145D-01
     31  0.697974D-02  0.449956D-03  0.293833D-02  0.413547D-01 -0.650675D-01
     32 -0.645759D-02 -0.196852D-02 -0.218396D-02 -0.572279D-01 -0.234902D-01
     33  0.960985D-02  0.685187D-03  0.170847D-02  0.126801D+00 -0.793508D-01
     34  0.127417D-02  0.106372D-02  0.513122D-02 -0.579963D-01  0.205989D-01
     35 -0.121623D-02  0.203194D-04  0.332117D-03  0.394219D-02  0.263787D-01
     36 -0.555210D-02 -0.104137D-02 -0.120707D-02 -0.410140D-01  0.555775D-02
     37  0.238891D-01  0.106437D-01 -0.181325D-01 -0.756793D+01 -0.845578D+00
     38  0.227643D-01 -0.120741D-01 -0.767184D-02 -0.698636D+00 -0.112840D+02
     39 -0.559674D-01 -0.138103D-01  0.954672D-03 -0.615871D+01  0.633712D+00
     40  0.259060D-01 -0.888322D-02 -0.171118D-01 -0.167008D+00 -0.357077D+00
     41 -0.217059D-01 -0.111778D-01  0.749270D-02 -0.460104D+00  0.374980D+00
     42 -0.408768D-01  0.523978D-02 -0.490608D-02  0.132025D+00  0.205991D-01
     43  0.892552D-02 -0.403203D-03  0.914815D-03 -0.372717D-02 -0.246758D-01
     44 -0.316660D-02 -0.616958D-03 -0.299622D-03 -0.161114D-01  0.192610D-01
     45  0.326625D-02  0.554891D-04 -0.473221D-04  0.170778D-01 -0.747059D-02
     46  0.577511D-02  0.178912D-02 -0.236621D-04  0.242814D-01  0.780985D-01
     47 -0.784948D-02 -0.340759D-02  0.350021D-03  0.585236D-01  0.202714D+00
     48 -0.149565D-02  0.806125D-05 -0.106467D-02  0.766505D-01 -0.495925D-01
               21            22            23            24            25
     21  0.870965D+01
     22 -0.514734D-01  0.254815D+01
     23  0.994267D-01  0.182772D+01  0.290151D+01
     24 -0.476769D+01 -0.675651D-01 -0.905927D-01  0.485592D+01
     25 -0.108192D+00  0.800911D-01 -0.703013D-01  0.756202D-01  0.124490D+02
     26  0.160480D+00 -0.639687D-01 -0.161590D-01 -0.323036D-01 -0.116672D+01
     27  0.167063D+00  0.942176D-01 -0.505867D-01  0.242569D-02 -0.105059D+01
     28  0.585189D-01  0.506219D-02 -0.331899D-02  0.256484D-02 -0.429732D+01
     29  0.463395D-01  0.107040D-01 -0.854217D-02  0.287919D-02  0.178057D-01
     30  0.254612D-01  0.954831D-02 -0.461770D-02  0.869399D-03  0.405166D-02
     31  0.120484D+00 -0.109201D-03 -0.101764D-03 -0.382744D-02 -0.422121D+01
     32 -0.732897D-01 -0.405288D-02  0.351207D-02  0.180883D-03 -0.376471D+00
     33  0.967364D-01  0.446435D-02 -0.440763D-02 -0.198294D-02  0.512470D+00
     34 -0.290160D-01  0.164761D-01 -0.115286D-01  0.254546D-02 -0.310354D+01
     35 -0.242218D-02 -0.530262D-02  0.188826D-03 -0.107891D-02 -0.173033D+00
     36  0.180485D-01 -0.395630D-02  0.310308D-02 -0.261307D-02 -0.138683D+01
     37 -0.593137D+01  0.807467D-01 -0.944454D-01  0.182304D+00 -0.256104D+00
     38  0.349214D+00 -0.562836D-01  0.140150D+00 -0.767264D-01 -0.995996D-02
     39 -0.228221D+01  0.149702D+00 -0.393683D-01 -0.153549D+00  0.149788D+00
     40  0.854132D-01  0.627124D-02 -0.295026D-01  0.429839D-02 -0.328279D+00
     41  0.101236D+00 -0.393526D-01  0.347510D-01  0.246738D-02 -0.326817D-01
     42 -0.407905D+00 -0.147985D-01  0.110388D-01 -0.235281D-01 -0.468381D-01
     43 -0.105250D-01  0.886651D-02 -0.829830D-02  0.397952D-03 -0.112584D-01
     44  0.134612D-01 -0.444545D-02  0.399921D-02  0.129925D-03 -0.264343D-01
     45 -0.243444D-01  0.335570D-02 -0.469374D-02 -0.193617D-02 -0.422980D-02
     46 -0.713069D-02  0.629304D-01 -0.635785D-01 -0.271759D-01 -0.574707D-02
     47  0.350788D-01 -0.815214D-01  0.406806D-01  0.289705D-01 -0.553000D-03
     48  0.245864D+00 -0.362587D-01  0.336280D-01 -0.786722D-02 -0.159177D-01
               26            27            28            29            30
     26  0.156427D+02
     27 -0.672365D+00  0.142626D+02
     28  0.187304D+00  0.579494D-01  0.414288D+01
     29 -0.175372D+01  0.789417D+00 -0.303384D+00  0.167473D+01
     30  0.877422D+00 -0.401930D+01 -0.167121D+00 -0.953746D+00  0.387848D+01
     31 -0.522605D+00  0.638419D+00  0.691161D-01  0.302791D-01 -0.418028D-02
     32 -0.342098D+01 -0.123906D+01  0.160052D-01 -0.812573D-01  0.637028D-01
     33 -0.139395D+01 -0.268477D+01  0.346912D-02  0.370001D-01  0.711123D-01
     34 -0.295685D+00 -0.173285D+01  0.617862D-01  0.541334D-01  0.519640D-01
     35 -0.463249D+01  0.158388D+00  0.612986D-01  0.101860D-01 -0.977090D-01
     36  0.231545D+00 -0.317417D+01  0.362930D-01 -0.620931D-01  0.110994D-01
     37 -0.522849D-02  0.222999D+00 -0.138186D-01  0.226595D-01  0.312693D-01
     38 -0.287664D+00 -0.146480D+00  0.390356D-02 -0.197583D-01  0.130675D-01
     39 -0.128048D+00  0.496217D+00  0.228002D-01  0.565842D-01  0.518163D-01
     40  0.586154D-01  0.803685D-01 -0.211807D-01  0.134521D-01  0.441569D-02
     41  0.530588D-01  0.384503D+00  0.643503D-02  0.371616D-01  0.364608D-01
     42  0.410705D+00  0.120608D+00  0.102776D-01  0.557637D-01  0.182530D-01
     43 -0.481383D-01 -0.376038D-01 -0.105417D-02 -0.840400D-02 -0.350182D-02
     44  0.373877D-01  0.621715D-01 -0.115143D-02  0.505798D-02  0.325675D-02
     45  0.303914D-01 -0.523677D-02 -0.639684D-04 -0.279069D-02 -0.227612D-02
     46 -0.590136D-02 -0.167303D-01 -0.341120D-02 -0.517644D-02 -0.385582D-02
     47  0.217886D-02  0.309159D-01  0.381916D-02  0.103786D-01  0.939397D-02
     48 -0.112812D-01 -0.265784D-01 -0.572639D-03  0.201163D-02  0.522783D-03
               31            32            33            34            35
     31  0.400865D+01
     32  0.453814D+00  0.347288D+01
     33 -0.849509D+00  0.123521D+01  0.239875D+01
     34  0.817711D-01 -0.148609D-01  0.436006D-01  0.275446D+01
     35 -0.284240D-01  0.719793D-01  0.674925D-01  0.813906D-01  0.462269D+01
     36  0.460446D-01  0.268586D-01 -0.627763D-01  0.138658D+01 -0.227265D+00
     37 -0.141777D-01 -0.100201D-01  0.185123D-01  0.436917D-01 -0.381397D-01
     38 -0.576868D-02 -0.391626D-02 -0.261607D-01 -0.655622D-01 -0.665140D-01
     39  0.285880D-01 -0.318311D-01  0.560436D-01  0.150435D+00 -0.441039D-01
     40 -0.923380D-02 -0.462320D-02  0.322074D-01 -0.383179D-01  0.919701D-01
     41  0.380218D-02 -0.264288D-01  0.221656D-01  0.141937D+00 -0.108129D-01
     42  0.682529D-02 -0.671220D-02  0.568768D-01  0.118811D+00  0.107711D+00
     43 -0.698622D-02  0.129619D-02 -0.121100D-01 -0.203398D-01 -0.812574D-02
     44  0.139649D-02 -0.276644D-02  0.123871D-01  0.122809D-01  0.194414D-01
     45 -0.644090D-03  0.455958D-02  0.501048D-03 -0.260308D-02  0.516249D-02
     46 -0.143343D-02  0.212029D-02 -0.144562D-02 -0.652238D-02  0.493922D-02
     47 -0.202362D-02 -0.656496D-02  0.625322D-02  0.174752D-01 -0.160829D-01
     48  0.355571D-02 -0.171008D-02  0.810384D-02  0.269334D-01  0.688905D-02
               36            37            38            39            40
     36  0.323378D+01
     37  0.628117D-01  0.134180D+02
     38 -0.406409D-01  0.348558D+01  0.131950D+02
     39 -0.110631D-01  0.563990D+01  0.901288D+00  0.771872D+01
     40  0.361912D-01 -0.163439D+00 -0.356460D-01 -0.133034D+00  0.589335D+01
     41  0.701885D-01 -0.118154D+00  0.199571D+00 -0.336610D-01  0.239634D+01
     42 -0.787608D-01 -0.127926D+00 -0.654188D-01 -0.203900D+00 -0.503570D-01
     43  0.204565D-02  0.286760D-01 -0.104050D+00  0.554561D-01 -0.307072D+01
     44  0.848041D-02 -0.648643D-01  0.492328D-01 -0.597891D-01 -0.124306D+01
     45 -0.727346D-02  0.352090D-01 -0.670001D-01  0.739625D-02  0.184411D+01
     46  0.154043D-01 -0.484053D+01 -0.275101D+01  0.621394D-01 -0.858000D+00
     47  0.628196D-02 -0.256688D+01 -0.218280D+01 -0.119604D+00 -0.242359D+00
     48  0.152468D-01 -0.180952D+00  0.279554D+00 -0.653982D+01  0.855822D-01
               41            42            43            44            45
     41  0.714790D+01
     42 -0.340242D+00  0.585428D+01
     43 -0.111667D+01  0.204039D+01  0.289276D+01
     44 -0.598782D+01 -0.768024D+00  0.138655D+01  0.594270D+01
     45 -0.635744D+00 -0.498638D+01 -0.197052D+01  0.694944D+00  0.517464D+01
     46 -0.197746D+00  0.960029D-01  0.118726D-02  0.385964D-01 -0.179570D-01
     47  0.366034D+00 -0.399216D+00  0.575121D-01 -0.441465D-01  0.317873D-01
     48 -0.435946D+00 -0.740132D+00 -0.278536D-01  0.444982D-01  0.324209D-02
               46            47            48
     46  0.566372D+01
     47  0.282785D+01  0.167047D+01
     48 -0.239761D-02  0.249255D+00  0.707207D+01
 ReadGW:  IGet=0 IStart=         114 Next=        7213 LGW=        7099.
 ICntrl=12127.
 Symmetry not used in FoFDir.
 MinBra= 0 MaxBra= 2 Meth= 1.
 IRaf=       0 NMat=   1 IRICut=       1 DoRegI=T DoRafI=F ISym2E= 0 JSym2E=0.
 PrsmSu:  NPrtUS=   8 ThrOK=T
 PRISM was handed    16286388 working-precision words and  2497 shell-pairs
 PRISM was handed    16286388 working-precision words and  2497 shell-pairs
 PRISM was handed    16286388 working-precision words and  2497 shell-pairs
 PRISM was handed    16286388 working-precision words and  2497 shell-pairs
 PRISM was handed    16286388 working-precision words and  2497 shell-pairs
 PRISM was handed    16286388 working-precision words and  2497 shell-pairs
 PRISM was handed    16286388 working-precision words and  2497 shell-pairs
 PRISM was handed    16286388 working-precision words and  2497 shell-pairs
 Pruned (  75, 302) grid will be used in CalDFT.
 CkSvGd:  ISavGI=        -1 IRadAn=       4 IRASav=       4 ISavGd=        -1.
 CalDSu:  NPrtUS=   8 ThrOK=T
 IPart= 0 IRanGd=          0 ScrnBf=T ScrnGd=T RCrit=4.00D+00 DoMicB=T.
 IPart= 1 IRanGd=          0 ScrnBf=T ScrnGd=T RCrit=4.00D+00 DoMicB=T.
 CutRad = 1000.00    CtRdIn =    0.00    XCrit =  15.00   ICut = 0
 IPart= 5 IRanGd=          0 ScrnBf=T ScrnGd=T RCrit=4.00D+00 DoMicB=T.
 CutRad = 1000.00    CtRdIn =    0.00    XCrit =  15.00   ICut = 0
 CutRad = 1000.00    CtRdIn =    0.00    XCrit =  15.00   ICut = 0
 IPart= 2 IRanGd=          0 ScrnBf=T ScrnGd=T RCrit=4.00D+00 DoMicB=T.
 CutRad = 1000.00    CtRdIn =    0.00    XCrit =  15.00   ICut = 0
 IPart= 6 IRanGd=          0 ScrnBf=T ScrnGd=T RCrit=4.00D+00 DoMicB=T.
 CutRad = 1000.00    CtRdIn =    0.00    XCrit =  15.00   ICut = 0
 IPart= 3 IRanGd=          0 ScrnBf=T ScrnGd=T RCrit=4.00D+00 DoMicB=T.
 CutRad = 1000.00    CtRdIn =    0.00    XCrit =  15.00   ICut = 0
 IPart= 7 IRanGd=          0 ScrnBf=T ScrnGd=T RCrit=4.00D+00 DoMicB=T.
 CutRad = 1000.00    CtRdIn =    0.00    XCrit =  15.00   ICut = 0
 IPart= 4 IRanGd=          0 ScrnBf=T ScrnGd=T RCrit=4.00D+00 DoMicB=T.
 CutRad = 1000.00    CtRdIn =    0.00    XCrit =  15.00   ICut = 0
 IPart= 0        14393 of        16242 points in      34 batches and      100 microbatches, Max-NSigAt=      16 Max-NSgAt2=      16
 IPart= 4        13883 of        15520 points in      30 batches and       83 microbatches, Max-NSigAt=      16 Max-NSgAt2=      16
 IPart= 3        14575 of        16168 points in      34 batches and      122 microbatches, Max-NSigAt=      16 Max-NSgAt2=      16
 IPart= 2        14211 of        16380 points in      34 batches and       88 microbatches, Max-NSigAt=      16 Max-NSgAt2=      16
 IPart= 7        13672 of        16220 points in      34 batches and       94 microbatches, Max-NSigAt=      16 Max-NSgAt2=      16
 IPart= 6        13954 of        15720 points in      31 batches and       95 microbatches, Max-NSigAt=      16 Max-NSgAt2=      16
 IPart= 1        13525 of        15282 points in      31 batches and      104 microbatches, Max-NSigAt=      16 Max-NSgAt2=      16
 IPart= 5        13943 of        16258 points in      34 batches and       88 microbatches, Max-NSigAt=      16 Max-NSgAt2=      16
 Polarizability after L703:
                1             2             3
      1  0.685361D+02
      2 -0.262929D+02  0.106665D+03
      3 -0.335853D+01 -0.997907D+01  0.703028D+02
 Dipole Derivatives after L703:
               1            2            3            4            5
      1 0.674355D+00-0.589201D+00-0.995369D+00 0.419700D+00 0.563757D+00
      2-0.238699D+01 0.903358D+00 0.231465D+01-0.136418D+00-0.112866D+01
      3 0.325882D+00-0.360942D+00-0.753059D+00 0.251743D+00 0.627004D+00
               6            7            8            9           10
      1-0.171314D+00 0.107921D-01-0.138952D+00 0.457674D-01 0.374733D-01
      2 0.789638D+00 0.656690D-01 0.591220D+00-0.400857D-01 0.878041D-01
      3 0.712332D-01-0.419690D-01-0.256319D+00 0.434902D-01-0.587787D-01
              11           12           13           14           15
      1 0.183331D-01 0.311710D-01 0.877663D-01-0.858773D-02-0.212812D-01
      2 0.309215D-02-0.510091D-01-0.138721D+00-0.348925D-01 0.104004D+00
      3 0.107812D+00 0.127724D-01 0.793013D-01-0.111814D+00-0.445525D-01
              16           17           18           19           20
      1-0.930190D-01-0.250764D-01-0.829575D-01-0.439855D+00-0.577495D-01
      2-0.329390D-01 0.197472D-01-0.984494D-02 0.177263D+01-0.277985D+00
      3-0.258437D-01 0.940561D-03 0.331787D-01-0.841586D+00-0.251177D-01
              21           22           23           24           25
      1 0.432279D+00 0.786675D-01 0.103141D+00 0.658485D-01-0.155892D+00
      2-0.182915D+01-0.190526D-01 0.100339D+00-0.137110D+00-0.307017D-01
      3 0.109590D+01 0.321941D-01-0.818421D-02 0.835664D-01-0.616096D-01
              26           27           28           29           30
      1-0.132398D+00 0.549344D-01 0.288155D-01-0.486567D-01-0.494102D-01
      2 0.469023D+00-0.248167D+00 0.110724D+00-0.426347D-01 0.237835D-01
      3-0.107185D+00 0.329689D-01-0.343171D-01-0.992437D-01 0.243643D-01
              31           32           33           34           35
      1 0.937770D-01 0.391877D-01-0.268999D-01-0.356097D-01 0.659856D-01
      2-0.158386D+00-0.181370D-01-0.701503D-03 0.272670D-03-0.534394D-02
      3-0.313226D-02 0.106398D+00-0.231906D-01 0.618011D-01-0.136162D-02
              36           37           38           39           40
      1 0.107782D+00 0.329765D+00-0.220055D+00-0.483312D+00-0.122492D+01
      2 0.177711D-02-0.212836D+01 0.432746D+00 0.187065D+01 0.233425D+01
      3-0.390671D-01 0.949550D+00-0.146055D+00-0.131534D+01-0.370227D+00
              41           42           43           44           45
      1 0.472784D-01 0.117048D+01 0.203207D+00-0.534238D-01 0.583722D-01
      2-0.601418D+00-0.296570D+01-0.454239D-01 0.453622D+00-0.199491D+00
      3-0.424541D-01 0.360810D+00-0.614265D-01 0.517003D-01 0.195632D+00
              46           47           48
      1-0.150186D-01 0.436417D+00-0.136085D+00
      2 0.705637D+00-0.864076D+00 0.376765D+00
      3-0.201582D+00 0.264822D+00 0.221295D+00
 Hessian after L703:
                1             2             3             4             5
      1 -0.124910D-02
      2  0.950497D-01  0.227043D+00
      3  0.528679D-01 -0.355732D-01  0.109957D-01
      4 -0.671841D-01 -0.431862D-01  0.796351D-02  0.453449D+00
      5 -0.842219D-01 -0.107251D+00  0.798002D-01 -0.464494D-02  0.306549D+00
      6  0.427502D-01 -0.245406D-01 -0.938531D-01 -0.227761D-01 -0.298545D-01
      7  0.188632D-02  0.102697D-01  0.551917D-02 -0.119143D+00  0.993951D-03
      8  0.450450D-01 -0.269882D-01 -0.496582D-01  0.815944D-02 -0.536229D-01
      9  0.905268D-02 -0.165818D-01 -0.116180D-01  0.421508D-01  0.387074D-02
     10  0.266927D-02 -0.220561D-02 -0.268312D-02  0.451093D-02 -0.136625D-01
     11  0.639293D-04  0.625495D-03 -0.854506D-03 -0.708530D-03  0.148819D-02
     12 -0.591140D-02  0.442419D-02  0.637810D-02 -0.578337D-02  0.109800D-01
     13 -0.777290D-02  0.281745D-02  0.753001D-02 -0.120562D-02  0.169869D-01
     14  0.397921D-02 -0.180133D-02 -0.388738D-02 -0.796997D-03  0.142800D-03
     15  0.949900D-02 -0.357655D-02 -0.938797D-02 -0.391512D-03 -0.173618D-01
     16  0.107126D-02 -0.635364D-03 -0.603886D-03 -0.209667D-01 -0.497132D-02
     17 -0.112963D-02  0.175799D-02  0.229938D-02  0.228098D-02 -0.272419D-02
     18  0.304765D-03  0.154126D-02  0.614914D-03  0.237813D-01  0.500061D-02
     19  0.968642D-01 -0.269310D-01 -0.867791D-01 -0.769966D-01  0.722198D-01
     20 -0.124872D-01 -0.405481D-01  0.387822D-01  0.370893D-01 -0.995048D-01
     21 -0.787541D-01  0.564911D-01  0.988244D-01 -0.341848D-01 -0.874624D-02
     22 -0.914220D-02  0.136051D-02  0.401836D-02  0.164285D-02  0.385995D-02
     23 -0.956531D-03 -0.642863D-02 -0.252678D-02  0.106753D-01  0.849982D-02
     24 -0.925475D-02  0.760587D-02  0.538567D-02 -0.131886D-01  0.642556D-02
     25  0.826347D-03 -0.793797D-02 -0.541360D-02 -0.144383D+00 -0.148667D-01
     26 -0.184196D-01 -0.414024D-01 -0.398811D-01 -0.807950D-03 -0.538658D-01
     27 -0.203995D-01 -0.105079D-01  0.853012D-02 -0.260818D-01 -0.799661D-02
     28 -0.339972D-02 -0.798546D-02 -0.741703D-02  0.411208D-02 -0.225677D-01
     29  0.967961D-03 -0.295427D-02 -0.545735D-02  0.277942D-02 -0.331893D-02
     30  0.177630D-02 -0.394398D-02 -0.396449D-02  0.258267D-02 -0.625500D-02
     31 -0.401017D-02  0.432516D-02  0.102696D-01 -0.123148D-01  0.137649D-01
     32 -0.449614D-03  0.155675D-02  0.542193D-03 -0.315750D-02  0.320499D-02
     33 -0.163472D-02  0.118275D-02  0.471079D-02 -0.339209D-02  0.495538D-02
     34  0.896497D-03  0.153247D-02  0.109155D-02 -0.199197D-01  0.425472D-02
     35 -0.318724D-02  0.244464D-02  0.380500D-02 -0.542478D-02 -0.253493D-02
     36  0.217589D-02  0.835971D-03 -0.552024D-03 -0.850542D-02  0.230585D-02
     37 -0.106041D+00  0.585545D-01  0.100189D+00 -0.831671D-02 -0.599313D-01
     38  0.459677D-01 -0.190100D-01 -0.501741D-01 -0.653202D-02  0.322288D-01
     39  0.802538D-01 -0.489573D-01 -0.811251D-01  0.403388D-01  0.519385D-01
     40  0.612775D-01 -0.611997D-01 -0.512887D-01  0.305366D-02  0.745848D-01
     41  0.149398D-02 -0.218733D-01 -0.736169D-02  0.109305D-01  0.644176D-02
     42 -0.109684D+00  0.801316D-01  0.780576D-01 -0.935184D-02 -0.100029D+00
     43 -0.700303D-02  0.121328D-02  0.260633D-02 -0.140227D-02 -0.105258D-02
     44  0.482038D-02 -0.311919D-02 -0.531085D-02  0.309740D-02  0.167180D-02
     45  0.370787D-02 -0.255257D-03  0.111331D-01  0.265759D-02 -0.440502D-02
     46  0.403113D-01 -0.250415D-01 -0.378697D-01  0.506387D-02  0.192538D-01
     47 -0.765361D-01  0.379488D-01  0.754562D-01 -0.975338D-02 -0.374039D-01
     48  0.232499D-01 -0.827612D-02 -0.241296D-01  0.418086D-02  0.937164D-02
                6             7             8             9            10
      6  0.473427D+00
      7  0.405196D-01  0.518671D+00
      8 -0.793465D-02  0.779020D-02  0.563044D+00
      9 -0.119026D+00  0.697182D-01 -0.909356D-02  0.507432D+00
     10  0.176795D-01 -0.603855D-01  0.380511D-01 -0.460551D-01  0.635856D-01
     11 -0.288766D-02  0.373226D-01 -0.155056D+00  0.127760D+00 -0.417022D-01
     12 -0.186656D-01 -0.434977D-01  0.127250D+00 -0.191172D+00  0.456886D-01
     13  0.863784D-02 -0.467492D-01 -0.155383D-02 -0.160353D-02 -0.622009D-03
     14 -0.462677D-03 -0.213826D-02 -0.274350D+00 -0.877149D-01 -0.961745D-03
     15 -0.112074D-01 -0.156766D-02 -0.892692D-01 -0.786490D-01  0.712496D-03
     16 -0.766590D-02 -0.266039D+00 -0.525187D-01 -0.860690D-01 -0.542215D-02
     17  0.193094D-02 -0.539790D-01 -0.600776D-01 -0.207550D-01  0.198608D-01
     18  0.780919D-02 -0.897801D-01 -0.209283D-01 -0.820482D-01 -0.214201D-01
     19 -0.515344D-01 -0.285344D-03 -0.360031D-01  0.227139D-01 -0.520510D-02
     20  0.653638D-01 -0.305919D-02  0.109075D-01 -0.280099D-02  0.229672D-02
     21 -0.128066D+00  0.319304D-02  0.289422D-01 -0.312511D-01  0.306913D-02
     22  0.586091D-02  0.914735D-03  0.772825D-03  0.691694D-03  0.101385D-03
     23 -0.565235D-02  0.461090D-03 -0.629711D-03 -0.191892D-03 -0.409541D-03
     24  0.784207D-02 -0.682300D-03  0.209043D-02  0.130862D-02  0.369176D-03
     25 -0.165832D-01 -0.287920D-01 -0.497426D-02 -0.369619D-02  0.148570D-02
     26 -0.309307D-02  0.122229D-02 -0.158615D-02  0.285421D-02 -0.102248D-02
     27 -0.847166D-01  0.227687D-01  0.723010D-02  0.768615D-02  0.643285D-03
     28 -0.774178D-02  0.125391D-02 -0.136803D-02  0.167857D-04 -0.218500D-03
     29 -0.218245D-02  0.477080D-03 -0.878463D-03  0.593113D-04 -0.967837D-04
     30 -0.554882D-02  0.529962D-03 -0.459646D-03  0.103698D-03 -0.471409D-04
     31 -0.236719D-01  0.159126D-02  0.233610D-02 -0.109413D-02 -0.402277D-03
     32 -0.649138D-02  0.142820D-03  0.193338D-03 -0.215317D-03  0.149583D-03
     33 -0.846646D-02  0.103415D-02  0.557022D-03  0.341493D-03 -0.111668D-03
     34  0.225713D-01 -0.518429D-02 -0.194438D-02 -0.355853D-02  0.139343D-03
     35  0.744028D-02 -0.110775D-02  0.316159D-03 -0.764644D-03  0.263834D-03
     36  0.879676D-02 -0.164285D-02 -0.649977D-03 -0.304581D-03 -0.253772D-03
     37  0.362869D-01  0.614944D-02  0.261868D-01 -0.189250D-02  0.213818D-02
     38  0.531491D-03  0.662304D-03 -0.103165D-01  0.367589D-02 -0.130246D-02
     39 -0.574066D-01 -0.763800D-02 -0.137749D-01 -0.244306D-02  0.582068D-03
     40 -0.318438D-01 -0.132483D-02 -0.217660D-01  0.241183D-03 -0.195654D-02
     41 -0.155303D-01 -0.114823D-02 -0.280409D-02  0.344961D-03  0.116908D-04
     42  0.349992D-01  0.203887D-02  0.292872D-01 -0.619462D-03  0.211905D-02
     43  0.585803D-03 -0.311789D-03  0.177444D-03 -0.265935D-03 -0.166786D-04
     44 -0.154694D-02 -0.510473D-03 -0.131733D-02 -0.202265D-03 -0.187320D-04
     45  0.287173D-02  0.322623D-04  0.121648D-02 -0.562073D-04  0.193837D-03
     46 -0.130750D-01 -0.225158D-02 -0.839050D-02 -0.350248D-03 -0.401620D-03
     47  0.249100D-01  0.260081D-02  0.131666D-01 -0.244406D-03  0.748277D-03
     48 -0.878928D-02 -0.545282D-03 -0.480487D-02  0.315419D-03 -0.486236D-03
               11            12            13            14            15
     11  0.165157D+00
     12 -0.138526D+00  0.208569D+00
     13  0.659185D-02  0.266003D-02  0.471382D-01
     14 -0.179093D-01 -0.782502D-02  0.325777D-02  0.296893D+00
     15  0.225566D-01  0.107335D-01 -0.103382D-02  0.963024D-01  0.837262D-01
     16 -0.131924D-02 -0.217150D-02  0.211789D-02  0.267754D-03  0.900179D-03
     17  0.524078D-02  0.659448D-02 -0.278111D-01 -0.495439D-02 -0.984194D-02
     18 -0.676103D-02 -0.794615D-02 -0.913197D-02 -0.100233D-02 -0.448471D-02
     19  0.891343D-03  0.844993D-02  0.604106D-02 -0.243619D-02 -0.627620D-02
     20 -0.104172D-03 -0.317973D-02 -0.112054D-02  0.826213D-03  0.935397D-03
     21 -0.585533D-03 -0.519771D-02 -0.457743D-02  0.320499D-02  0.564523D-02
     22 -0.453967D-04 -0.377142D-03 -0.187720D-03 -0.213031D-03  0.204606D-04
     23  0.789127D-04  0.487523D-04  0.118327D-03 -0.187581D-03  0.501806D-04
     24 -0.332382D-03 -0.342206D-03 -0.507361D-03 -0.900697D-04  0.402718D-04
     25 -0.197742D-03 -0.135262D-02  0.665983D-03 -0.420541D-03 -0.110223D-02
     26 -0.169107D-03  0.663143D-03  0.149159D-02 -0.636197D-03 -0.142102D-02
     27 -0.957346D-04  0.199662D-03 -0.800039D-03  0.559125D-03  0.134478D-02
     28  0.112741D-04  0.274735D-03 -0.416338D-03 -0.348529D-04  0.750903D-04
     29  0.153842D-04  0.938063D-04 -0.231362D-03  0.443611D-03  0.495723D-04
     30  0.125376D-03  0.248746D-03  0.337279D-03 -0.375685D-04  0.616194D-04
     31 -0.424322D-03  0.368343D-03 -0.573838D-03  0.217528D-03  0.580698D-03
     32  0.298666D-03 -0.203307D-04  0.172968D-04 -0.144405D-03  0.213457D-03
     33  0.171026D-04  0.442083D-03 -0.181285D-03  0.370774D-04  0.231457D-03
     34 -0.781501D-04 -0.612691D-04  0.444663D-03  0.912885D-04 -0.304481D-03
     35  0.105585D-03 -0.458077D-03 -0.298174D-03  0.390852D-03  0.417895D-03
     36 -0.225657D-03  0.184285D-03 -0.104839D-03  0.788908D-04 -0.121886D-03
     37 -0.524570D-03 -0.479966D-02 -0.617739D-02  0.320191D-02  0.759787D-02
     38  0.302866D-03  0.269546D-02  0.206223D-02 -0.727738D-03 -0.219870D-02
     39 -0.172704D-03  0.212563D-02  0.446739D-02 -0.282030D-02 -0.583798D-02
     40 -0.323065D-04  0.505585D-02  0.509917D-02 -0.291776D-02 -0.607542D-02
     41 -0.425720D-04 -0.486117D-03  0.651829D-03  0.328650D-03 -0.546790D-03
     42 -0.172837D-03 -0.611760D-02 -0.632897D-02  0.388502D-02  0.883618D-02
     43  0.373262D-04  0.141780D-04  0.868893D-04 -0.205078D-04  0.115147D-03
     44  0.321182D-04  0.225669D-03  0.312371D-03 -0.165876D-03 -0.404115D-03
     45  0.516053D-04 -0.496780D-03 -0.386279D-03  0.208584D-03  0.334238D-03
     46  0.114107D-03  0.144303D-02  0.211116D-02 -0.107558D-02 -0.274961D-02
     47 -0.636101D-04 -0.248042D-02 -0.329269D-02  0.185206D-02  0.409456D-02
     48  0.103330D-03  0.105678D-02  0.102297D-02 -0.435931D-03 -0.126454D-02
               16            17            18            19            20
     16  0.290162D+00
     17  0.587155D-01  0.604099D-01
     18  0.929373D-01  0.225930D-01  0.876029D-01
     19  0.484830D-03  0.971814D-03  0.483341D-03  0.416563D+00
     20  0.483354D-03  0.892917D-04 -0.736574D-04 -0.247898D+00  0.371329D+00
     21 -0.157888D-02 -0.140971D-02  0.740122D-03 -0.960508D-01 -0.918194D-01
     22  0.800757D-04 -0.106913D-03 -0.137764D-03 -0.184745D+00  0.151629D+00
     23 -0.629835D-03 -0.279742D-03  0.326552D-03  0.159331D+00 -0.170851D+00
     24  0.319786D-03  0.110596D-03  0.709435D-04 -0.129336D-02  0.194194D-01
     25 -0.213201D-02  0.327892D-03  0.210117D-02 -0.138080D-01  0.542968D-02
     26  0.100167D-02  0.312767D-03 -0.889075D-03 -0.448187D-03  0.785586D-02
     27  0.468863D-02 -0.218236D-03 -0.340087D-02 -0.187176D-01 -0.114331D-02
     28  0.277465D-03  0.372614D-03 -0.101268D-03 -0.288885D-02  0.730199D-03
     29 -0.282246D-04  0.382486D-03  0.103739D-03 -0.294761D-02  0.917760D-03
     30 -0.233127D-04  0.142128D-03 -0.140967D-03 -0.341683D-02  0.587704D-03
     31  0.420077D-03 -0.366061D-03  0.261994D-03  0.233634D-03 -0.276120D-02
     32  0.355748D-04  0.491744D-04 -0.234938D-03 -0.268719D-03  0.152500D-03
     33  0.000000D+00 -0.275433D-03  0.979206D-04  0.494815D-03 -0.960393D-03
     34 -0.132004D-02  0.105114D-04  0.138887D-02 -0.309619D-03 -0.446002D-03
     35 -0.430265D-03  0.461761D-03  0.176704D-03  0.378341D-02 -0.743247D-03
     36 -0.501342D-03 -0.127044D-03  0.549139D-03 -0.183378D-03  0.513254D-03
     37  0.477218D-03 -0.165639D-02 -0.496961D-04 -0.902799D-01  0.182963D-01
     38  0.150517D-03  0.496588D-03 -0.146069D-03  0.145659D-01 -0.680073D-01
     39  0.229704D-03  0.152817D-02  0.998783D-04  0.941894D-01  0.312200D-01
     40  0.783716D-03  0.189049D-02 -0.657045D-03 -0.877047D-01  0.216066D-01
     41  0.245709D-03 -0.160580D-03  0.329070D-05 -0.666537D-02 -0.681387D-03
     42 -0.618424D-04 -0.278224D-02  0.227681D-03  0.116329D+00 -0.254787D-01
     43  0.377138D-04 -0.589130D-04  0.000000D+00  0.523825D-03 -0.132905D-02
     44 -0.164637D-03  0.936729D-04  0.522982D-04 -0.556738D-02  0.138800D-02
     45 -0.229483D-03 -0.107114D-03  0.162326D-03  0.100686D-01 -0.175091D-02
     46 -0.315960D-04  0.677316D-03  0.191171D-04 -0.584867D-01  0.315401D-01
     47 -0.202450D-03 -0.109789D-02  0.237953D-03  0.774027D-01 -0.130268D-01
     48 -0.171344D-03  0.318010D-03  0.458738D-04  0.115228D-01 -0.296147D-01
               21            22            23            24            25
     21  0.504980D+00
     22 -0.396576D-02  0.202212D+00
     23  0.205876D-01 -0.169661D+00  0.165436D+00
     24 -0.562869D-01 -0.107442D-01 -0.115129D-01  0.560675D-01
     25 -0.133297D-01 -0.434304D-03 -0.134411D-02 -0.123781D-03  0.460921D+00
     26  0.175957D-01  0.835738D-03 -0.219741D-02  0.220711D-02 -0.294428D-01
     27 -0.173234D-01 -0.942660D-03  0.111193D-02 -0.260444D-02 -0.471519D-01
     28  0.315620D-02 -0.346344D-05 -0.742852D-04  0.000000D+00 -0.480971D-01
     29  0.339841D-02  0.209389D-05 -0.251524D-04  0.596824D-04 -0.567151D-02
     30  0.278744D-02 -0.122397D-04 -0.960464D-04  0.584646D-04 -0.271754D-02
     31 -0.427768D-02 -0.373103D-03  0.755293D-03 -0.118220D-02 -0.581553D-01
     32 -0.567728D-03 -0.788641D-04  0.124093D-03 -0.263959D-03  0.374927D-01
[...]
    X8       -3.07435   0.00000   0.00000   0.00105   0.00107  -3.07328
    Y8        4.80034   0.00000   0.00000   0.00104   0.00098   4.80132
    Z8       -2.48075   0.00000   0.00000   0.00041   0.00044  -2.48031
    X9        1.85059   0.00000   0.00000  -0.00009  -0.00007   1.85053
    Y9        2.62971  -0.00001   0.00000   0.00030   0.00024   2.62994
    Z9        0.77055   0.00000   0.00000   0.00011   0.00014   0.77068
   X10        1.91749   0.00000   0.00000  -0.00033  -0.00030   1.91718
   Y10        4.59410   0.00000   0.00000   0.00023   0.00017   4.59427
   Z10        1.40926   0.00000   0.00000   0.00034   0.00036   1.40962
   X11        2.34672   0.00000   0.00000   0.00016   0.00018   2.34690
   Y11        1.40092   0.00000   0.00000   0.00014   0.00008   1.40100
   Z11        2.35448   0.00000   0.00000  -0.00010  -0.00008   2.35441
   X12        3.26106   0.00000   0.00000  -0.00013  -0.00011   3.26095
   Y12        2.39496   0.00000   0.00000   0.00078   0.00072   2.39568
   Z12       -0.71325   0.00000   0.00000  -0.00002   0.00001  -0.71325
   X13       -0.19296   0.00000   0.00000   0.00020   0.00022  -0.19274
   Y13        3.30497   0.00003   0.00000  -0.00011  -0.00017   3.30480
   Z13       -4.53638   0.00001   0.00000   0.00007   0.00009  -4.53629
   X14        1.13992   0.00000   0.00000  -0.00046  -0.00044   1.13947
   Y14       -1.15969  -0.00001   0.00000  -0.00035  -0.00042  -1.16010
   Z14       -3.42895  -0.00001   0.00000  -0.00031  -0.00029  -3.42924
   X15        2.59994   0.00000   0.00000   0.00011   0.00012   2.60006
   Y15       -1.74603   0.00000   0.00000   0.00045   0.00039  -1.74564
   Z15       -2.50169  -0.00001   0.00000  -0.00069  -0.00067  -2.50236
   X16        0.76815  -0.00002   0.00000  -0.00076  -0.00074   0.76741
   Y16        1.64994  -0.00002   0.00000  -0.00082  -0.00089   1.64905
   Z16       -4.44409   0.00000   0.00000  -0.00015  -0.00013  -4.44422
         Item               Value     Threshold  Converged?
 Maximum Force            0.000033     0.000450     YES
 RMS     Force            0.000007     0.000300     YES
 Maximum Displacement     0.001071     0.001800     YES
 RMS     Displacement     0.000374     0.001200     YES
 Predicted change in Energy=-1.882738D-08
 Optimization completed.
    -- Stationary point found.
 GradGradGradGradGradGradGradGradGradGradGradGradGradGradGradGradGradGrad


 Test job not archived.
 1\1\GINC-NODE10\Freq\UB3LYP\CBSB7\C4H9O3(2)\NYEE\23-Jul-2014\0\\# freq
  nosymm b3lyp/cbsb7 iop(7/33=1)\\Title Card Required\\0,2\O,-0.469881,
 -0.380827,-0.459313\C,-0.427338,1.01557,-0.102951\C,-1.476963,1.164411
 ,1.011901\H,-1.245308,0.472678,1.822977\H,-1.475817,2.181613,1.413131\
 H,-2.47181,0.92555,0.63324\C,-0.820747,1.813642,-1.307687\H,-1.626877,
 2.54023,-1.312758\C,0.979291,1.39158,0.407756\H,1.01469,2.431091,0.745
 746\H,1.241832,0.741335,1.245938\H,1.725678,1.26736,-0.377438\O,-0.102
 109,1.748914,-2.400549\O,0.603218,-0.613681,-1.814523\H,1.375828,-0.92
 396,-1.323837\H,0.406487,0.87311,-2.351712\\Version=AM64L-G03RevD.01\H
 F=-383.451007\S2=0.766758\S2-1=0.\S2A=0.750071\RMSD=5.163e-09\RMSF=7.4
 82e-06\ZeroPoint=0.1263872\Thermal=0.1349706\Dipole=0.3129667,0.759298
 2,0.7622139\DipoleDeriv=0.6743547,-2.3869877,0.3258824,-0.5892009,0.90
 33582,-0.3609422,-0.9953691,2.3146462,-0.7530587,0.4196995,-0.136418,0
 .2517427,0.5637575,-1.12866,0.6270036,-0.1713142,0.7896376,0.0712332,0
 .0107921,0.065669,-0.041969,-0.1389517,0.5912199,-0.2563194,0.0457674,
 -0.0400857,0.0434902,0.0374733,0.0878041,-0.0587787,0.0183331,0.003092
 1,0.1078123,0.031171,-0.0510091,0.0127724,0.0877663,-0.1387205,0.07930
 13,-0.0085877,-0.0348925,-0.1118143,-0.0212812,0.1040041,-0.0445525,-0
 .093019,-0.032939,-0.0258437,-0.0250764,0.0197472,0.0009406,-0.0829575
 ,-0.0098449,0.0331787,-0.4398546,1.7726341,-0.8415855,-0.0577495,-0.27
 79855,-0.0251177,0.4322788,-1.8291549,1.0958997,0.0786675,-0.0190526,0
 .0321941,0.1031411,0.1003389,-0.0081842,0.0658485,-0.1371099,0.0835664
 ,-0.1558921,-0.0307017,-0.0616096,-0.1323984,0.4690225,-0.1071852,0.05
 49344,-0.2481672,0.0329689,0.0288155,0.1107245,-0.0343171,-0.0486567,-
 0.0426347,-0.0992437,-0.0494102,0.0237835,0.0243643,0.093777,-0.158385
 8,-0.0031323,0.0391877,-0.018137,0.1063982,-0.0268999,-0.0007015,-0.02
 31906,-0.0356097,0.0002727,0.0618011,0.0659856,-0.0053439,-0.0013616,0
 .1077821,0.0017771,-0.0390671,0.3297648,-2.1283636,0.9495505,-0.220054
 9,0.4327463,-0.1460545,-0.4833125,1.8706486,-1.315342,-1.224924,2.3342
 519,-0.3702275,0.0472784,-0.6014178,-0.0424541,1.1704755,-2.965698,0.3
 608105,0.2032073,-0.0454239,-0.0614265,-0.0534238,0.4536223,0.0517003,
 0.0583722,-0.1994907,0.195632,-0.0150186,0.7056366,-0.2015821,0.436416
 6,-0.864076,0.264822,-0.1360853,0.3767648,0.2212945\Polar=68.5361305,-
 26.2928851,106.6646666,-3.3585298,-9.9790675,70.3028222\PG=C01 [X(C4H9
 O3)]\NImag=1\\-0.00124910,0.09504975,0.22704293,0.05286789,-0.03557323
 ,0.01099573,-0.06718407,-0.04318620,0.00796351,0.45344889,-0.08422194,
 -0.10725124,0.07980024,-0.00464494,0.30654850,0.04275023,-0.02454057,-
 0.09385313,-0.02277615,-0.02985446,0.47342706,0.00188632,0.01026973,0.
 00551917,-0.11914297,0.00099395,0.04051961,0.51867127,0.04504497,-0.02
 698819,-0.04965819,0.00815944,-0.05362285,-0.00793465,0.00779020,0.563
 04381,0.00905268,-0.01658180,-0.01161801,0.04215079,0.00387074,-0.1190
 2578,0.06971816,-0.00909356,0.50743196,0.00266927,-0.00220561,-0.00268
 312,0.00451093,-0.01366247,0.01767953,-0.06038547,0.03805108,-0.046055
 09,0.06358555,0.00006393,0.00062550,-0.00085451,-0.00070853,0.00148819
 ,-0.00288766,0.03732258,-0.15505619,0.12775959,-0.04170215,0.16515699,
 -0.00591140,0.00442419,0.00637810,-0.00578337,0.01097996,-0.01866557,-
 0.04349774,0.12724986,-0.19117195,0.04568859,-0.13852562,0.20856916,-0
 .00777290,0.00281745,0.00753001,-0.00120562,0.01698694,0.00863784,-0.0
 4674919,-0.00155383,-0.00160353,-0.00062201,0.00659185,0.00266003,0.04
 713819,0.00397921,-0.00180133,-0.00388738,-0.00079700,0.00014280,-0.00
 046268,-0.00213826,-0.27435032,-0.08771485,-0.00096174,-0.01790934,-0.
 00782502,0.00325777,0.29689299,0.00949900,-0.00357655,-0.00938797,-0.0
 0039151,-0.01736180,-0.01120739,-0.00156766,-0.08926922,-0.07864900,0.
 00071250,0.02255665,0.01073350,-0.00103382,0.09630243,0.08372620,0.001
 07126,-0.00063536,-0.00060389,-0.02096672,-0.00497132,-0.00766590,-0.2
 6603946,-0.05251874,-0.08606903,-0.00542215,-0.00131924,-0.00217150,0.
 00211789,0.00026775,0.00090018,0.29016173,-0.00112963,0.00175799,0.002
 29938,0.00228098,-0.00272419,0.00193094,-0.05397896,-0.06007759,-0.020
 75497,0.01986081,0.00524078,0.00659448,-0.02781106,-0.00495439,-0.0098
 4194,0.05871550,0.06040987,0.00030476,0.00154126,0.00061491,0.02378127
 ,0.00500061,0.00780919,-0.08978012,-0.02092830,-0.08204823,-0.02142013
 ,-0.00676103,-0.00794615,-0.00913197,-0.00100233,-0.00448471,0.0929373
 3,0.02259299,0.08760293,0.09686419,-0.02693103,-0.08677905,-0.07699664
 ,0.07221977,-0.05153441,-0.00028534,-0.03600315,0.02271390,-0.00520510
 ,0.00089134,0.00844993,0.00604106,-0.00243619,-0.00627620,0.00048483,0
 .00097181,0.00048334,0.41656263,-0.01248725,-0.04054813,0.03878216,0.0
 3708930,-0.09950479,0.06536384,-0.00305919,0.01090749,-0.00280099,0.00
 229672,-0.00010417,-0.00317973,-0.00112054,0.00082621,0.00093540,0.000
 48335,0.00008929,-0.00007366,-0.24789799,0.37132944,-0.07875406,0.0564
 9111,0.09882436,-0.03418477,-0.00874624,-0.12806640,0.00319304,0.02894
 224,-0.03125105,0.00306913,-0.00058553,-0.00519771,-0.00457743,0.00320
 499,0.00564523,-0.00157888,-0.00140971,0.00074012,-0.09605082,-0.09181
 936,0.50498021,-0.00914220,0.00136051,0.00401836,0.00164285,0.00385995
 ,0.00586091,0.00091473,0.00077283,0.00069169,0.00010138,-0.00004540,-0
 .00037714,-0.00018772,-0.00021303,0.00002046,0.00008008,-0.00010691,-0
 .00013776,-0.18474532,0.15162902,-0.00396576,0.20221172,-0.00095653,-0
 .00642863,-0.00252678,0.01067529,0.00849982,-0.00565235,0.00046109,-0.
 00062971,-0.00019189,-0.00040954,0.00007891,0.00004875,0.00011833,-0.0
 0018758,0.00005018,-0.00062983,-0.00027974,0.00032655,0.15933067,-0.17
 085076,0.02058760,-0.16966106,0.16543600,-0.00925475,0.00760587,0.0053
 8567,-0.01318856,0.00642556,0.00784207,-0.00068230,0.00209043,0.001308
 62,0.00036918,-0.00033238,-0.00034221,-0.00050736,-0.00009007,0.000040
 27,0.00031979,0.00011060,0.00007094,-0.00129336,0.01941942,-0.05628693
 ,-0.01074415,-0.01151294,0.05606749,0.00082635,-0.00793797,-0.00541360
 ,-0.14438282,-0.01486667,-0.01658324,-0.02879201,-0.00497426,-0.003696
 19,0.00148570,-0.00019774,-0.00135262,0.00066598,-0.00042054,-0.001102
 23,-0.00213201,0.00032789,0.00210117,-0.01380800,0.00542968,-0.0133296
 5,-0.00043430,-0.00134411,-0.00012378,0.46092149,-0.01841962,-0.041402
 37,-0.03988109,-0.00080795,-0.05386582,-0.00309307,0.00122229,-0.00158
 615,0.00285421,-0.00102248,-0.00016911,0.00066314,0.00149159,-0.000636
 20,-0.00142102,0.00100167,0.00031277,-0.00088908,-0.00044819,0.0078558
 6,0.01759574,0.00083574,-0.00219741,0.00220711,-0.02944278,0.56305050,
 -0.02039950,-0.01050790,0.00853012,-0.02608176,-0.00799661,-0.08471656
 ,0.02276874,0.00723010,0.00768615,0.00064329,-0.00009573,0.00019966,-0
 .00080004,0.00055912,0.00134478,0.00468863,-0.00021824,-0.00340087,-0.
 01871762,-0.00114331,-0.01732337,-0.00094266,0.00111193,-0.00260444,-0
 .04715185,-0.01008457,0.55591850,-0.00339972,-0.00798546,-0.00741703,0
 .00411208,-0.02256767,-0.00774178,0.00125391,-0.00136803,0.00001679,-0
 .00021850,0.00001127,0.00027473,-0.00041634,-0.00003485,0.00007509,0.0
 0027747,0.00037261,-0.00010127,-0.00288885,0.00073020,0.00315620,-0.00
 000346,-0.00007429,-0.00000055,-0.04809711,-0.00467892,-0.00194353,0.0
 4952871,0.00096796,-0.00295427,-0.00545735,0.00277942,-0.00331893,-0.0
 0218245,0.00047708,-0.00087846,0.00005931,-0.00009678,0.00001538,0.000
 09381,-0.00023136,0.00044361,0.00004957,-0.00002822,0.00038249,0.00010
 374,-0.00294761,0.00091776,0.00339841,0.00000209,-0.00002515,0.0000596
 8,-0.00567151,-0.28290673,-0.07569321,0.00628776,0.30656838,0.00177630
 ,-0.00394398,-0.00396449,0.00258267,-0.00625500,-0.00554882,0.00052996
 ,-0.00045965,0.00010370,-0.00004714,0.00012538,0.00024875,0.00033728,-
 0.00003757,0.00006162,-0.00002331,0.00014213,-0.00014097,-0.00341683,0
 .00058770,0.00278744,-0.00001224,-0.00009605,0.00005846,-0.00271754,-0
 .07645111,-0.07083901,0.00271897,0.08458599,0.07323421,-0.00401017,0.0
 0432516,0.01026958,-0.01231479,0.01376494,-0.02367193,0.00159126,0.002
 33610,-0.00109413,-0.00040228,-0.00042432,0.00036834,-0.00057384,0.000
 21753,0.00058070,0.00042008,-0.00036606,0.00026199,0.00023363,-0.00276
 120,-0.00427768,-0.00037310,0.00075529,-0.00118220,-0.05815535,0.03721
 035,-0.04573560,-0.00021417,-0.00017827,0.00146230,0.06394768,-0.00044
 961,0.00155675,0.00054219,-0.00315750,0.00320499,-0.00649138,0.0001428
 2,0.00019334,-0.00021532,0.00014958,0.00029867,-0.00002033,0.00001730,
 -0.00014441,0.00021346,0.00003557,0.00004917,-0.00023494,-0.00026872,0
 .00015250,-0.00056773,-0.00007886,0.00012409,-0.00026396,0.03749270,-0
 .14079790,0.12175575,0.00674623,-0.01663524,0.02371016,-0.03915185,0.1
 4949546,-0.00163472,0.00118275,0.00471079,-0.00339209,0.00495538,-0.00
 846646,0.00103415,0.00055702,0.00034149,-0.00011167,0.00001710,0.00044
 208,-0.00018129,0.00003708,0.00023146,0.00000090,-0.00027543,0.0000979
 2,0.00049482,-0.00096039,-0.00277110,-0.00036230,0.00020463,-0.0006408
 3,-0.04465773,0.12132753,-0.20148403,0.00324887,-0.00644531,0.00936916
 ,0.05100754,-0.13354609,0.21620266,0.00089650,0.00153247,0.00109155,-0
 .01991966,0.00425472,0.02257134,-0.00518429,-0.00194438,-0.00355853,0.
 00013934,-0.00007815,-0.00006127,0.00044466,0.00009129,-0.00030448,-0.
 00132004,0.00001051,0.00138887,-0.00030962,-0.00044600,0.00234034,0.00
 011392,-0.00001261,-0.00000035,-0.16769458,0.02139678,0.13034515,0.000
 83083,0.00025851,-0.00142164,0.00586809,-0.00179098,-0.00632746,0.1826
 2795,-0.00318724,0.00244464,0.00380500,-0.00542478,-0.00253493,0.00744
 028,-0.00110775,0.00031616,-0.00076464,0.00026383,0.00010559,-0.000458
 08,-0.00029817,0.00039085,0.00041790,-0.00043027,0.00046176,0.00017670
 ,0.00378341,-0.00074325,-0.00299581,-0.00014211,0.00013511,-0.00018142
 ,0.02222965,-0.04949755,-0.02210547,0.02161225,-0.00255542,-0.02240903
 ,-0.01463969,0.00276312,0.01376396,-0.02347124,0.05076518,0.00217589,0
 .00083597,-0.00055202,-0.00850542,0.00230585,0.00879676,-0.00164285,-0
 .00064998,-0.00030458,-0.00025377,-0.00022566,0.00018428,-0.00010484,0
 .00007889,-0.00012189,-0.00050134,-0.00012704,0.00054914,-0.00018338,0
 .00051325,0.00103384,0.00004680,-0.00010828,0.00010891,0.13282586,-0.0
 2217836,-0.18821489,0.00554613,-0.00051048,-0.00706520,0.01606427,-0.0
 0425040,-0.01657607,-0.14301836,0.02583417,0.20373268,-0.10604149,0.05
 855446,0.10018870,-0.00831671,-0.05993129,0.03628689,0.00614944,0.0261
 8682,-0.00189250,0.00213818,-0.00052457,-0.00479966,-0.00617739,0.0032
 0191,0.00759787,0.00047722,-0.00165639,-0.00004970,-0.09027986,0.01829
 626,0.10582640,-0.02200273,0.00043524,0.02127319,0.00092362,0.01606082
 ,-0.00764340,0.00361173,0.00336458,0.00340795,-0.00481737,-0.00071002,
 -0.00333939,0.00191895,-0.00347974,-0.00009425,0.17978367,0.04596770,-
 0.01901001,-0.05017415,-0.00653202,0.03222883,0.00053149,0.00066230,-0
 .01031652,0.00367589,-0.00130246,0.00030287,0.00269546,0.00206223,-0.0
 0072774,-0.00219870,0.00015052,0.00049659,-0.00014607,0.01456594,-0.06
 800731,0.03063779,0.01724164,0.00178606,-0.02357916,-0.00053488,-0.006
 57030,0.00413785,-0.00158240,-0.00120176,-0.00105171,0.00288468,0.0003
 4203,0.00114666,0.00014184,0.00058631,-0.00030405,-0.13946979,0.324871
 55,0.08025379,-0.04895734,-0.08112514,0.04033880,0.05193851,-0.0574065
 6,-0.00763800,-0.01377490,-0.00244306,0.00058207,-0.00017270,0.0021256
 3,0.00446739,-0.00282030,-0.00583798,0.00022970,0.00152817,0.00009988,
 0.09418941,0.03121999,-0.26693818,0.01080171,-0.00671825,0.00008593,0.
 00016294,-0.01222166,0.00813003,-0.00312854,-0.00309078,-0.00295854,0.
 00484052,0.00012094,0.00290530,-0.00100925,0.00266211,-0.00082397,-0.1
 1070002,-0.07389386,0.34938597,0.06127750,-0.06119969,-0.05128875,0.00
 305366,0.07458481,-0.03184376,-0.00132483,-0.02176601,0.00024118,-0.00
 195654,-0.00003231,0.00505585,0.00509917,-0.00291776,-0.00607542,0.000
 78372,0.00189049,-0.00065704,-0.08770471,0.02160660,0.07516966,0.00549
 964,-0.00294014,0.00740728,-0.00233460,-0.01941820,0.00955496,-0.00298
 884,-0.00387007,-0.00431884,0.00722416,0.00068250,0.00304037,0.0022629
 1,0.00392614,-0.00156550,0.10232198,-0.02399682,-0.07921611,0.28490867
 ,0.00149398,-0.02187327,-0.00736169,0.01093046,0.00644176,-0.01553034,
 -0.00114823,-0.00280409,0.00034496,0.00001169,-0.00004257,-0.00048612,
 0.00065183,0.00032865,-0.00054679,0.00024571,-0.00016058,0.00000329,-0
 .00666537,-0.00068139,0.01860698,0.00143701,0.00048796,-0.00153779,-0.
 00197868,-0.00095313,0.00021429,0.00088012,0.00016444,-0.00062404,0.00
 015050,-0.00023141,-0.00080015,0.00175153,-0.00054709,-0.00135501,0.02
 391705,-0.04360277,-0.00105666,-0.14827246,0.11494144,-0.10968390,0.08
 013161,0.07805757,-0.00935184,-0.10002936,0.03499915,0.00203887,0.0292
 8718,-0.00061946,0.00211905,-0.00017284,-0.00611760,-0.00632897,0.0038
 8502,0.00883618,-0.00006184,-0.00278224,0.00022768,0.11632897,-0.02547
 873,-0.11035905,-0.00757470,0.00375038,-0.00827222,0.00150150,0.023159
 67,-0.01325817,0.00599057,0.00489083,0.00446396,-0.00933883,-0.0006878
 6,-0.00430928,-0.00003528,-0.00413356,-0.00012305,-0.14177120,0.076171
 53,0.11006964,0.29984802,-0.07669682,0.05848311,-0.00700303,0.00121328
 ,0.00260633,-0.00140227,-0.00105258,0.00058580,-0.00031179,0.00017744,
 -0.00026593,-0.00001668,0.00003733,0.00001418,0.00008689,-0.00002051,0
 .00011515,0.00003771,-0.00005891,0.00000014,0.00052382,-0.00132905,-0.
 00210848,0.00078925,0.00084765,0.00036799,0.00041892,0.00034749,-0.000
 78227,0.00008280,0.00003793,0.00003285,-0.00017069,0.00010487,-0.00007
 258,0.00026597,-0.00039905,0.00002002,0.00053760,-0.00199002,0.0003696
 5,-0.32736538,0.13030706,-0.20092864,0.33413966,0.00482038,-0.00311919
 ,-0.00531085,0.00309740,0.00167180,-0.00154694,-0.00051047,-0.00131733
 ,-0.00020227,-0.00001873,0.00003212,0.00022567,0.00031237,-0.00016588,
 -0.00040412,-0.00016464,0.00009367,0.00005230,-0.00556738,0.00138800,0
 .00600179,0.00058547,0.00012599,0.00018398,0.00097381,-0.00010380,-0.0
 0081273,-0.00078164,0.00007649,0.00044022,0.00023183,-0.00005703,0.000
 11654,-0.00111021,-0.00140686,0.00006950,0.00777358,-0.01018729,-0.004
 77136,0.12207280,-0.05982256,0.09114794,-0.13254018,0.06136682,0.00370
 787,-0.00025526,0.01113314,0.00265759,-0.00440502,0.00287173,0.0000322
 6,0.00121648,-0.00005621,0.00019384,0.00005161,-0.00049678,-0.00038628
 ,0.00020858,0.00033424,-0.00022948,-0.00010711,0.00016233,0.01006855,-
 0.00175091,-0.00812872,-0.00114371,-0.00027797,-0.00093169,-0.00010954
 ,0.00127694,-0.00059161,-0.00001556,0.00058737,0.00036523,-0.00057024,
 -0.00021381,-0.00095562,-0.00044792,-0.00117352,0.00004831,-0.01114302
 ,0.00464820,0.00984186,-0.20538347,0.09523180,-0.17380960,0.20015757,-
 0.08394482,0.15921370,0.04031131,-0.02504149,-0.03786966,0.00506387,0.
 01925378,-0.01307498,-0.00225158,-0.00839050,-0.00035025,-0.00040162,0
 .00011411,0.00144303,0.00211116,-0.00107558,-0.00274961,-0.00003160,0.
 00067732,0.00001912,-0.05848673,0.03154009,0.04607276,0.00553526,0.003
 40456,0.00723994,0.00058872,-0.00532859,0.00219749,-0.00147055,-0.0011
 5151,-0.00089073,0.00174686,0.00023598,0.00125259,-0.00094092,0.000764
 74,-0.00080927,-0.06022686,0.09173155,-0.03454406,-0.04875654,-0.01371
 220,0.05724822,-0.00061279,0.00082561,0.00261153,0.11782201,-0.0765360
 7,0.03794882,0.07545623,-0.00975338,-0.03740394,0.02490998,0.00260081,
 0.01316660,-0.00024441,0.00074828,-0.00006361,-0.00248042,-0.00329269,
 0.00185206,0.00409456,-0.00020245,-0.00109789,0.00023795,0.07740268,-0
 .01302676,-0.07934227,-0.00747689,0.00392504,-0.00060493,0.00091541,0.
 00946734,-0.00635128,0.00243281,0.00190742,0.00173657,-0.00435500,-0.0
 0031413,-0.00128128,-0.00058406,-0.00068363,0.00007162,0.04798106,-0.2
 0099054,0.08000810,0.05965012,0.00835460,-0.10244277,0.00431723,0.0114
 2504,-0.01109255,-0.09384785,0.16553358,0.02324993,-0.00827612,-0.0241
 2964,0.00418086,0.00937164,-0.00878928,-0.00054528,-0.00480487,0.00031
 542,-0.00048624,0.00010333,0.00105678,0.00102297,-0.00043593,-0.001264
 54,-0.00017134,0.00031801,0.00004587,0.01152276,-0.02961468,0.01231131
 ,0.00382050,0.00100448,-0.00189006,-0.00035349,-0.00286437,0.00062372,
 -0.00067909,-0.00044914,-0.00017550,0.00101537,0.00014931,0.00090254,-
 0.00155271,0.00012141,-0.00067225,0.00685212,0.02770282,-0.06511081,-0
 .01996843,-0.00840592,0.02173114,-0.00011178,-0.00124486,0.00099970,-0
 .02779613,0.01732489,0.06404559\\-0.00000233,-0.00000295,-0.00000672,0
 .00000129,-0.00000592,0.00000132,-0.00000195,-0.00000107,-0.00000300,-
 0.00000429,0.00000134,-0.00000095,-0.00000408,0.00000130,-0.00000471,-
 0.00000271,-0.00000065,-0.00000431,0.00000122,0.00001066,0.00000666,0.
 00000070,-0.00000363,-0.00000316,0.00000034,0.00000802,-0.00000414,-0.
 00000397,0.00000126,0.00000229,-0.00000215,0.00000177,0.00000452,0.000
 00054,-0.00000343,0.00000485,0.00000371,-0.00003328,-0.00000913,-0.000
 00324,0.00001070,0.00001432,0.00000037,-0.00000123,0.00000500,0.000016
 56,0.00001712,-0.00000285\\\@


 IF YOU WISH TO UNDERSTAND THE FRAGRANCE OF THE ROSE, 
 OR THE TENACITY OF THE OAK; 
 IF YOU ARE NOT SATISFIED UNTIL YOU KNOW THE SECRET PATHS 
 BY WHICH THE SUNSHINE AND THE AIR ACHIEVE THESE WONDERS; 
 IF YOU WISH TO SEE THE PATTERN WHICH UNDERLIES ONE LARGE FIELD OF 
 HUMAN EXPERIENCE AND HUMAN MEASUREMENT, THEN TAKE UP CHEMISTRY.

                                         -- C. A. COULSON, 1973.
 Job cpu time:  0 days  2 hours  5 minutes 26.1 seconds.
 File lengths (MBytes):  RWF=    125 Int=      0 D2E=      0 Chk=      8 Scr=      1
 Normal termination of Gaussian 03 at Wed Jul 23 22:27:37 2014.
