 Entering Gaussian System, Link 0=g03
 Input=formaldehydefreq.gjf
 Output=formaldehydefreq.log
 Initial command:
 /opt/g03/l1.exe /scratch/nyee/Gau-10375.inp -scrdir=/scratch/nyee/
 Entering Link 1 = /opt/g03/l1.exe PID=     10377.
  
 Copyright (c) 1988,1990,1992,1993,1995,1998,2003,2004, Gaussian, Inc.
                  All Rights Reserved.
  
 This is the Gaussian(R) 03 program.  It is based on the
 the Gaussian(R) 98 system (copyright 1998, Gaussian, Inc.),
 the Gaussian(R) 94 system (copyright 1995, Gaussian, Inc.),
 the Gaussian 92(TM) system (copyright 1992, Gaussian, Inc.),
 the Gaussian 90(TM) system (copyright 1990, Gaussian, Inc.),
 the Gaussian 88(TM) system (copyright 1988, Gaussian, Inc.),
 the Gaussian 86(TM) system (copyright 1986, Carnegie Mellon
 University), and the Gaussian 82(TM) system (copyright 1983,
 Carnegie Mellon University). Gaussian is a federally registered
 trademark of Gaussian, Inc.
  
 This software contains proprietary and confidential information,
 including trade secrets, belonging to Gaussian, Inc.
  
 This software is provided under written license and may be
 used, copied, transmitted, or stored only in accord with that
 written license.
  
 The following legend is applicable only to US Government
 contracts under FAR:
  
                    RESTRICTED RIGHTS LEGEND
  
 Use, reproduction and disclosure by the US Government is
 subject to restrictions as set forth in subparagraphs (a)
 and (c) of the Commercial Computer Software - Restricted
 Rights clause in FAR 52.227-19.
  
 Gaussian, Inc.
 340 Quinnipiac St., Bldg. 40, Wallingford CT 06492
  
  
 ---------------------------------------------------------------
 Warning -- This program may not be used in any manner that
 competes with the business of Gaussian, Inc. or will provide
 assistance to any competitor of Gaussian, Inc.  The licensee
 of this program is prohibited from giving any competitor of
 Gaussian, Inc. access to this program.  By using this program,
 the user acknowledges that Gaussian, Inc. is engaged in the
 business of creating and licensing software in the field of
 computational chemistry and represents and warrants to the
 licensee that it is not a competitor of Gaussian, Inc. and that
 it will not use this program in any manner prohibited above.
 ---------------------------------------------------------------
  

 Cite this work as:
 Gaussian 03, Revision D.01,
 M. J. Frisch, G. W. Trucks, H. B. Schlegel, G. E. Scuseria, 
 M. A. Robb, J. R. Cheeseman, J. A. Montgomery, Jr., T. Vreven, 
 K. N. Kudin, J. C. Burant, J. M. Millam, S. S. Iyengar, J. Tomasi, 
 V. Barone, B. Mennucci, M. Cossi, G. Scalmani, N. Rega, 
 G. A. Petersson, H. Nakatsuji, M. Hada, M. Ehara, K. Toyota, 
 R. Fukuda, J. Hasegawa, M. Ishida, T. Nakajima, Y. Honda, O. Kitao, 
 H. Nakai, M. Klene, X. Li, J. E. Knox, H. P. Hratchian, J. B. Cross, 
 V. Bakken, C. Adamo, J. Jaramillo, R. Gomperts, R. E. Stratmann, 
 O. Yazyev, A. J. Austin, R. Cammi, C. Pomelli, J. W. Ochterski, 
 P. Y. Ayala, K. Morokuma, G. A. Voth, P. Salvador, J. J. Dannenberg, 
 V. G. Zakrzewski, S. Dapprich, A. D. Daniels, M. C. Strain, 
 O. Farkas, D. K. Malick, A. D. Rabuck, K. Raghavachari, 
 J. B. Foresman, J. V. Ortiz, Q. Cui, A. G. Baboul, S. Clifford, 
 J. Cioslowski, B. B. Stefanov, G. Liu, A. Liashenko, P. Piskorz, 
 I. Komaromi, R. L. Martin, D. J. Fox, T. Keith, M. A. Al-Laham, 
 C. Y. Peng, A. Nanayakkara, M. Challacombe, P. M. W. Gill, 
 B. Johnson, W. Chen, M. W. Wong, C. Gonzalez, and J. A. Pople, 
 Gaussian, Inc., Wallingford CT, 2004.
 
 ******************************************
 Gaussian 03:  AM64L-G03RevD.01 13-Oct-2005
                26-Aug-2014 
 ******************************************
 %chk=formaldehyde.chk
 %mem=1000mb
 %nproc=8
 Will use up to    8 processors via shared memory.
 -------------------------------------
 # freq nosymm b3lyp/cbsb7 iop(7/33=1)
 -------------------------------------
 1/10=4,30=1,38=1/1,3;
 2/15=1,17=6,18=5,40=1/2;
 3/5=4,6=6,7=700,11=2,16=1,25=1,30=1,74=-5/1,2,3;
 4//1;
 5/5=2,38=5/2;
 8/6=4,10=90,11=11/1;
 11/6=1,8=1,9=11,15=111,16=1,31=1/1,2,10;
 10/6=1,31=1/2;
 6/7=2,8=2,9=2,10=2,18=1,28=1/1;
 7/8=1,10=1,25=1,30=1,33=1/1,2,3,16;
 1/10=4,30=1/3;
 99//99;
 -------------------
 Title Card Required
 -------------------
 Symbolic Z-matrix:
 Charge =  0 Multiplicity = 1
 O                     0.07511  -0.03644   0.76082 
 C                    -0.21851   0.13274  -0.39033 
 H                     0.09619   1.0346   -0.9554 
 H                    -0.82305  -0.60216  -0.96142 
 

 GradGradGradGradGradGradGradGradGradGradGradGradGradGradGradGradGradGrad
 Berny optimization.
 Initialization pass.
 Trust Radius=3.00D-01 FncErr=1.00D-07 GrdErr=1.00D-07
 Number of steps in this run=   2 maximum allowed number of steps=   2.
 GradGradGradGradGradGradGradGradGradGradGradGradGradGradGradGradGradGrad

                          Input orientation:                          
 ---------------------------------------------------------------------
 Center     Atomic     Atomic              Coordinates (Angstroms)
 Number     Number      Type              X           Y           Z
 ---------------------------------------------------------------------
    1          8             0        0.075109   -0.036436    0.760822
    2          6             0       -0.218512    0.132736   -0.390332
    3          1             0        0.096186    1.034602   -0.955398
    4          1             0       -0.823047   -0.602162   -0.961424
 ---------------------------------------------------------------------
                    Distance matrix (angstroms):
                    1          2          3          4
     1  O    0.000000
     2  C    1.199995   0.000000
     3  H    2.023111   1.109818   0.000000
     4  H    2.023082   1.109812   1.877238   0.000000
 Symmetry turned off by external request.
 Stoichiometry    CH2O
 Framework group  C1[X(CH2O)]
 Deg. of freedom     6
 Full point group                 C1
 Rotational constants (GHZ):    284.5924907     39.0467165     34.3357729
 Standard basis: CBSB7 (5D, 7F)
 Integral buffers will be    131072 words long.
 Raffenetti 2 integral format.
 Two-electron integral symmetry is turned off.
    48 basis functions,    80 primitive gaussians,    50 cartesian basis functions
     8 alpha electrons        8 beta electrons
       nuclear repulsion energy        31.3559414824 Hartrees.
 NAtoms=    4 NActive=    4 NUniq=    4 SFac= 7.50D-01 NAtFMM=   80 NAOKFM=F Big=F
 One-electron integrals computed using PRISM.
 NBasis=    48 RedAO= T  NBF=    48
 NBsUse=    48 1.00D-06 NBFU=    48
 Harris functional with IExCor=  402 diagonalized for initial guess.
 ExpMin= 1.03D-01 ExpMax= 8.59D+03 ExpMxC= 1.30D+03 IAcc=1 IRadAn=         1 AccDes= 1.00D-06
 HarFok:  IExCor= 402 AccDes= 1.00D-06 IRadAn=         1 IDoV=1
 ScaDFX=  1.000000  1.000000  1.000000  1.000000
 Requested convergence on RMS density matrix=1.00D-08 within 128 cycles.
 Requested convergence on MAX density matrix=1.00D-06.
 Requested convergence on             energy=1.00D-06.
 No special actions if energy rises.
 Keep R1 integrals in memory in canonical form, NReq=     2560615.
 Integral accuracy reduced to 1.0D-05 until final iterations.
 Initial convergence to 1.0D-05 achieved.  Increase integral accuracy.
 SCF Done:  E(RB+HF-LYP) =  -114.536341160     A.U. after   11 cycles
             Convg  =    0.8404D-08             -V/T =  2.0030
             S**2   =   0.0000
 Range of M.O.s used for correlation:     1    48
 NBasis=    48 NAE=     8 NBE=     8 NFC=     0 NFV=     0
 NROrb=     48 NOA=     8 NOB=     8 NVA=    40 NVB=    40
 Symmetrizing basis deriv contribution to polar:
 IMax=3 JMax=2 DiffMx= 0.00D+00
 G2DrvN: will do    5 centers at a time, making    1 passes doing MaxLOS=2.
 FoFDir/FoFCou used for L=0 through L=2.
 DoAtom=TTTT
          Differentiating once with respect to electric field.
                with respect to dipole field.
          Differentiating once with respect to nuclear coordinates.
          Store integrals in memory, NReq=     1634734.
          There are  15 degrees of freedom in the 1st order CPHF.
    12 vectors were produced by pass  0.
 AX will form  12 AO Fock derivatives at one time.
    12 vectors were produced by pass  1.
    12 vectors were produced by pass  2.
    12 vectors were produced by pass  3.
    12 vectors were produced by pass  4.
     9 vectors were produced by pass  5.
     2 vectors were produced by pass  6.
 Inv2:  IOpt= 1 Iter= 1 AM= 1.12D-15 Conv= 1.00D-12.
 Inverted reduced A of dimension   71 with in-core refinement.
 Isotropic polarizability for W=    0.000000       13.85 Bohr**3.
 End of Minotr Frequency-dependent properties file   721 does not exist.

 **********************************************************************

            Population analysis using the SCF density.

 **********************************************************************

 Alpha  occ. eigenvalues --  -19.13742 -10.27086  -1.06857  -0.63828  -0.50015
 Alpha  occ. eigenvalues --   -0.45639  -0.40686  -0.27281
 Alpha virt. eigenvalues --   -0.04932   0.04843   0.10519   0.18608   0.31175
 Alpha virt. eigenvalues --    0.38361   0.39574   0.53426   0.59556   0.63352
 Alpha virt. eigenvalues --    0.74315   0.82955   0.91614   1.00588   1.25420
 Alpha virt. eigenvalues --    1.28176   1.38693   1.39290   1.57388   1.60593
 Alpha virt. eigenvalues --    1.73576   1.83555   2.07574   2.28377   2.39206
 Alpha virt. eigenvalues --    2.41086   2.52757   2.56036   2.86910   2.88363
 Alpha virt. eigenvalues --    3.30531   3.34269   3.42836   3.68716   3.77267
 Alpha virt. eigenvalues --    4.82224   4.94221   5.50751  23.84533  49.89336
          Condensed to atoms (all electrons):
              1          2          3          4
     1  O    7.769398   0.589104  -0.053666  -0.053670
     2  C    0.589104   4.583000   0.363905   0.363909
     3  H   -0.053666   0.363905   0.715165  -0.100945
     4  H   -0.053670   0.363909  -0.100945   0.715163
 Mulliken atomic charges:
              1
     1  O   -0.251166
     2  C    0.100082
     3  H    0.075541
     4  H    0.075544
 Sum of Mulliken charges=   0.00000
 Atomic charges with hydrogens summed into heavy atoms:
              1
     1  O   -0.251166
     2  C    0.251166
     3  H    0.000000
     4  H    0.000000
 Sum of Mulliken charges=   0.00000
 APT atomic charges:
              1
     1  O   -0.560686
     2  C    0.704605
     3  H   -0.071963
     4  H   -0.071956
 Sum of APT charges=   0.00000
 APT Atomic charges with hydrogens summed into heavy atoms:
              1
     1  O   -0.560686
     2  C    0.560686
     3  H    0.000000
     4  H    0.000000
 Sum of APT charges=   0.00000
 Electronic spatial extent (au):  <R**2>=    61.9582
 Charge=     0.0000 electrons
 Dipole moment (field-independent basis, Debye):
    X=    -0.5481    Y=     0.3158    Z=    -2.1489  Tot=     2.2401
 Quadrupole moment (field-independent basis, Debye-Ang):
   XX=   -11.4808   YY=   -11.5429   ZZ=   -12.5219
   XY=    -0.0602   XZ=     0.0043   YZ=    -0.0174
 Traceless Quadrupole moment (field-independent basis, Debye-Ang):
   XX=     0.3678   YY=     0.3056   ZZ=    -0.6734
   XY=    -0.0602   XZ=     0.0043   YZ=    -0.0174
 Octapole moment (field-independent basis, Debye-Ang**2):
  XXX=     3.5929  YYY=    -2.1055  ZZZ=    -3.0736  XYY=     1.1901
  XXY=    -0.9591  XXZ=    -0.7390  XZZ=     0.9182  YZZ=    -0.6217
  YYZ=    -1.1724  XYZ=    -0.3546
 Hexadecapole moment (field-independent basis, Debye-Ang**3):
 XXXX=   -14.9703 YYYY=   -17.6586 ZZZZ=   -42.4918 XXXY=    -1.1220
 XXXZ=    -3.7424 YYYX=    -0.9158 YYYZ=     1.9332 ZZZX=    -3.9163
 ZZZY=     2.2204 XXYY=    -5.3733 XXZZ=    -9.3362 YYZZ=    -9.7436
 XXYZ=     0.8827 YYXZ=    -1.2449 ZZXY=    -0.3060
 N-N= 3.135594148244D+01 E-N=-3.319074196486D+02  KE= 1.141907273023D+02
  Exact polarizability:  10.163   2.389  13.099   2.652  -1.504  18.287
 Approx polarizability:  13.208   2.095  15.805   4.972  -2.840  29.810
 Use density number 0.
 Entering OneElI...
 Calculate overlap and kinetic energy integrals
    NBasis =  50  MinDer = 2  MaxDer = 2
 Requested accuracy = 0.1000D-12
 PrsmSu:  NPrtUS=   1 ThrOK=F
 PRISM was handed   131043823 working-precision words and   171 shell-pairs
 Entering OneElI...
 Calculate potential energy integrals
    NBasis =  50  MinDer = 2  MaxDer = 2
 Requested accuracy = 0.1000D-12
 PrsmSu:  NPrtUS=   8 ThrOK=T
 PRISM was handed    16375997 working-precision words and   171 shell-pairs
 PRISM was handed    16375997 working-precision words and   171 shell-pairs
 PRISM was handed    16375997 working-precision words and   171 shell-pairs
 PRISM was handed    16375997 working-precision words and   171 shell-pairs
 PRISM was handed    16375997 working-precision words and   171 shell-pairs
 PRISM was handed    16375997 working-precision words and   171 shell-pairs
 PRISM was handed    16375997 working-precision words and   171 shell-pairs
 PRISM was handed    16375997 working-precision words and   171 shell-pairs
 Polarizability after L701:
                1             2             3
      1  0.101629D+02
      2  0.238949D+01  0.130989D+02
      3  0.265236D+01 -0.150399D+01  0.182874D+02
 Dipole Derivatives after L701:
               1            2            3            4            5
      1-0.382500D+00-0.334354D-01-0.142940D+00 0.394823D+00 0.280293D+00
      2-0.334276D-01-0.424483D+00 0.818832D-01 0.280275D+00 0.738269D+00
      3-0.142952D+00 0.818793D-01-0.875076D+00 0.208639D+00-0.117484D+00
               6            7            8            9           10
      1 0.208636D+00 0.225123D-01-0.102859D+00 0.179731D-01-0.348357D-01
      2-0.117532D+00-0.109457D+00-0.186317D+00 0.108071D+00-0.137390D+00
      3 0.980724D+00 0.289407D-01 0.127609D+00-0.520842D-01-0.946277D-01
              11           12
      1-0.143998D+00-0.836689D-01
      2-0.127469D+00-0.724224D-01
      3-0.920042D-01-0.535645D-01
 Hessian after L701:
                1             2             3             4             5
      1  0.105762D+02
      2 -0.339479D+00  0.101314D+02
      3 -0.355145D+01  0.203874D+01 -0.194653D+01
      4 -0.107788D+02  0.524194D-01  0.360376D+01  0.144988D+02
      5  0.524164D-01 -0.106834D+02 -0.207131D+01 -0.116356D+01  0.130466D+02
      6  0.360378D+01 -0.207131D+01  0.209634D+01 -0.387723D+01  0.221887D+01
      7  0.482274D-01  0.114685D+00 -0.135465D+00 -0.209050D+01  0.402257D+00
      8  0.108480D+00  0.330416D+00 -0.177964D+00  0.431231D+00 -0.945172D+00
      9 -0.125161D+00 -0.159564D+00 -0.762659D-01 -0.339844D+00 -0.920683D+00
     10  0.154335D+00  0.172374D+00  0.831525D-01 -0.162951D+01  0.708885D+00
     11  0.178582D+00  0.221594D+00  0.210536D+00  0.679907D+00 -0.141805D+01
     12  0.728343D-01  0.192132D+00 -0.735448D-01  0.613310D+00  0.773124D+00
                6             7             8             9            10
      6  0.128328D+01
      7 -0.291725D+00  0.199584D+01
      8 -0.834801D+00 -0.310106D+00  0.834294D+00
      9 -0.169571D+01  0.443721D+00  0.104977D+01  0.159160D+01
     10  0.565177D+00  0.464347D-01 -0.229604D+00  0.212841D-01  0.142874D+01
     11  0.687237D+00 -0.206835D+00 -0.219538D+00  0.304818D-01 -0.651655D+00
     12 -0.168391D+01 -0.165306D-01 -0.370008D-01  0.180376D+00 -0.669614D+00
               11            12
     11  0.141600D+01
     12 -0.928255D+00  0.157708D+01
 ReadGW:  IGet=0 IStart=          42 Next=        1794 LGW=        1752.
 ICntrl=12127.
 Symmetry not used in FoFDir.
 MinBra= 0 MaxBra= 2 Meth= 1.
 IRaf=       0 NMat=   1 IRICut=       1 DoRegI=T DoRafI=F ISym2E= 0 JSym2E=0.
 PrsmSu:  NPrtUS=   8 ThrOK=T
 PRISM was handed    16375253 working-precision words and   171 shell-pairs
 PRISM was handed    16375253 working-precision words and   171 shell-pairs
 PRISM was handed    16375253 working-precision words and   171 shell-pairs
 PRISM was handed    16375253 working-precision words and   171 shell-pairs
 PRISM was handed    16375253 working-precision words and   171 shell-pairs
 PRISM was handed    16375253 working-precision words and   171 shell-pairs
 PRISM was handed    16375253 working-precision words and   171 shell-pairs
 PRISM was handed    16375253 working-precision words and   171 shell-pairs
 Pruned (  75, 302) grid will be used in CalDFT.
 CkSvGd:  ISavGI=        -1 IRadAn=       4 IRASav=       4 ISavGd=        -1.
 CalDSu:  NPrtUS=   8 ThrOK=T
 IPart= 0 IRanGd=          0 ScrnBf=T ScrnGd=T RCrit=4.00D+00 DoMicB=T.
 IPart= 2 IRanGd=          0 ScrnBf=T ScrnGd=T RCrit=4.00D+00 DoMicB=T.
 IPart= 5 IRanGd=          0 ScrnBf=T ScrnGd=T RCrit=4.00D+00 DoMicB=T.
 CutRad = 1000.00    CtRdIn =    0.00    XCrit =  15.00   ICut = 0
 IPart= 4 IRanGd=          0 ScrnBf=T ScrnGd=T RCrit=4.00D+00 DoMicB=T.
 CutRad = 1000.00    CtRdIn =    0.00    XCrit =  15.00   ICut = 0
 IPart= 1 IRanGd=          0 ScrnBf=T ScrnGd=T RCrit=4.00D+00 DoMicB=T.
 CutRad = 1000.00    CtRdIn =    0.00    XCrit =  15.00   ICut = 0
 IPart= 3 IRanGd=          0 ScrnBf=T ScrnGd=T RCrit=4.00D+00 DoMicB=T.
 CutRad = 1000.00    CtRdIn =    0.00    XCrit =  15.00   ICut = 0
 CutRad = 1000.00    CtRdIn =    0.00    XCrit =  15.00   ICut = 0
 CutRad = 1000.00    CtRdIn =    0.00    XCrit =  15.00   ICut = 0
 IPart= 7 IRanGd=          0 ScrnBf=T ScrnGd=T RCrit=4.00D+00 DoMicB=T.
 IPart= 6 IRanGd=          0 ScrnBf=T ScrnGd=T RCrit=4.00D+00 DoMicB=T.
 CutRad = 1000.00    CtRdIn =    0.00    XCrit =  15.00   ICut = 0
 CutRad = 1000.00    CtRdIn =    0.00    XCrit =  15.00   ICut = 0
 IPart= 7         5049 of         5422 points in      14 batches and       53 microbatches, Max-NSigAt=       4 Max-NSgAt2=       4
 IPart= 6         3817 of         3934 points in       8 batches and       26 microbatches, Max-NSigAt=       4 Max-NSgAt2=       4
 IPart= 0         5187 of         5654 points in      12 batches and       36 microbatches, Max-NSigAt=       4 Max-NSgAt2=       4
 IPart= 4         2656 of         2708 points in       5 batches and       17 microbatches, Max-NSigAt=       4 Max-NSgAt2=       4
 IPart= 5         3634 of         3820 points in       7 batches and       27 microbatches, Max-NSigAt=       4 Max-NSgAt2=       4
 IPart= 2         3451 of         3572 points in       7 batches and       29 microbatches, Max-NSigAt=       4 Max-NSgAt2=       4
 IPart= 3         2883 of         3000 points in       6 batches and       26 microbatches, Max-NSigAt=       4 Max-NSgAt2=       4
 IPart= 1         3347 of         3442 points in       6 batches and       18 microbatches, Max-NSigAt=       4 Max-NSgAt2=       4
 Polarizability after L703:
                1             2             3
      1  0.101629D+02
      2  0.238949D+01  0.130989D+02
      3  0.265236D+01 -0.150399D+01  0.182874D+02
 Dipole Derivatives after L703:
               1            2            3            4            5
      1-0.382500D+00-0.334354D-01-0.142940D+00 0.394823D+00 0.280293D+00
      2-0.334276D-01-0.424483D+00 0.818832D-01 0.280275D+00 0.738269D+00
      3-0.142952D+00 0.818793D-01-0.875076D+00 0.208639D+00-0.117484D+00
               6            7            8            9           10
      1 0.208636D+00 0.225123D-01-0.102859D+00 0.179731D-01-0.348357D-01
      2-0.117532D+00-0.109457D+00-0.186317D+00 0.108071D+00-0.137390D+00
      3 0.980724D+00 0.289407D-01 0.127609D+00-0.520842D-01-0.946277D-01
              11           12
      1-0.143998D+00-0.836689D-01
      2-0.127469D+00-0.724224D-01
      3-0.920042D-01-0.535645D-01
 Hessian after L703:
                1             2             3             4             5
      1  0.842546D-01
      2 -0.662653D-02  0.779347D-01
      3  0.204012D+00 -0.117274D+00  0.818524D+00
      4 -0.114048D+00  0.478698D-02 -0.174460D+00  0.318381D+00
      5  0.478750D-02 -0.109714D+00  0.100273D+00  0.140200D+00  0.490926D+00
      6 -0.174461D+00  0.100270D+00 -0.741455D+00  0.192097D+00 -0.109176D+00
      7  0.215794D-01  0.746144D-02 -0.582554D-02 -0.840639D-01 -0.609880D-01
      8  0.242913D-02  0.903011D-02  0.243658D-01 -0.622174D-01 -0.209212D+00
      9  0.253282D-02  0.392844D-01 -0.383593D-01  0.277636D-01  0.694478D-01
     10  0.821373D-02 -0.562188D-02 -0.237266D-01 -0.120269D+00 -0.839994D-01
     11 -0.590090D-03  0.227487D-01 -0.736488D-02 -0.827694D-01 -0.172000D+00
     12 -0.320842D-01 -0.222803D-01 -0.387097D-01 -0.454005D-01 -0.605449D-01
                6             7             8             9            10
      6  0.925641D+00
      7  0.257186D-01  0.528832D-01
      8  0.658036D-01  0.730630D-01  0.210601D+00
      9 -0.916273D-01 -0.226891D-01 -0.100691D+00  0.119567D+00
     10 -0.433548D-01  0.960138D-02 -0.132747D-01 -0.760734D-02  0.102454D+00
     11 -0.568974D-01 -0.195365D-01 -0.104187D-01 -0.804118D-02  0.102896D+00
     12 -0.925592D-01  0.279604D-02  0.105217D-01  0.104193D-01  0.746887D-01
               11            12
     11  0.159670D+00
     12  0.723035D-01  0.120850D+00
 FrcOut:
 IF    =   131 IFX   =   143 IFXYZ =   155
 IFFX  =   167 IFFFX =   245 IFLen =    12
 IFFLen=    78 IFFFLn=     0 IEDerv=   245
 LEDerv=   629 IFroze=   878 ICStrt=  5631
 DipoleDeriv   =-3.82499909D-01-3.34275919D-02-1.42952391D-01
                -3.34354048D-02-4.24482574D-01 8.18793499D-02
                -1.42939956D-01 8.18832471D-02-8.75075552D-01
                 3.94823324D-01 2.80274528D-01 2.08639379D-01
                 2.80292828D-01 7.38268798D-01-1.17483717D-01
                 2.08635815D-01-1.17531545D-01 9.80724201D-01
                 2.25123308D-02-1.09457192D-01 2.89407247D-02
                -1.02859098D-01-1.86317115D-01 1.27608569D-01
                 1.79730538D-02 1.08070666D-01-5.20841718D-02
                -3.48357464D-02-1.37389744D-01-9.46277120D-02
                -1.43998325D-01-1.27469109D-01-9.20042020D-02
                -8.36689131D-02-7.24223677D-02-5.35644772D-02
 Full mass-weighted force constant matrix:
 Low frequencies ---  -20.1836  -14.2301   -3.2226   -0.0006   -0.0001    0.0012
 Low frequencies --- 1201.9681 1269.9408 1538.9214
 Dipole derivatives wrt mode   1: -1.34413D+00  7.52928D-01  4.53650D-01
 Vibrational polarizability contributions from mode   1       0.0336533       0.0105598       0.0038334
 Vibrational hyperpolarizability contributions from mode   1       0.0000000       0.0000000       0.0000000
 Dipole derivatives wrt mode   2: -1.87567D+00 -3.33984D+00 -1.19395D-02
 Vibrational polarizability contributions from mode   2       0.0587058       0.1861302       0.0000024
 Vibrational hyperpolarizability contributions from mode   2       0.0000000       0.0000000       0.0000000
 Dipole derivatives wrt mode   3:  6.90659D-01 -3.96301D-01  2.70568D+00
 Vibrational polarizability contributions from mode   3       0.0054203       0.0017846       0.0831865
 Vibrational hyperpolarizability contributions from mode   3       0.0000000       0.0000000       0.0000000
 Dipole derivatives wrt mode   4: -2.57143D+00  1.48199D+00 -1.00808D+01
 Vibrational polarizability contributions from mode   4       0.0533257       0.0177125       0.8195465
 Vibrational hyperpolarizability contributions from mode   4       0.0000000       0.0000000       0.0000000
 Dipole derivatives wrt mode   5:  1.99155D+00 -1.09094D+00  7.71229D+00
 Vibrational polarizability contributions from mode   5       0.0129557       0.0038875       0.1942872
 Vibrational hyperpolarizability contributions from mode   5       0.0000000       0.0000000       0.0000000
 Dipole derivatives wrt mode   6:  6.36744D+00  1.13551D+01  1.27875D-02
 Vibrational polarizability contributions from mode   6       0.1279925       0.4070370       0.0000005
 Vibrational hyperpolarizability contributions from mode   6       0.0000000       0.0000000       0.0000000
 Diagonal vibrational polarizability:
        0.2920533       0.6271117       1.1008566
 Harmonic frequencies (cm**-1), IR intensities (KM/Mole), Raman scattering
 activities (A**4/AMU), depolarization ratios for plane and unpolarized
 incident light, reduced masses (AMU), force constants (mDyne/A),
 and normal coordinates:
                           1         2         3         4         5
                           A         A         A         A         A
       Frequencies ---  1201.9681 1269.9408 1538.9214 1826.7240 2870.3038
    Reduced masses ---     1.3706    1.3461    1.1067    7.4328    1.0428
   Force constants ---     1.1666    1.2791    1.5443   14.6133    5.0619
    IR Intensities ---     2.5794   14.6728    7.9548  110.4302   64.6358
 Coord Atom Element:
   1     1     8         -0.03620   0.03904  -0.01985   0.10172   0.00053
   2     1     8          0.02029   0.06952   0.01143  -0.05860  -0.00030
   3     1     8          0.01221   0.00024  -0.07780   0.39880   0.00206
   1     2     6          0.14603  -0.07281   0.00135  -0.14453   0.01397
   2     2     6         -0.08184  -0.12964  -0.00076   0.08326  -0.00763
   3     2     6         -0.04927  -0.00047   0.00527  -0.56662   0.05408
   1     3     1         -0.58209   0.28262   0.32157   0.26771   0.21245
   2     3     1          0.32622   0.12853   0.22028   0.35117   0.58085
   3     3     1          0.19646   0.62408   0.58709   0.21025  -0.33499
   1     4     1         -0.58210  -0.03529  -0.02263  -0.16126  -0.38719
   2     4     1          0.32620   0.31168  -0.39263  -0.41252  -0.48525
   3     4     1          0.19643  -0.62231   0.58491   0.20721  -0.34160
                           6
                           A
       Frequencies ---  2919.7071
    Reduced masses ---     1.1205
   Force constants ---     5.6277
    IR Intensities ---   169.4820
 Coord Atom Element:
   1     1     8         -0.00031
   2     1     8         -0.00054
   3     1     8         -0.00001
   1     2     6          0.04952
   2     2     6          0.08830
   3     2     6          0.00012
   1     3     1         -0.20283
   2     3     1         -0.57580
   3     3     1          0.35514
   1     4     1         -0.38195
   2     4     1         -0.46697
   3     4     1         -0.35637
 Harmonic frequencies (cm**-1), IR intensities (KM/Mole), Raman scattering
 activities (A**4/AMU), depolarization ratios for plane and unpolarized
 incident light, reduced masses (AMU), force constants (mDyne/A),
 and normal coordinates:
                     1                      2                      3
                     A                      A                      A
 Frequencies --  1201.9681              1269.9408              1538.9214
 Red. masses --     1.3706                 1.3461                 1.1067
 Frc consts  --     1.1666                 1.2791                 1.5443
 IR Inten    --     2.5794                14.6728                 7.9548
 Atom AN      X      Y      Z        X      Y      Z        X      Y      Z
   1   8    -0.04   0.02   0.01     0.04   0.07   0.00    -0.02   0.01  -0.08
   2   6     0.15  -0.08  -0.05    -0.07  -0.13   0.00     0.00   0.00   0.01
   3   1    -0.58   0.33   0.20     0.28   0.13   0.62     0.32   0.22   0.59
   4   1    -0.58   0.33   0.20    -0.04   0.31  -0.62    -0.02  -0.39   0.58
                     4                      5                      6
                     A                      A                      A
 Frequencies --  1826.7240              2870.3038              2919.7071
 Red. masses --     7.4328                 1.0428                 1.1205
 Frc consts  --    14.6133                 5.0619                 5.6277
 IR Inten    --   110.4302                64.6358               169.4820
 Atom AN      X      Y      Z        X      Y      Z        X      Y      Z
   1   8     0.10  -0.06   0.40     0.00   0.00   0.00     0.00   0.00   0.00
   2   6    -0.14   0.08  -0.57     0.01  -0.01   0.05     0.05   0.09   0.00
   3   1     0.27   0.35   0.21     0.21   0.58  -0.33    -0.20  -0.58   0.36
   4   1    -0.16  -0.41   0.21    -0.39  -0.49  -0.34    -0.38  -0.47  -0.36

 -------------------
 - Thermochemistry -
 -------------------
 Temperature   298.150 Kelvin.  Pressure   1.00000 Atm.
 Atom  1 has atomic number  8 and mass  15.99491
 Atom  2 has atomic number  6 and mass  12.00000
 Atom  3 has atomic number  1 and mass   1.00783
 Atom  4 has atomic number  1 and mass   1.00783
 Molecular mass:    30.01056 amu.
 Principal axes and moments of inertia in atomic units:
                           1         2         3
     EIGENVALUES --     6.34149  46.22005  52.56154
           X            0.24469   0.48968   0.83686
           Y           -0.14098   0.87190  -0.46896
           Z            0.95930   0.00323  -0.28238
 This molecule is an asymmetric top.
 Rotational symmetry number  1.
 Rotational temperatures (Kelvin)     13.65827     1.87394     1.64786
 Rotational constants (GHZ):         284.59249    39.04672    34.33577
 Zero-point vibrational energy      69548.3 (Joules/Mol)
                                   16.62244 (Kcal/Mol)
 Vibrational temperatures:   1729.36  1827.16  2214.16  2628.25  4129.72
          (Kelvin)           4200.80
 
 Zero-point correction=                           0.026490 (Hartree/Particle)
 Thermal correction to Energy=                    0.029357
 Thermal correction to Enthalpy=                  0.030301
 Thermal correction to Gibbs Free Energy=         0.004834
 Sum of electronic and zero-point Energies=           -114.509852
 Sum of electronic and thermal Energies=              -114.506984
 Sum of electronic and thermal Enthalpies=            -114.506040
 Sum of electronic and thermal Free Energies=         -114.531507
 
                     E (Thermal)             CV                S
                      KCal/Mol        Cal/Mol-Kelvin    Cal/Mol-Kelvin
 Total                   18.422              6.418             53.599
 Electronic               0.000              0.000              0.000
 Translational            0.889              2.981             36.130
 Rotational               0.889              2.981             17.384
 Vibrational             16.644              0.456              0.085
                       Q            Log10(Q)             Ln(Q)
 Total Bot       0.597486D-02         -2.223672         -5.120194
 Total V=0       0.913368D+10          9.960646         22.935235
 Vib (Bot)       0.658067D-12        -12.181730        -28.049470
 Vib (V=0)       0.100598D+01          0.002588          0.005960
 Electronic      0.100000D+01          0.000000          0.000000
 Translational   0.646199D+07          6.810366         15.681448
 Rotational      0.140505D+04          3.147691          7.247827
 -------------------------------------------------------------------
 Center     Atomic                   Forces (Hartrees/Bohr)
 Number     Number              X              Y              Z
 -------------------------------------------------------------------
    1          8          -0.000019788    0.000008525   -0.000058602
    2          6           0.000041346   -0.000023930    0.000162152
    3          1           0.000005207    0.000036338   -0.000049479
    4          1          -0.000026765   -0.000020933   -0.000054071
 -------------------------------------------------------------------
 Cartesian Forces:  Max     0.000162152 RMS     0.000057986
 ------------------------------------------------------------------------
           Internal Coordinate Forces (Hartree/Bohr or radian)
 Cent Atom N1     Length/X     N2     Alpha/Y      N3      Beta/Z       J
 ------------------------------------------------------------------------
   1  O        -0.000020(   1)      0.000009(   5)     -0.000059(   9)
   2  C         0.000041(   2)     -0.000024(   6)      0.000162(  10)
   3  H         0.000005(   3)      0.000036(   7)     -0.000049(  11)
   4  H        -0.000027(   4)     -0.000021(   8)     -0.000054(  12)
 ------------------------------------------------------------------------
 Internal  Forces:  Max     0.000162152 RMS     0.000057986
 Force constants in Cartesian coordinates: 
                1             2             3             4             5
      1  0.842546D-01
      2 -0.662653D-02  0.779347D-01
      3  0.204012D+00 -0.117274D+00  0.818524D+00
      4 -0.114048D+00  0.478698D-02 -0.174460D+00  0.318381D+00
      5  0.478750D-02 -0.109714D+00  0.100273D+00  0.140200D+00  0.490926D+00
      6 -0.174461D+00  0.100270D+00 -0.741455D+00  0.192097D+00 -0.109176D+00
      7  0.215794D-01  0.746144D-02 -0.582554D-02 -0.840639D-01 -0.609880D-01
      8  0.242913D-02  0.903011D-02  0.243658D-01 -0.622174D-01 -0.209212D+00
      9  0.253282D-02  0.392844D-01 -0.383593D-01  0.277636D-01  0.694478D-01
     10  0.821373D-02 -0.562188D-02 -0.237266D-01 -0.120269D+00 -0.839994D-01
     11 -0.590090D-03  0.227487D-01 -0.736488D-02 -0.827694D-01 -0.172000D+00
     12 -0.320842D-01 -0.222803D-01 -0.387097D-01 -0.454005D-01 -0.605449D-01
                6             7             8             9            10
      6  0.925641D+00
      7  0.257186D-01  0.528832D-01
      8  0.658036D-01  0.730630D-01  0.210601D+00
      9 -0.916273D-01 -0.226891D-01 -0.100691D+00  0.119567D+00
     10 -0.433548D-01  0.960138D-02 -0.132747D-01 -0.760734D-02  0.102454D+00
     11 -0.568974D-01 -0.195365D-01 -0.104187D-01 -0.804118D-02  0.102896D+00
     12 -0.925592D-01  0.279604D-02  0.105217D-01  0.104193D-01  0.746887D-01
               11            12
     11  0.159670D+00
     12  0.723035D-01  0.120850D+00
 FCInt: Cartesian first derivatives: 
               1            2            3            4
      1-0.197880D-04 0.413463D-04 0.520711D-05-0.267654D-04
      2 0.852547D-05-0.239304D-04 0.363379D-04-0.209330D-04
      3-0.586025D-04 0.162152D-03-0.494789D-04-0.540708D-04
 FCInt: Cartesian force constants: 
                1             2             3             4             5
      1  0.842546D-01
      2 -0.662653D-02  0.779347D-01
      3  0.204012D+00 -0.117274D+00  0.818524D+00
      4 -0.114048D+00  0.478698D-02 -0.174460D+00  0.318381D+00
      5  0.478750D-02 -0.109714D+00  0.100273D+00  0.140200D+00  0.490926D+00
      6 -0.174461D+00  0.100270D+00 -0.741455D+00  0.192097D+00 -0.109176D+00
      7  0.215794D-01  0.746144D-02 -0.582554D-02 -0.840639D-01 -0.609880D-01
      8  0.242913D-02  0.903011D-02  0.243658D-01 -0.622174D-01 -0.209212D+00
      9  0.253282D-02  0.392844D-01 -0.383593D-01  0.277636D-01  0.694478D-01
     10  0.821373D-02 -0.562188D-02 -0.237266D-01 -0.120269D+00 -0.839994D-01
     11 -0.590090D-03  0.227487D-01 -0.736488D-02 -0.827694D-01 -0.172000D+00
     12 -0.320842D-01 -0.222803D-01 -0.387097D-01 -0.454005D-01 -0.605449D-01
                6             7             8             9            10
      6  0.925641D+00
      7  0.257186D-01  0.528832D-01
      8  0.658036D-01  0.730630D-01  0.210601D+00
      9 -0.916273D-01 -0.226891D-01 -0.100691D+00  0.119567D+00
     10 -0.433548D-01  0.960138D-02 -0.132747D-01 -0.760734D-02  0.102454D+00
     11 -0.568974D-01 -0.195365D-01 -0.104187D-01 -0.804118D-02  0.102896D+00
     12 -0.925592D-01  0.279604D-02  0.105217D-01  0.104193D-01  0.746887D-01
               11            12
     11  0.159670D+00
     12  0.723035D-01  0.120850D+00
 Internal force constants: 
                1             2             3             4             5
      1  0.842546D-01
      2 -0.114048D+00  0.318381D+00
      3  0.215794D-01 -0.840639D-01  0.528832D-01
      4  0.821373D-02 -0.120269D+00  0.960138D-02  0.102454D+00
      5 -0.662653D-02  0.478698D-02  0.746144D-02 -0.562188D-02  0.779347D-01
      6  0.478750D-02  0.140200D+00 -0.609880D-01 -0.839994D-01 -0.109714D+00
      7  0.242913D-02 -0.622174D-01  0.730630D-01 -0.132747D-01  0.903011D-02
      8 -0.590090D-03 -0.827694D-01 -0.195365D-01  0.102896D+00  0.227487D-01
      9  0.204012D+00 -0.174460D+00 -0.582554D-02 -0.237266D-01 -0.117274D+00
     10 -0.174461D+00  0.192097D+00  0.257186D-01 -0.433548D-01  0.100270D+00
     11  0.253282D-02  0.277636D-01 -0.226891D-01 -0.760734D-02  0.392844D-01
     12 -0.320842D-01 -0.454005D-01  0.279604D-02  0.746887D-01 -0.222803D-01
                6             7             8             9            10
      6  0.490926D+00
      7 -0.209212D+00  0.210601D+00
      8 -0.172000D+00 -0.104187D-01  0.159670D+00
      9  0.100273D+00  0.243658D-01 -0.736488D-02  0.818524D+00
     10 -0.109176D+00  0.658036D-01 -0.568974D-01 -0.741455D+00  0.925641D+00
     11  0.694478D-01 -0.100691D+00 -0.804118D-02 -0.383593D-01 -0.916273D-01
     12 -0.605449D-01  0.105217D-01  0.723035D-01 -0.387097D-01 -0.925592D-01
               11            12
     11  0.119567D+00
     12  0.104193D-01  0.120850D+00
 Force constants in internal coordinates: 
                1             2             3             4             5
      1  0.842546D-01
      2 -0.114048D+00  0.318381D+00
      3  0.215794D-01 -0.840639D-01  0.528832D-01
      4  0.821373D-02 -0.120269D+00  0.960138D-02  0.102454D+00
      5 -0.662653D-02  0.478698D-02  0.746144D-02 -0.562188D-02  0.779347D-01
      6  0.478750D-02  0.140200D+00 -0.609880D-01 -0.839994D-01 -0.109714D+00
      7  0.242913D-02 -0.622174D-01  0.730630D-01 -0.132747D-01  0.903011D-02
      8 -0.590090D-03 -0.827694D-01 -0.195365D-01  0.102896D+00  0.227487D-01
      9  0.204012D+00 -0.174460D+00 -0.582554D-02 -0.237266D-01 -0.117274D+00
     10 -0.174461D+00  0.192097D+00  0.257186D-01 -0.433548D-01  0.100270D+00
     11  0.253282D-02  0.277636D-01 -0.226891D-01 -0.760734D-02  0.392844D-01
     12 -0.320842D-01 -0.454005D-01  0.279604D-02  0.746887D-01 -0.222803D-01
                6             7             8             9            10
      6  0.490926D+00
      7 -0.209212D+00  0.210601D+00
      8 -0.172000D+00 -0.104187D-01  0.159670D+00
      9  0.100273D+00  0.243658D-01 -0.736488D-02  0.818524D+00
     10 -0.109176D+00  0.658036D-01 -0.568974D-01 -0.741455D+00  0.925641D+00
     11  0.694478D-01 -0.100691D+00 -0.804118D-02 -0.383593D-01 -0.916273D-01
     12 -0.605449D-01  0.105217D-01  0.723035D-01 -0.387097D-01 -0.925592D-01
               11            12
     11  0.119567D+00
     12  0.104193D-01  0.120850D+00
 Final forces over variables, Energy=-1.14536341D+02:
 -1.97880425D-05 4.13463239D-05 5.20710540D-06-2.67653868D-05
  8.52546543D-06-2.39304115D-05 3.63379100D-05-2.09329640D-05
 -5.86024527D-05 1.62152168D-04-4.94788977D-05-5.40708175D-05

 GradGradGradGradGradGradGradGradGradGradGradGradGradGradGradGradGradGrad
 Berny optimization.
 Search for a local minimum.
 Step number   1 out of a maximum of   2
 All quantities printed in internal units (Hartrees-Bohrs-Radians)
 Second derivative matrix not updated -- analytic derivatives used.
 The second derivative matrix:
                          X1        Y1        Z1        X2        Y2
           X1           0.08425
           Y1          -0.00663   0.07793
           Z1           0.20401  -0.11727   0.81852
           X2          -0.11405   0.00479  -0.17446   0.31838
           Y2           0.00479  -0.10971   0.10027   0.14020   0.49093
           Z2          -0.17446   0.10027  -0.74145   0.19210  -0.10918
           X3           0.02158   0.00746  -0.00583  -0.08406  -0.06099
           Y3           0.00243   0.00903   0.02437  -0.06222  -0.20921
           Z3           0.00253   0.03928  -0.03836   0.02776   0.06945
           X4           0.00821  -0.00562  -0.02373  -0.12027  -0.08400
           Y4          -0.00059   0.02275  -0.00736  -0.08277  -0.17200
           Z4          -0.03208  -0.02228  -0.03871  -0.04540  -0.06054
                          Z2        X3        Y3        Z3        X4
           Z2           0.92564
           X3           0.02572   0.05288
           Y3           0.06580   0.07306   0.21060
           Z3          -0.09163  -0.02269  -0.10069   0.11957
           X4          -0.04335   0.00960  -0.01327  -0.00761   0.10245
           Y4          -0.05690  -0.01954  -0.01042  -0.00804   0.10290
           Z4          -0.09256   0.00280   0.01052   0.01042   0.07469
                          Y4        Z4
           Y4           0.15967
           Z4           0.07230   0.12085
     Eigenvalues ---    0.12238   0.14609   0.19478   0.35583   0.70899
     Eigenvalues ---    1.74260
 Angle between quadratic step and forces=  52.06 degrees.
 Linear search not attempted -- first point.
 TrRot=  0.000020 -0.000011  0.000079  0.000000  0.000001  0.000000
 Variable       Old X    -DE/DX   Delta X   Delta X   Delta X     New X
                                 (Linear)    (Quad)   (Total)
    X1        0.14194  -0.00002   0.00000   0.00002   0.00004   0.14197
    Y1       -0.06885   0.00001   0.00000   0.00000  -0.00002  -0.06887
    Z1        1.43775  -0.00006   0.00000   0.00005   0.00013   1.43787
    X2       -0.41293   0.00004   0.00000   0.00003   0.00005  -0.41287
    Y2        0.25083  -0.00002   0.00000  -0.00002  -0.00003   0.25080
    Z2       -0.73762   0.00016   0.00000   0.00016   0.00024  -0.73738
    X3        0.18177   0.00001   0.00000  -0.00007  -0.00005   0.18171
    Y3        1.95511   0.00004   0.00000   0.00002   0.00001   1.95512
    Z3       -1.80544  -0.00005   0.00000  -0.00025  -0.00018  -1.80562
    X4       -1.55533  -0.00003   0.00000  -0.00006  -0.00004  -1.55537
    Y4       -1.13792  -0.00002   0.00000   0.00005   0.00004  -1.13788
    Z4       -1.81683  -0.00005   0.00000  -0.00027  -0.00019  -1.81702
         Item               Value     Threshold  Converged?
 Maximum Force            0.000162     0.000450     YES
 RMS     Force            0.000058     0.000300     YES
 Maximum Displacement     0.000237     0.001800     YES
 RMS     Displacement     0.000112     0.001200     YES
 Predicted change in Energy=-2.597930D-08
 Optimization completed.
    -- Stationary point found.
 GradGradGradGradGradGradGradGradGradGradGradGradGradGradGradGradGradGrad


 Test job not archived.
 1\1\GINC-NODE33\Freq\RB3LYP\CBSB7\C1H2O1\NYEE\26-Aug-2014\0\\# freq no
 symm b3lyp/cbsb7 iop(7/33=1)\\Title Card Required\\0,1\O,0.075109,-0.0
 36436,0.760822\C,-0.218512,0.132736,-0.390332\H,0.096186,1.034602,-0.9
 55398\H,-0.823047,-0.602162,-0.961424\\Version=AM64L-G03RevD.01\HF=-11
 4.5363412\RMSD=8.404e-09\RMSF=5.799e-05\ZeroPoint=0.0264895\Thermal=0.
 0293568\Dipole=-0.2156456,0.1242462,-0.8454358\DipoleDeriv=-0.3824999,
 -0.0334276,-0.1429524,-0.0334354,-0.4244826,0.0818793,-0.14294,0.08188
 32,-0.8750756,0.3948233,0.2802745,0.2086394,0.2802928,0.7382688,-0.117
 4837,0.2086358,-0.1175315,0.9807242,0.0225123,-0.1094572,0.0289407,-0.
 1028591,-0.1863171,0.1276086,0.0179731,0.1080707,-0.0520842,-0.0348357
 ,-0.1373897,-0.0946277,-0.1439983,-0.1274691,-0.0920042,-0.0836689,-0.
 0724224,-0.0535645\Polar=10.1629409,2.3894853,13.0989399,2.6523604,-1.
 5039895,18.2873843\PG=C01 [X(C1H2O1)]\NImag=0\\0.08425458,-0.00662653,
 0.07793469,0.20401195,-0.11727407,0.81852359,-0.11404767,0.00478698,-0
 .17445978,0.31838051,0.00478750,-0.10971352,0.10027317,0.14019990,0.49
 092597,-0.17446052,0.10026989,-0.74145457,0.19209672,-0.10917609,0.925
 64106,0.02157937,0.00746144,-0.00582554,-0.08406391,-0.06098798,0.0257
 1857,0.05288316,0.00242913,0.00903011,0.02436578,-0.06221744,-0.209212
 44,0.06580363,0.07306302,0.21060107,0.00253282,0.03928444,-0.03835933,
 0.02776358,0.06944784,-0.09162735,-0.02268907,-0.10069110,0.11956739,0
 .00821373,-0.00562188,-0.02372663,-0.12026893,-0.08399941,-0.04335476,
 0.00960138,-0.01327472,-0.00760734,0.10245383,-0.00059009,0.02274871,-
 0.00736488,-0.08276944,-0.17200001,-0.05689742,-0.01953648,-0.01041874
 ,-0.00804118,0.10289601,0.15967004,-0.03208425,-0.02228026,-0.03870969
 ,-0.04540053,-0.06054491,-0.09255915,0.00279604,0.01052169,0.01041929,
 0.07468873,0.07230348,0.12084955\\0.00001979,-0.00000853,0.00005860,-0
 .00004135,0.00002393,-0.00016215,-0.00000521,-0.00003634,0.00004948,0.
 00002677,0.00002093,0.00005407\\\@


                                                                                    A
                                                                                  AA
                                                                                 AAA
                                                                                AAAA
                                                                               AAAAA
                                                                              AAAAAA   KKKKKKKK
                                                                             AAAAAAA   KKKKKKKK
                                                                            AAAAAAAA   KKKKKKKK
                                       ZZZZZZZZZZZZZZZZZZZZ                AAAA  AAA   KKKKKKKK
                                       ZZZZZZZZZZZZZZZZZZZ                AAAA   AAA   KKKKKKKK          K
                                       ZZZZZZZZZZZZZZZZZZ                AAAA    AAA   KKKKKKKK         KKK
                                       ZZZZZZZZZZZZZZZZZ                AAAA     AAA   KKKKKKKK        KKKKK
                                       ZZZZZZZZZZZZZZZZ                AAAA      AAA   KKKKKKKK       KKKKKKK
                                                ZZZZZZ                AAAA       AAA   KKKKKKKK      KKKKKKK
                                               ZZZZZZ                AAAA        AAA   KKKKKKKK     KKKKKKK
                                              ZZZZZZ                AAAA         AAA   KKKKKKKK    KKKKKKK
                                             ZZZZZZ                AAAA          AAA   KKKKKKKK   KKKKKKK
                                            ZZZZZZ                AAAAAAAAAAAAAAAAAA   KKKKKKKK  KKKKKKK
                                           ZZZZZZ                AAAAAAAAAAAAAAAAAAA   KKKKKKKK KKKKKKK
                                          ZZZZZZ                AAAAAAAAAAAAAAAAAAAA   KKKKKKKKKKKKKKK
                                         ZZZZZZ                AAAAAAAAAAAAAAAAAAAAA   KKKKKKKKKKKKKK
                                        ZZZZZZ                AAAAAA        AAAAAAAA   KKKKKKKKKKKKK
                                       ZZZZZZ                AAAAAA         AAAAAAAA   KKKKKKKKKKKK
                                      ZZZZZZ                AAAAAA          AAAAAAAA   KKKKKKKKKKK
                                     ZZZZZZ                AAAAAA           AAAAAAAA   KKKKKKKKKKKK
                                    ZZZZZZ                AAAAAA            AAAAAAAA   KKKKKKKKKKKKK
                                   ZZZZZZ                AAAAAA             AAAAAAAA   KKKKKKKKKKKKKK
                                  ZZZZZZ                AAAAAA              AAAAAAAA   KKKKKKKKKKKKKKK
                                 ZZZZZZ                AAAAAA               AAAAAAAA   KKKKK KKKKKKKKKK
                                ZZZZZZ                AAAAAA                AAAAAAAA   KKKKK  KKKKKKKKKK
                               ZZZZZZ                AAAAAA                            KKKKK   KKKKKKKKKK
                              ZZZZZZ                AAAAAA                             KKKKK    KKKKKKKKKK
                             ZZZZZZ                                                    KKKKK     KKKKKKKKKK
                            ZZZZZZ                                                     KKKKK      KKKKKKKKKK
                           ZZZZZZ                                                      KKKKK       KKKKKKKKKK
                          ZZZZZZ                                                       KKKKK        KKKKKKKKKK
                         ZZZZZZZZZZZZZZZZZZZZZZZZZZZZZZZZZZZZZZZZ                      KKKKK         KKKKKKKKKK
                        ZZZZZZZZZZZZZZZZZZZZZZZZZZZZZZZZZZZZZZZZZ                      KKKKK          KKKKKKKKKK
                       ZZZZZZZZZZZZZZZZZZZZZZZZZZZZZZZZZZZZZZZZZZ                      KKKKK           KKKKKKKKKK
                       ZZZZZZZZZZZZZZZZZZZZZZZZZZZZZZZZZZZZZZZZZZ                      KKKKK            KKKKKKKKKK
                       ZZZZZZZZZZZZZZZZZZZZZZZZZZZZZZZZZZZZZZZZZZ                      KKKKK             KKKKKKKKKK
                       ZZZZZZZZZZZZZZZZZZZZZZZZZZZZZZZZZZZZZZZZZZ                      KKKKK              KKKKKKKKKK
                       ZZZZZZZZZZZZZZZZZZZZZZZZZZZZZZZZZZZZZZZZZZ                      KKKKK               KKKKKKKKKK
                       ZZZZZZZZZZZZZZZZZZZZZZZZZZZZZZZZZZZZZZZZZZ                      KKKKK                KKKKKKKKKK
                       ZZZZZZZZZZZZZZZZZZZZZZZZZZZZZZZZZZZZZZZZZZ                      KKKKK
                                                                                       KKKKK
                                                                                          (J.P.)
 Job cpu time:  0 days  0 hours  2 minutes 58.5 seconds.
 File lengths (MBytes):  RWF=     13 Int=      0 D2E=      0 Chk=      6 Scr=      1
 Normal termination of Gaussian 03 at Tue Aug 26 18:56:03 2014.
