 Entering Gaussian System, Link 0=g03
 Input=p9freq.gjf
 Output=p9freq.log
 Initial command:
 /opt/g03/l1.exe /scratch/nyee/Gau-10464.inp -scrdir=/scratch/nyee/
 Entering Link 1 = /opt/g03/l1.exe PID=     10466.
  
 Copyright (c) 1988,1990,1992,1993,1995,1998,2003,2004, Gaussian, Inc.
                  All Rights Reserved.
  
 This is the Gaussian(R) 03 program.  It is based on the
 the Gaussian(R) 98 system (copyright 1998, Gaussian, Inc.),
 the Gaussian(R) 94 system (copyright 1995, Gaussian, Inc.),
 the Gaussian 92(TM) system (copyright 1992, Gaussian, Inc.),
 the Gaussian 90(TM) system (copyright 1990, Gaussian, Inc.),
 the Gaussian 88(TM) system (copyright 1988, Gaussian, Inc.),
 the Gaussian 86(TM) system (copyright 1986, Carnegie Mellon
 University), and the Gaussian 82(TM) system (copyright 1983,
 Carnegie Mellon University). Gaussian is a federally registered
 trademark of Gaussian, Inc.
  
 This software contains proprietary and confidential information,
 including trade secrets, belonging to Gaussian, Inc.
  
 This software is provided under written license and may be
 used, copied, transmitted, or stored only in accord with that
 written license.
  
 The following legend is applicable only to US Government
 contracts under FAR:
  
                    RESTRICTED RIGHTS LEGEND
  
 Use, reproduction and disclosure by the US Government is
 subject to restrictions as set forth in subparagraphs (a)
 and (c) of the Commercial Computer Software - Restricted
 Rights clause in FAR 52.227-19.
  
 Gaussian, Inc.
 340 Quinnipiac St., Bldg. 40, Wallingford CT 06492
  
  
 ---------------------------------------------------------------
 Warning -- This program may not be used in any manner that
 competes with the business of Gaussian, Inc. or will provide
 assistance to any competitor of Gaussian, Inc.  The licensee
 of this program is prohibited from giving any competitor of
 Gaussian, Inc. access to this program.  By using this program,
 the user acknowledges that Gaussian, Inc. is engaged in the
 business of creating and licensing software in the field of
 computational chemistry and represents and warrants to the
 licensee that it is not a competitor of Gaussian, Inc. and that
 it will not use this program in any manner prohibited above.
 ---------------------------------------------------------------
  

 Cite this work as:
 Gaussian 03, Revision D.01,
 M. J. Frisch, G. W. Trucks, H. B. Schlegel, G. E. Scuseria, 
 M. A. Robb, J. R. Cheeseman, J. A. Montgomery, Jr., T. Vreven, 
 K. N. Kudin, J. C. Burant, J. M. Millam, S. S. Iyengar, J. Tomasi, 
 V. Barone, B. Mennucci, M. Cossi, G. Scalmani, N. Rega, 
 G. A. Petersson, H. Nakatsuji, M. Hada, M. Ehara, K. Toyota, 
 R. Fukuda, J. Hasegawa, M. Ishida, T. Nakajima, Y. Honda, O. Kitao, 
 H. Nakai, M. Klene, X. Li, J. E. Knox, H. P. Hratchian, J. B. Cross, 
 V. Bakken, C. Adamo, J. Jaramillo, R. Gomperts, R. E. Stratmann, 
 O. Yazyev, A. J. Austin, R. Cammi, C. Pomelli, J. W. Ochterski, 
 P. Y. Ayala, K. Morokuma, G. A. Voth, P. Salvador, J. J. Dannenberg, 
 V. G. Zakrzewski, S. Dapprich, A. D. Daniels, M. C. Strain, 
 O. Farkas, D. K. Malick, A. D. Rabuck, K. Raghavachari, 
 J. B. Foresman, J. V. Ortiz, Q. Cui, A. G. Baboul, S. Clifford, 
 J. Cioslowski, B. B. Stefanov, G. Liu, A. Liashenko, P. Piskorz, 
 I. Komaromi, R. L. Martin, D. J. Fox, T. Keith, M. A. Al-Laham, 
 C. Y. Peng, A. Nanayakkara, M. Challacombe, P. M. W. Gill, 
 B. Johnson, W. Chen, M. W. Wong, C. Gonzalez, and J. A. Pople, 
 Gaussian, Inc., Wallingford CT, 2004.
 
 ******************************************
 Gaussian 03:  AM64L-G03RevD.01 13-Oct-2005
                10-Jun-2013 
 ******************************************
 %chk=p9freq.chk
 %mem=1000mb
 %nproc=8
 Will use up to    8 processors via shared memory.
 -------------------------------------
 # freq nosymm b3lyp/cbsb7 iop(7/33=1)
 -------------------------------------
 1/10=4,30=1,38=1/1,3;
 2/15=1,17=6,18=5,40=1/2;
 3/5=4,6=6,7=700,11=2,16=1,25=1,30=1,74=-5/1,2,3;
 4//1;
 5/5=2,38=5/2;
 8/6=4,10=90,11=11/1;
 11/6=1,8=1,9=11,15=111,16=1,31=1/1,2,10;
 10/6=1,31=1/2;
 6/7=2,8=2,9=2,10=2,18=1,28=1/1;
 7/8=1,10=1,25=1,30=1,33=1/1,2,3,16;
 1/10=4,30=1/3;
 99//99;
 -------------------
 Title Card Required
 -------------------
 Symbolic Z-matrix:
 Charge =  0 Multiplicity = 2
 C                    -1.99009   0.95429   0.27709 
 C                    -1.71359   1.60866   1.58555 
 H                    -2.45609   2.26456   2.01856 
 H                    -0.732     1.53411   2.03587 
 C                    -1.22777  -0.35698   0.10366 
 H                    -1.56206  -1.09187   0.84008 
 H                    -1.3907   -0.76865  -0.89352 
 H                    -0.15679  -0.19257   0.2471 
 O                    -1.5007    1.96576  -0.67898 
 O                    -1.68161   1.47339  -2.05114 
 H                    -0.75815   1.35568  -2.31015 
 C                    -3.50105   0.78939   0.03928 
 H                    -3.92258   0.12987   0.80162 
 H                    -3.65258   0.32665  -0.94328 
 O                    -4.18421   2.02533   0.13869 
 H                    -3.72311   2.63367  -0.45205 
 

 GradGradGradGradGradGradGradGradGradGradGradGradGradGradGradGradGradGrad
 Berny optimization.
 Initialization pass.
 Trust Radius=3.00D-01 FncErr=1.00D-07 GrdErr=1.00D-07
 Number of steps in this run=   2 maximum allowed number of steps=   2.
 GradGradGradGradGradGradGradGradGradGradGradGradGradGradGradGradGradGrad

                          Input orientation:                          
 ---------------------------------------------------------------------
 Center     Atomic     Atomic              Coordinates (Angstroms)
 Number     Number      Type              X           Y           Z
 ---------------------------------------------------------------------
    1          6             0       -1.990087    0.954287    0.277089
    2          6             0       -1.713586    1.608663    1.585550
    3          1             0       -2.456086    2.264560    2.018562
    4          1             0       -0.731998    1.534106    2.035872
    5          6             0       -1.227774   -0.356980    0.103657
    6          1             0       -1.562056   -1.091868    0.840076
    7          1             0       -1.390695   -0.768645   -0.893522
    8          1             0       -0.156792   -0.192568    0.247104
    9          8             0       -1.500699    1.965763   -0.678979
   10          8             0       -1.681613    1.473391   -2.051140
   11          1             0       -0.758148    1.355680   -2.310151
   12          6             0       -3.501053    0.789394    0.039276
   13          1             0       -3.922583    0.129868    0.801624
   14          1             0       -3.652581    0.326652   -0.943278
   15          8             0       -4.184213    2.025327    0.138694
   16          1             0       -3.723110    2.633671   -0.452054
 ---------------------------------------------------------------------
                    Distance matrix (angstroms):
                    1          2          3          4          5
     1  C    0.000000
     2  C    1.488869   0.000000
     3  H    2.228609   1.081206   0.000000
     4  H    2.238816   1.082527   1.872523   0.000000
     5  C    1.526637   2.509138   3.471035   2.748719   0.000000
     6  H    2.164928   2.805630   3.667932   3.002443   1.092757
     7  H    2.167509   3.449877   4.337698   3.783899   1.091044
     8  H    2.162671   2.731205   3.802932   2.551853   1.092983
     9  O    1.475348   2.302375   2.877285   2.854408   2.466200
    10  O    2.405260   3.639345   4.217610   4.196322   2.863456
    11  H    2.893545   4.019123   4.737807   4.349763   2.996702
    12  C    1.538429   2.501440   2.680605   3.494089   2.546785
    13  H    2.165489   2.771469   2.861549   3.697984   2.825982
    14  H    2.155715   3.434854   3.736253   4.343165   2.728207
    15  O    2.445500   2.893268   2.564675   3.969681   3.796992
    16  H    2.520982   3.039845   2.800988   4.042965   3.934401
                    6          7          8          9         10
     6  H    0.000000
     7  H    1.771779   0.000000
     8  H    1.770628   1.776347   0.000000
     9  O    3.414733   2.745017   2.705939   0.000000
    10  O    3.867037   2.539968   3.222177   1.469008   0.000000
    11  H    4.069483   2.630534   3.049304   1.893226   0.966297
    12  C    2.817825   2.784099   3.491636   2.429228   2.854479
    13  H    2.658233   3.176681   3.820031   3.380565   3.868496
    14  H    3.092385   2.513619   3.729228   2.717928   2.535169
    15  O    4.133346   4.083564   4.599014   2.805955   3.370907
    16  H    4.496598   4.148591   4.603811   2.331675   2.840957
                   11         12         13         14         15
    11  H    0.000000
    12  C    3.655683   0.000000
    13  H    4.604281   1.092628   0.000000
    14  H    3.362288   1.096587   1.776600   0.000000
    15  O    4.264175   1.415670   2.025016   2.082977   0.000000
    16  H    3.725156   1.921477   2.807228   2.359791   0.965237
                   16
    16  H    0.000000
 Symmetry turned off by external request.
 Stoichiometry    C4H9O3(2)
 Framework group  C1[X(C4H9O3)]
 Deg. of freedom    42
 Full point group                 C1
 Rotational constants (GHZ):      2.9518265      2.4929659      1.9113334
 Standard basis: CBSB7 (5D, 7F)
 Integral buffers will be    131072 words long.
 Raffenetti 2 integral format.
 Two-electron integral symmetry is turned off.
   180 basis functions,   296 primitive gaussians,   187 cartesian basis functions
    29 alpha electrons       28 beta electrons
       nuclear repulsion energy       338.0460103338 Hartrees.
 NAtoms=   16 NActive=   16 NUniq=   16 SFac= 7.50D-01 NAtFMM=   80 NAOKFM=F Big=F
 One-electron integrals computed using PRISM.
 NBasis=   180 RedAO= T  NBF=   180
 NBsUse=   180 1.00D-06 NBFU=   180
 Harris functional with IExCor=  402 diagonalized for initial guess.
 ExpMin= 1.03D-01 ExpMax= 8.59D+03 ExpMxC= 1.30D+03 IAcc=1 IRadAn=         1 AccDes= 1.00D-06
 HarFok:  IExCor= 402 AccDes= 1.00D-06 IRadAn=         1 IDoV=1
 ScaDFX=  1.000000  1.000000  1.000000  1.000000
 <S**2> of initial guess= 0.7500
 Requested convergence on RMS density matrix=1.00D-08 within 128 cycles.
 Requested convergence on MAX density matrix=1.00D-06.
 Requested convergence on             energy=1.00D-06.
 No special actions if energy rises.
 Integral accuracy reduced to 1.0D-05 until final iterations.
 Initial convergence to 1.0D-05 achieved.  Increase integral accuracy.
 SCF Done:  E(UB+HF-LYP) =  -383.459338563     A.U. after   17 cycles
             Convg  =    0.4894D-08             -V/T =  2.0032
             S**2   =   0.7540
 Annihilation of the first spin contaminant:
 S**2 before annihilation     0.7540,   after     0.7500
 Range of M.O.s used for correlation:     1   180
 NBasis=   180 NAE=    29 NBE=    28 NFC=     0 NFV=     0
 NROrb=    180 NOA=    29 NOB=    28 NVA=   151 NVB=   152
 Symmetrizing basis deriv contribution to polar:
 IMax=3 JMax=2 DiffMx= 0.00D+00
 G2DrvN: will do   17 centers at a time, making    1 passes doing MaxLOS=2.
 FoFDir/FoFCou used for L=0 through L=2.
 DoAtom=TTTTTTTTTTTTTTTT
          Differentiating once with respect to electric field.
                with respect to dipole field.
          Differentiating once with respect to nuclear coordinates.
 Symmetry not used in FoFDir.
 MinBra= 0 MaxBra= 2 Meth= 1.
 IRaf=       0 NMat=  51 IRICut=      51 DoRegI=T DoRafI=T ISym2E= 0 JSym2E=0.
          There are  51 degrees of freedom in the 1st order CPHF.
    48 vectors were produced by pass  0.
 AX will form  48 AO Fock derivatives at one time.
    48 vectors were produced by pass  1.
    48 vectors were produced by pass  2.
    48 vectors were produced by pass  3.
    48 vectors were produced by pass  4.
    48 vectors were produced by pass  5.
    26 vectors were produced by pass  6.
     4 vectors were produced by pass  7.
     3 vectors were produced by pass  8.
 Inv2:  IOpt= 1 Iter= 1 AM= 2.42D-15 Conv= 1.00D-12.
 Inverted reduced A of dimension  321 with in-core refinement.
 Isotropic polarizability for W=    0.000000       58.78 Bohr**3.
 End of Minotr Frequency-dependent properties file   721 does not exist.

 **********************************************************************

            Population analysis using the SCF density.

 **********************************************************************

 Alpha  occ. eigenvalues --  -19.18025 -19.17419 -19.10930 -10.24099 -10.21401
 Alpha  occ. eigenvalues --  -10.19165 -10.17321  -1.11685  -1.01983  -0.92398
 Alpha  occ. eigenvalues --   -0.78931  -0.70133  -0.68403  -0.57575  -0.53709
 Alpha  occ. eigenvalues --   -0.49349  -0.48192  -0.48011  -0.45376  -0.42385
 Alpha  occ. eigenvalues --   -0.41217  -0.39360  -0.38866  -0.36824  -0.33695
 Alpha  occ. eigenvalues --   -0.31182  -0.28762  -0.26921  -0.23558
 Alpha virt. eigenvalues --    0.00532   0.03668   0.06543   0.07381   0.07736
 Alpha virt. eigenvalues --    0.09744   0.10614   0.10764   0.12474   0.15298
 Alpha virt. eigenvalues --    0.17209   0.19014   0.20840   0.23176   0.24425
 Alpha virt. eigenvalues --    0.30502   0.31758   0.33726   0.37582   0.38452
 Alpha virt. eigenvalues --    0.39563   0.41668   0.44120   0.45540   0.49375
 Alpha virt. eigenvalues --    0.51721   0.53692   0.54279   0.56797   0.57680
 Alpha virt. eigenvalues --    0.58096   0.59093   0.61103   0.61383   0.63922
 Alpha virt. eigenvalues --    0.65656   0.73034   0.74081   0.76143   0.79969
 Alpha virt. eigenvalues --    0.83477   0.86980   0.88495   0.90541   0.91809
 Alpha virt. eigenvalues --    0.94855   0.98255   1.02634   1.05011   1.08486
 Alpha virt. eigenvalues --    1.12383   1.20037   1.24707   1.27385   1.29960
 Alpha virt. eigenvalues --    1.31386   1.34070   1.38628   1.39901   1.42337
 Alpha virt. eigenvalues --    1.42685   1.45738   1.47982   1.51065   1.52235
 Alpha virt. eigenvalues --    1.53947   1.55221   1.56095   1.57462   1.60475
 Alpha virt. eigenvalues --    1.61899   1.64965   1.70004   1.70064   1.71312
 Alpha virt. eigenvalues --    1.73282   1.79958   1.82454   1.88311   1.89795
 Alpha virt. eigenvalues --    1.92058   1.94405   1.96576   2.00317   2.01178
 Alpha virt. eigenvalues --    2.04995   2.09577   2.10536   2.17014   2.22755
 Alpha virt. eigenvalues --    2.29148   2.36003   2.36593   2.39705   2.43530
 Alpha virt. eigenvalues --    2.44837   2.48002   2.50199   2.51152   2.51289
 Alpha virt. eigenvalues --    2.53190   2.54189   2.59168   2.62133   2.64486
 Alpha virt. eigenvalues --    2.65680   2.67991   2.71144   2.74255   2.79914
 Alpha virt. eigenvalues --    2.81418   2.85650   2.90485   2.95277   3.05118
 Alpha virt. eigenvalues --    3.08392   3.11564   3.13413   3.18191   3.21767
 Alpha virt. eigenvalues --    3.23766   3.27553   3.36073   3.50871   3.63888
 Alpha virt. eigenvalues --    3.68487   3.72959   3.76910   3.79538   3.81036
 Alpha virt. eigenvalues --    3.89877   3.94340   3.96251   4.24034   4.24566
 Alpha virt. eigenvalues --    4.71573   4.83047   4.88982   4.95619   5.16581
 Alpha virt. eigenvalues --    5.27969   5.39184   5.60197   5.62853  23.70774
 Alpha virt. eigenvalues --   23.78078  23.85676  23.92102  49.77062  49.82197
 Alpha virt. eigenvalues --   49.91311
  Beta  occ. eigenvalues --  -19.17889 -19.17294 -19.10917 -10.24178 -10.21382
  Beta  occ. eigenvalues --  -10.17777 -10.17296  -1.11359  -1.01947  -0.91975
  Beta  occ. eigenvalues --   -0.78254  -0.68960  -0.67127  -0.56866  -0.53504
  Beta  occ. eigenvalues --   -0.48854  -0.48025  -0.47648  -0.45044  -0.42276
  Beta  occ. eigenvalues --   -0.41016  -0.38964  -0.38582  -0.36261  -0.33632
  Beta  occ. eigenvalues --   -0.31044  -0.28341  -0.26705
  Beta virt. eigenvalues --   -0.09003   0.01564   0.03921   0.06700   0.07768
  Beta virt. eigenvalues --    0.07941   0.09872   0.10674   0.11095   0.12572
  Beta virt. eigenvalues --    0.15400   0.17525   0.19226   0.21130   0.23304
  Beta virt. eigenvalues --    0.24936   0.30829   0.33163   0.33924   0.38567
  Beta virt. eigenvalues --    0.38802   0.39856   0.42147   0.44817   0.49279
  Beta virt. eigenvalues --    0.49642   0.52090   0.53953   0.54600   0.57056
  Beta virt. eigenvalues --    0.57870   0.58500   0.59637   0.61235   0.61654
  Beta virt. eigenvalues --    0.64660   0.66611   0.73404   0.74598   0.76826
  Beta virt. eigenvalues --    0.80146   0.83756   0.87160   0.88943   0.90681
  Beta virt. eigenvalues --    0.92173   0.95600   0.98749   1.02963   1.05228
  Beta virt. eigenvalues --    1.08813   1.13841   1.20646   1.25036   1.27598
  Beta virt. eigenvalues --    1.30389   1.31584   1.34370   1.39310   1.40011
  Beta virt. eigenvalues --    1.42652   1.42790   1.46161   1.48262   1.51569
  Beta virt. eigenvalues --    1.52411   1.54129   1.55492   1.56432   1.59087
  Beta virt. eigenvalues --    1.61058   1.62248   1.65133   1.70248   1.70823
  Beta virt. eigenvalues --    1.71559   1.74031   1.80378   1.83122   1.88561
  Beta virt. eigenvalues --    1.90273   1.93323   1.95236   1.98073   2.00450
  Beta virt. eigenvalues --    2.01969   2.05452   2.09780   2.11128   2.17451
  Beta virt. eigenvalues --    2.22945   2.29405   2.36132   2.36631   2.39881
  Beta virt. eigenvalues --    2.43683   2.45006   2.48089   2.50305   2.51405
  Beta virt. eigenvalues --    2.51583   2.53696   2.54448   2.59397   2.62507
  Beta virt. eigenvalues --    2.65521   2.66380   2.68326   2.73987   2.75326
  Beta virt. eigenvalues --    2.80308   2.81983   2.86252   2.90910   2.95838
  Beta virt. eigenvalues --    3.05336   3.08581   3.11708   3.13471   3.18333
  Beta virt. eigenvalues --    3.22013   3.23883   3.27877   3.36300   3.51223
  Beta virt. eigenvalues --    3.64115   3.68696   3.74490   3.77122   3.79642
  Beta virt. eigenvalues --    3.81167   3.90030   3.94391   3.96567   4.24281
  Beta virt. eigenvalues --    4.25388   4.71740   4.83304   4.89053   4.95693
  Beta virt. eigenvalues --    5.16884   5.27988   5.39309   5.60376   5.62867
  Beta virt. eigenvalues --   23.70809  23.78322  23.86832  23.92231  49.77190
  Beta virt. eigenvalues --   49.82336  49.91336
          Condensed to atoms (all electrons):
              1          2          3          4          5          6
     1  C    5.352972   0.319873  -0.041742  -0.037253   0.261005  -0.031874
     2  C    0.319873   5.185285   0.401607   0.402631  -0.049001  -0.002365
     3  H   -0.041742   0.401607   0.519648  -0.030315   0.008169  -0.000170
     4  H   -0.037253   0.402631  -0.030315   0.542824  -0.006715  -0.000022
     5  C    0.261005  -0.049001   0.008169  -0.006715   4.984843   0.391000
     6  H   -0.031874  -0.002365  -0.000170  -0.000022   0.391000   0.571434
     7  H   -0.041669   0.009753  -0.000213  -0.000057   0.406543  -0.026181
     8  H   -0.025860  -0.006854  -0.000216   0.003284   0.384922  -0.023529
     9  O    0.166315  -0.043981   0.000729   0.002647  -0.050753   0.004581
    10  O   -0.065292   0.007262  -0.000211  -0.000247   0.001895   0.000337
    11  H   -0.001881  -0.001419   0.000019   0.000028   0.005066  -0.000125
    12  C    0.327613  -0.076157  -0.013510   0.006243  -0.071461  -0.000181
    13  H   -0.034800  -0.004702  -0.003302   0.000136  -0.001252   0.002438
    14  H   -0.041908   0.010363   0.001832  -0.000342  -0.002888  -0.000524
    15  O   -0.038883  -0.005655   0.025161  -0.000044   0.005276  -0.000059
    16  H   -0.012933  -0.000280  -0.001271  -0.000045   0.001107  -0.000115
              7          8          9         10         11         12
     1  C   -0.041669  -0.025860   0.166315  -0.065292  -0.001881   0.327613
     2  C    0.009753  -0.006854  -0.043981   0.007262  -0.001419  -0.076157
     3  H   -0.000213  -0.000216   0.000729  -0.000211   0.000019  -0.013510
     4  H   -0.000057   0.003284   0.002647  -0.000247   0.000028   0.006243
     5  C    0.406543   0.384922  -0.050753   0.001895   0.005066  -0.071461
     6  H   -0.026181  -0.023529   0.004581   0.000337  -0.000125  -0.000181
     7  H    0.557989  -0.029411  -0.005875   0.016498  -0.000164  -0.009772
     8  H   -0.029411   0.574937   0.004281  -0.000252   0.000071   0.008068
     9  O   -0.005875   0.004281   8.207314   0.060566  -0.023505  -0.063673
    10  O    0.016498  -0.000252   0.060566   7.957081   0.285547  -0.007122
    11  H   -0.000164   0.000071  -0.023505   0.285547   0.466540   0.000135
    12  C   -0.009772   0.008068  -0.063673  -0.007122   0.000135   4.815235
    13  H   -0.000237  -0.000627   0.004771  -0.000040   0.000000   0.388262
    14  H    0.005914  -0.000132  -0.007776   0.010983  -0.001250   0.392915
    15  O    0.000036  -0.000249  -0.005524   0.000273   0.000004   0.284748
    16  H    0.000034  -0.000042   0.019664   0.000456   0.000149  -0.050414
             13         14         15         16
     1  C   -0.034800  -0.041908  -0.038883  -0.012933
     2  C   -0.004702   0.010363  -0.005655  -0.000280
     3  H   -0.003302   0.001832   0.025161  -0.001271
     4  H    0.000136  -0.000342  -0.000044  -0.000045
     5  C   -0.001252  -0.002888   0.005276   0.001107
     6  H    0.002438  -0.000524  -0.000059  -0.000115
     7  H   -0.000237   0.005914   0.000036   0.000034
     8  H   -0.000627  -0.000132  -0.000249  -0.000042
     9  O    0.004771  -0.007776  -0.005524   0.019664
    10  O   -0.000040   0.010983   0.000273   0.000456
    11  H    0.000000  -0.001250   0.000004   0.000149
    12  C    0.388262   0.392915   0.284748  -0.050414
    13  H    0.606349  -0.043421  -0.030533   0.010540
    14  H   -0.043421   0.597481  -0.028906  -0.007396
    15  O   -0.030533  -0.028906   7.873527   0.316002
    16  H    0.010540  -0.007396   0.316002   0.480189
 Mulliken atomic charges:
              1
     1  C   -0.053682
     2  C   -0.146359
     3  H    0.133785
     4  H    0.117248
     5  C   -0.267756
     6  H    0.115355
     7  H    0.116812
     8  H    0.111608
     9  O   -0.269781
    10  O   -0.267735
    11  H    0.270785
    12  C    0.069070
    13  H    0.106417
    14  H    0.115054
    15  O   -0.395175
    16  H    0.244355
 Sum of Mulliken charges=   0.00000
 Atomic charges with hydrogens summed into heavy atoms:
              1
     1  C   -0.053682
     2  C    0.104674
     3  H    0.000000
     4  H    0.000000
     5  C    0.076019
     6  H    0.000000
     7  H    0.000000
     8  H    0.000000
     9  O   -0.269781
    10  O    0.003050
    11  H    0.000000
    12  C    0.290540
    13  H    0.000000
    14  H    0.000000
    15  O   -0.150820
    16  H    0.000000
 Sum of Mulliken charges=   0.00000
          Atomic-Atomic Spin Densities.
              1          2          3          4          5          6
     1  C   -0.029610  -0.010977  -0.002732  -0.001827   0.009139  -0.000471
     2  C   -0.010977   1.110562   0.001642   0.003960  -0.014404   0.002055
     3  H   -0.002732   0.001642  -0.051763   0.004206  -0.000227  -0.000028
     4  H   -0.001827   0.003960   0.004206  -0.054949   0.001096   0.000035
     5  C    0.009139  -0.014404  -0.000227   0.001096   0.012128   0.000070
     6  H   -0.000471   0.002055  -0.000028   0.000035   0.000070  -0.001146
     7  H   -0.001483   0.001029   0.000029  -0.000090  -0.002255   0.000605
     8  H    0.001214  -0.000940   0.000009   0.000030   0.000567   0.000074
     9  O   -0.017445  -0.022586   0.000032  -0.000245  -0.004114   0.000236
    10  O    0.003919   0.002296  -0.000009   0.000022   0.001149  -0.000086
    11  H   -0.000450  -0.000372   0.000000  -0.000012  -0.000124   0.000023
    12  C    0.006240  -0.013245   0.000837  -0.000192   0.003677  -0.000225
    13  H   -0.000655   0.002320   0.000058  -0.000051  -0.000356  -0.000057
    14  H   -0.002163   0.000866  -0.000038   0.000012  -0.001547   0.000190
    15  O   -0.000345  -0.000582   0.000296  -0.000015  -0.000049   0.000007
    16  H    0.000381   0.000630  -0.000073   0.000021   0.000061  -0.000006
              7          8          9         10         11         12
     1  C   -0.001483   0.001214  -0.017445   0.003919  -0.000450   0.006240
     2  C    0.001029  -0.000940  -0.022586   0.002296  -0.000372  -0.013245
     3  H    0.000029   0.000009   0.000032  -0.000009   0.000000   0.000837
     4  H   -0.000090   0.000030  -0.000245   0.000022  -0.000012  -0.000192
     5  C   -0.002255   0.000567  -0.004114   0.001149  -0.000124   0.003677
     6  H    0.000605   0.000074   0.000236  -0.000086   0.000023  -0.000225
     7  H    0.006645  -0.000631   0.001771  -0.001478   0.000465  -0.000756
     8  H   -0.000631  -0.000573  -0.000743   0.000246  -0.000101   0.000063
     9  O    0.001771  -0.000743   0.077176  -0.019054   0.001598  -0.000670
    10  O   -0.001478   0.000246  -0.019054   0.056315  -0.001022  -0.000191
    11  H    0.000465  -0.000101   0.001598  -0.001022   0.000042  -0.000005
    12  C   -0.000756   0.000063  -0.000670  -0.000191  -0.000005   0.007200
    13  H    0.000179  -0.000022   0.000243  -0.000071   0.000008  -0.000185
    14  H    0.000786  -0.000060   0.001890  -0.001166   0.000197  -0.001509
    15  O    0.000001  -0.000002   0.000321  -0.000003   0.000000  -0.000198
    16  H   -0.000030   0.000007  -0.000677   0.000205  -0.000035   0.000196
             13         14         15         16
     1  C   -0.000655  -0.002163  -0.000345   0.000381
     2  C    0.002320   0.000866  -0.000582   0.000630
     3  H    0.000058  -0.000038   0.000296  -0.000073
     4  H   -0.000051   0.000012  -0.000015   0.000021
     5  C   -0.000356  -0.001547  -0.000049   0.000061
     6  H   -0.000057   0.000190   0.000007  -0.000006
     7  H    0.000179   0.000786   0.000001  -0.000030
     8  H   -0.000022  -0.000060  -0.000002   0.000007
     9  O    0.000243   0.001890   0.000321  -0.000677
    10  O   -0.000071  -0.001166  -0.000003   0.000205
    11  H    0.000008   0.000197   0.000000  -0.000035
    12  C   -0.000185  -0.001509  -0.000198   0.000196
    13  H   -0.001121   0.000782   0.000126  -0.000067
    14  H    0.000782   0.008338  -0.000663  -0.000390
    15  O    0.000126  -0.000663   0.004995   0.000009
    16  H   -0.000067  -0.000390   0.000009  -0.000094
 Mulliken atomic spin densities:
              1
     1  C   -0.047264
     2  C    1.062254
     3  H   -0.047762
     4  H   -0.047997
     5  C    0.004814
     6  H    0.001277
     7  H    0.004788
     8  H   -0.000862
     9  O    0.017735
    10  O    0.041071
    11  H    0.000211
    12  C    0.001038
    13  H    0.001133
    14  H    0.005526
    15  O    0.003899
    16  H    0.000139
 Sum of Mulliken spin densities=   1.00000
 APT atomic charges:
              1
     1  C    0.402353
     2  C   -0.104369
     3  H    0.054358
     4  H    0.025152
     5  C   -0.019801
     6  H    0.008387
     7  H    0.007872
     8  H   -0.013091
     9  O   -0.239418
    10  O   -0.398701
    11  H    0.251412
    12  C    0.414839
    13  H   -0.018467
    14  H   -0.045638
    15  O   -0.600231
    16  H    0.275343
 Sum of APT charges=   0.00000
 APT Atomic charges with hydrogens summed into heavy atoms:
              1
     1  C    0.402353
     2  C   -0.024858
     3  H    0.000000
     4  H    0.000000
     5  C   -0.016634
     6  H    0.000000
     7  H    0.000000
     8  H    0.000000
     9  O   -0.239418
    10  O   -0.147289
    11  H    0.000000
    12  C    0.350733
    13  H    0.000000
    14  H    0.000000
    15  O   -0.324888
    16  H    0.000000
 Sum of APT charges=   0.00000
 Electronic spatial extent (au):  <R**2>=  2082.3671
 Charge=     0.0000 electrons
 Dipole moment (field-independent basis, Debye):
    X=     2.3352    Y=    -1.5905    Z=    -0.1349  Tot=     2.8286
 Quadrupole moment (field-independent basis, Debye-Ang):
   XX=   -54.7387   YY=   -46.3327   ZZ=   -40.8875
   XY=     6.7682   XZ=    -1.2367   YZ=     0.0310
 Traceless Quadrupole moment (field-independent basis, Debye-Ang):
   XX=    -7.4191   YY=     0.9870   ZZ=     6.4321
   XY=     6.7682   XZ=    -1.2367   YZ=     0.0310
 Octapole moment (field-independent basis, Debye-Ang**2):
  XXX=   351.0864  YYY=  -149.1571  ZZZ=     0.7324  XYY=   103.6269
  XXY=   -77.6882  XXZ=    -0.5708  XZZ=   101.1320  YZZ=   -46.2316
  YYZ=     2.1549  XYZ=     0.8934
 Hexadecapole moment (field-independent basis, Debye-Ang**3):
 XXXX= -1978.9856 YYYY=  -567.1207 ZZZZ=  -328.5104 XXXY=   512.0065
 XXXZ=    30.7296 YYYX=   357.0953 YYYZ=     9.2170 ZZZX=   -12.5204
 ZZZY=    14.5483 XXYY=  -402.9703 XXZZ=  -339.8147 YYZZ=  -148.4540
 XXYZ=   -15.8888 YYXZ=     6.7355 ZZXY=   128.8610
 N-N= 3.380460103338D+02 E-N=-1.576073194846D+03  KE= 3.822198800259D+02
  Exact polarizability:  56.232  -2.744  53.589  -1.005   1.861  66.504
 Approx polarizability:  75.001  -1.067  74.124  -1.038   2.952  96.029
                          Isotropic Fermi Contact Couplings
        Atom                 a.u.       MegaHertz       Gauss      10(-4) cm-1
     1  C(13)             -0.01463     -16.45230      -5.87059      -5.48790
     2  C(13)              0.06808      76.53350      27.30905      25.52883
     3  H(1)              -0.01342     -59.98479     -21.40406     -20.00877
     4  H(1)              -0.01325     -59.21773     -21.13036     -19.75291
     5  C(13)              0.01004      11.28759       4.02769       3.76513
     6  H(1)               0.00056       2.51639       0.89791       0.83938
     7  H(1)               0.00182       8.12068       2.89766       2.70877
     8  H(1)              -0.00034      -1.52218      -0.54315      -0.50774
     9  O(17)              0.15674     -95.01386     -33.90331     -31.69321
    10  O(17)              0.01142      -6.92356      -2.47050      -2.30945
    11  H(1)              -0.00048      -2.14373      -0.76494      -0.71507
    12  C(13)              0.00631       7.09763       2.53261       2.36752
    13  H(1)               0.00047       2.09603       0.74792       0.69916
    14  H(1)               0.00231      10.33156       3.68656       3.44624
    15  O(17)              0.00014      -0.08477      -0.03025      -0.02828
    16  H(1)              -0.00005      -0.21582      -0.07701      -0.07199
 --------------------------------------------------------
       Center         ----  Spin Dipole Couplings  ----
                      3XX-RR        3YY-RR        3ZZ-RR
 --------------------------------------------------------
     1   Atom       -0.010219     -0.002725      0.012944
     2   Atom       -0.370731      0.520282     -0.149551
     3   Atom        0.007270      0.022168     -0.029439
     4   Atom        0.055704     -0.027392     -0.028312
     5   Atom       -0.005473      0.003709      0.001764
     6   Atom       -0.007514      0.011002     -0.003488
     7   Atom       -0.003380      0.001241      0.002139
     8   Atom        0.000672      0.001020     -0.001692
     9   Atom       -0.036527      0.111440     -0.074913
    10   Atom       -0.087151     -0.118789      0.205939
    11   Atom        0.004870     -0.008220      0.003350
    12   Atom        0.005828     -0.010710      0.004881
    13   Atom        0.005853     -0.002461     -0.003393
    14   Atom       -0.000317     -0.001824      0.002141
    15   Atom        0.015420     -0.012711     -0.002709
    16   Atom        0.002001     -0.003187      0.001187
 --------------------------------------------------------
                        XY            XZ            YZ
 --------------------------------------------------------
     1   Atom        0.000904      0.007180      0.013707
     2   Atom        0.456220     -0.283602     -0.674230
     3   Atom       -0.041298     -0.054052      0.008497
     4   Atom        0.008283      0.044539     -0.032269
     5   Atom       -0.010005     -0.011115      0.014258
     6   Atom       -0.001629     -0.000852      0.004309
     7   Atom       -0.000651     -0.000097      0.004371
     8   Atom       -0.006241     -0.004902      0.005080
     9   Atom        0.046506     -0.046520     -0.076715
    10   Atom       -0.004432      0.042940     -0.036076
    11   Atom       -0.001434     -0.004414      0.000640
    12   Atom        0.003322      0.017225      0.000517
    13   Atom        0.008099      0.004482      0.002093
    14   Atom        0.002154      0.003350      0.002829
    15   Atom        0.007614      0.020902      0.004497
    16   Atom       -0.002588      0.005301     -0.003229
 --------------------------------------------------------


 ---------------------------------------------------------------------------------
              Anisotropic Spin Dipole Couplings in Principal Axis System
 ---------------------------------------------------------------------------------

       Atom             a.u.   MegaHertz   Gauss  10(-4) cm-1        Axes

              Baa    -0.0139    -1.870    -0.667    -0.624  0.7482  0.4885 -0.4489
     1 C(13)  Bbb    -0.0083    -1.119    -0.399    -0.373 -0.6319  0.7310 -0.2576
              Bcc     0.0223     2.989     1.067     0.997  0.2023  0.4764  0.8556
 
              Baa    -0.5676   -76.161   -27.176   -25.405  0.1328  0.4813  0.8664
     2 C(13)  Bbb    -0.5629   -75.531   -26.951   -25.195  0.9321 -0.3578  0.0559
              Bcc     1.1304   151.692    54.128    50.599  0.3369  0.8002 -0.4962
 
              Baa    -0.0718   -38.299   -13.666   -12.775  0.6233  0.2058  0.7544
     3 H(1)   Bbb    -0.0034    -1.791    -0.639    -0.598  0.3707  0.7717 -0.5168
              Bcc     0.0751    40.090    14.305    13.373  0.6885 -0.6017 -0.4048
 
              Baa    -0.0719   -38.384   -13.696   -12.804 -0.2988  0.5956  0.7456
     4 H(1)   Bbb    -0.0033    -1.742    -0.622    -0.581  0.2848  0.8014 -0.5261
              Bcc     0.0752    40.127    14.318    13.385  0.9108 -0.0551  0.4091
 
              Baa    -0.0136    -1.820    -0.649    -0.607  0.7780 -0.0651  0.6248
     5 C(13)  Bbb    -0.0109    -1.462    -0.522    -0.488  0.4423  0.7631 -0.4712
              Bcc     0.0245     3.282     1.171     1.095 -0.4461  0.6430  0.6225
 
              Baa    -0.0077    -4.122    -1.471    -1.375  0.9880  0.0525  0.1453
     6 H(1)   Bbb    -0.0046    -2.467    -0.880    -0.823 -0.1255 -0.2759  0.9530
              Bcc     0.0123     6.589     2.351     2.198 -0.0901  0.9597  0.2660
 
              Baa    -0.0036    -1.922    -0.686    -0.641  0.9055  0.3449 -0.2473
     7 H(1)   Bbb    -0.0025    -1.339    -0.478    -0.447 -0.4210  0.6564 -0.6260
              Bcc     0.0061     3.261     1.163     1.088 -0.0536  0.6710  0.7396
 
              Baa    -0.0056    -2.997    -1.069    -1.000  0.2590 -0.4216  0.8690
     8 H(1)   Bbb    -0.0054    -2.879    -1.027    -0.960  0.7498  0.6549  0.0943
              Bcc     0.0110     5.876     2.097     1.960 -0.6088  0.6272  0.4857
 
              Baa    -0.1147     8.300     2.962     2.769  0.3989  0.2200  0.8902
     9 O(17)  Bbb    -0.0428     3.095     1.104     1.032  0.8675 -0.4052 -0.2886
              Bcc     0.1575   -11.395    -4.066    -3.801  0.2972  0.8874 -0.3524
 
              Baa    -0.1228     8.882     3.169     2.963 -0.0093  0.9939  0.1103
    10 O(17)  Bbb    -0.0933     6.751     2.409     2.252  0.9900  0.0247 -0.1391
              Bcc     0.2160   -15.633    -5.578    -5.215  0.1410 -0.1079  0.9841
 
              Baa    -0.0084    -4.470    -1.595    -1.491  0.1024  0.9946 -0.0157
    11 H(1)   Bbb    -0.0003    -0.184    -0.066    -0.061  0.6365 -0.0534  0.7694
              Bcc     0.0087     4.654     1.661     1.553  0.7645 -0.0888 -0.6385
 
              Baa    -0.0134    -1.798    -0.642    -0.600 -0.5819  0.6161  0.5308
    12 C(13)  Bbb    -0.0094    -1.263    -0.451    -0.421  0.3828  0.7834 -0.4897
              Bcc     0.0228     3.061     1.092     1.021  0.7175  0.0818  0.6917
 
              Baa    -0.0075    -4.010    -1.431    -1.338 -0.5548  0.8095  0.1921
    13 H(1)   Bbb    -0.0048    -2.573    -0.918    -0.858 -0.1474 -0.3230  0.9349
              Bcc     0.0123     6.583     2.349     2.196  0.8188  0.4904  0.2985
 
              Baa    -0.0034    -1.838    -0.656    -0.613 -0.3682  0.8996 -0.2348
    14 H(1)   Bbb    -0.0026    -1.405    -0.501    -0.469  0.7654  0.1500 -0.6258
              Bcc     0.0061     3.243     1.157     1.082  0.5278  0.4101  0.7438
 
              Baa    -0.0165     1.195     0.426     0.399 -0.5694  0.1960  0.7984
    15 O(17)  Bbb    -0.0144     1.043     0.372     0.348 -0.0533  0.9603 -0.2737
              Bcc     0.0309    -2.238    -0.799    -0.746  0.8204  0.1984  0.5363
 
              Baa    -0.0049    -2.623    -0.936    -0.875 -0.0797  0.8508  0.5194
    16 H(1)   Bbb    -0.0034    -1.840    -0.656    -0.614  0.7291  0.4050 -0.5517
              Bcc     0.0084     4.463     1.592     1.489  0.6798 -0.3347  0.6526
 

 ---------------------------------------------------------------------------------

 Use density number 0.
 Entering OneElI...
 Calculate overlap and kinetic energy integrals
    NBasis = 187  MinDer = 2  MaxDer = 2
 Requested accuracy = 0.1000D-12
 PrsmSu:  NPrtUS=   1 ThrOK=F
 PRISM was handed   130758511 working-precision words and  2555 shell-pairs
 Entering OneElI...
 Calculate potential energy integrals
    NBasis = 187  MinDer = 2  MaxDer = 2
 Requested accuracy = 0.1000D-12
 PrsmSu:  NPrtUS=   8 ThrOK=T
 PRISM was handed    16300327 working-precision words and  2412 shell-pairs
 PRISM was handed    16300327 working-precision words and  2412 shell-pairs
 PRISM was handed    16300327 working-precision words and  2412 shell-pairs
 PRISM was handed    16300327 working-precision words and  2412 shell-pairs
 PRISM was handed    16300327 working-precision words and  2412 shell-pairs
 PRISM was handed    16300327 working-precision words and  2412 shell-pairs
 PRISM was handed    16300327 working-precision words and  2412 shell-pairs
 PRISM was handed    16300327 working-precision words and  2412 shell-pairs
 Polarizability after L701:
                1             2             3
      1  0.562323D+02
      2 -0.274390D+01  0.535890D+02
      3 -0.100543D+01  0.186070D+01  0.665043D+02
 Dipole Derivatives after L701:
               1            2            3            4            5
      1 0.287251D+00-0.225820D-01-0.799374D-01 0.684783D-01-0.105420D+00
      2 0.547283D-01 0.464711D+00-0.607595D-01-0.111802D+00-0.194533D+00
      3-0.153853D+00-0.250065D+00 0.455098D+00 0.881655D-01 0.185186D+00
               6            7            8            9           10
      1 0.100193D+00 0.429820D-01 0.434077D-01-0.208859D-02-0.573179D-01
      2 0.104991D+00 0.631244D-01 0.572609D-01-0.523755D-01 0.192941D-01
      3-0.187051D+00 0.268895D-01-0.744955D-01 0.628316D-01-0.820915D-01
              11           12           13           14           15
      1 0.398169D-01-0.480631D-01 0.764080D-02 0.432816D-01 0.272105D-01
      2 0.898581D-01-0.435817D-01 0.102868D+00-0.800763D-01-0.420840D-01
      3-0.397847D-01 0.429164D-01 0.132731D-01 0.975528D-02 0.130319D-01
              16           17           18           19           20
      1 0.483632D-01-0.234468D-01 0.424145D-01 0.513362D-01 0.614115D-02
      2-0.499561D-01-0.112236D-01 0.963930D-01 0.319622D-02 0.438456D-01
      3 0.519042D-01 0.785321D-01-0.119790D-01-0.313794D-01-0.472435D-01
              21           22           23           24           25
      1-0.117286D-01-0.143384D+00-0.475338D-01-0.201668D-01-0.445380D+00
      2-0.102186D+00 0.765637D-02 0.383533D-01-0.940868D-02-0.225459D-01
      3-0.715663D-01-0.222099D-01-0.121923D-01 0.657565D-01 0.557429D-01
              26           27           28           29           30
      1-0.346134D-02 0.175599D-01-0.916750D-01-0.180208D-01 0.796381D-01
      2-0.406351D+00 0.110411D+00-0.279504D-01-0.344144D+00 0.830524D-01
      3 0.245288D+00 0.133477D+00 0.103676D+00-0.388454D-01-0.760283D+00
              31           32           33           34           35
      1 0.157619D+00 0.157908D-01-0.546180D-01 0.405520D+00-0.192720D+00
      2 0.275924D-01 0.324739D+00-0.433319D-01-0.236248D+00 0.578937D+00
      3-0.746515D-01-0.593869D-01 0.271878D+00 0.230977D-01 0.487742D-01
              36           37           38           39           40
      1-0.284062D-01 0.190758D-01-0.133901D-01 0.656534D-01 0.917010D-02
      2-0.114439D-01-0.236534D-01-0.393777D-01 0.102578D+00 0.224662D-01
      3 0.260059D+00 0.508790D-01 0.649540D-01-0.350996D-01-0.224936D-01
              41           42           43           44           45
      1 0.198558D-01-0.457267D-01-0.679975D+00 0.293859D+00-0.136590D+00
      2-0.457320D-01-0.116710D+00 0.258953D+00-0.752775D+00-0.248257D-01
      3-0.652981D-01-0.100353D+00-0.105168D+00-0.420788D-01-0.367942D+00
              46           47           48
      1 0.320296D+00-0.355783D-01 0.946554D-01
      2-0.877234D-01 0.276507D+00 0.928264D-02
      3 0.782201D-01-0.309824D-02 0.229226D+00
 Hessian after L701:
                1             2             3             4             5
      1  0.169301D+02
      2 -0.273058D+00  0.169064D+02
      3  0.499470D+00  0.978963D+00  0.171028D+02
      4 -0.645166D+01  0.397219D+00  0.113986D+01  0.116010D+02
      5  0.358188D+00 -0.561473D+01  0.254760D+01  0.116237D+01  0.135180D+02
      6  0.109817D+01  0.267502D+01 -0.190864D+01 -0.154854D+01 -0.323544D+01
      7  0.123435D+00  0.967372D-02 -0.778942D-02 -0.307886D+01 -0.122943D+01
      8  0.473555D-01  0.662218D-02 -0.557996D-01 -0.136880D+01 -0.329733D+01
      9  0.713378D-01 -0.120343D+00  0.799370D-01 -0.111077D+01  0.886278D+00
     10  0.224902D-01 -0.294488D-01 -0.553383D-01 -0.194314D+01 -0.157484D+00
     11 -0.580077D-01  0.926163D-01 -0.334890D-01 -0.840091D-01 -0.431677D+01
     12 -0.132380D+00 -0.186876D-01  0.399760D-01  0.131298D+01 -0.133928D+00
     13 -0.482412D+01 -0.233739D+01 -0.232698D+00 -0.376790D-01 -0.103887D-01
     14 -0.231444D+01 -0.147604D+01  0.543885D+00 -0.805039D-01  0.151905D+00
     15 -0.212360D+00  0.492334D+00 -0.593466D+01 -0.102860D+00  0.142485D+00
     16  0.837030D-01  0.217471D-01 -0.363768D-01 -0.260434D-01  0.131556D-01
     17 -0.300391D-01 -0.259598D-01  0.888409D-01 -0.103946D-01  0.244634D-01
     18 -0.923853D-02  0.397479D-01  0.547893D-01  0.468978D-03 -0.715492D-02
     19  0.997748D-01  0.335221D-01  0.563830D-01 -0.578854D-01 -0.129668D-01
     20  0.394771D-02  0.516934D-01 -0.111393D+00 -0.124208D-01  0.575718D-01
     21  0.636517D-02 -0.102447D-01  0.703418D-01 -0.200084D-01  0.134281D+00
     22  0.103903D+00 -0.353593D-01  0.410200D-01  0.262203D-02 -0.829576D-02
     23  0.467492D-01  0.396937D-01 -0.134248D-01  0.151918D-01 -0.112122D-01
     24  0.354102D-01 -0.127868D-01  0.425980D-01  0.673301D-02 -0.379062D-03
     25 -0.637593D+01  0.195798D+01 -0.196657D+01 -0.207964D+00  0.239853D-01
     26  0.189947D+01 -0.327260D+01 -0.361541D+01  0.253429D-01 -0.179921D+00
     27 -0.194981D+01 -0.374452D+01 -0.282779D+01 -0.188000D+00 -0.369716D+00
     28  0.966197D-01 -0.644715D-01  0.434812D-01 -0.214757D+00  0.340978D-02
     29 -0.654207D-01  0.158643D+00 -0.465108D+00  0.777533D-02 -0.187152D+00
     30  0.161568D-01 -0.400856D+00 -0.114087D+00  0.164776D-01  0.761981D-01
     31  0.442082D-01 -0.889238D-02 -0.681285D-01  0.392809D-02  0.415809D-02
     32 -0.109939D-01 -0.269679D-01  0.317189D-01 -0.193501D-03 -0.607752D-02
     33 -0.521425D-01  0.286250D-01  0.512974D-02 -0.789043D-03 -0.406770D-02
     34 -0.380045D+00  0.349210D+00  0.776873D+00  0.141243D+00  0.204649D-01
     35  0.443201D+00 -0.647443D+01  0.313271D-01  0.145581D-01  0.117780D+00
     36  0.694636D+00  0.431077D-01 -0.655848D+01  0.102381D+00 -0.125514D-01
     37  0.286200D-01 -0.114009D+00  0.204528D+00 -0.493759D-01 -0.793710D-02
     38 -0.752162D-01  0.501259D-01  0.898649D-01  0.772801D-02  0.374537D-02
     39  0.139317D+00  0.687646D-01  0.384845D-01 -0.205292D-02  0.680748D-02
     40 -0.148647D-01 -0.596924D-02 -0.313195D+00  0.368803D-01  0.597185D-01
     41 -0.395667D-02  0.172069D+00 -0.764547D-01  0.717544D-01 -0.278351D-01
     42 -0.202729D+00 -0.194575D-01 -0.131110D+00  0.144923D+00  0.745382D-01
     43  0.559486D+00 -0.298318D-01 -0.925585D-01  0.308548D+00 -0.230620D+00
     44 -0.434479D-01 -0.494628D+00  0.666024D-01 -0.129512D+00 -0.222902D+00
     45 -0.524422D-01  0.225389D-01 -0.307190D-01  0.209551D+00 -0.860520D-01
     46 -0.456737D-01  0.129081D+00  0.110360D-01 -0.268402D-01  0.116726D-01
     47  0.756719D-01 -0.924678D-01 -0.772182D-02 -0.161072D-01 -0.955816D-02
     48  0.502427D-01 -0.222091D-01  0.714666D-01  0.396529D-01 -0.188929D-01
                6             7             8             9            10
      6  0.854894D+01
      7 -0.822733D+00  0.315524D+01
      8  0.717382D+00  0.123465D+01  0.333431D+01
      9 -0.396417D+01  0.906117D+00 -0.910815D+00  0.355647D+01
     10  0.111705D+01 -0.160185D+00  0.115912D+00  0.725191D-02  0.197264D+01
     11 -0.824603D-01  0.116892D+00  0.638785D-01  0.433166D-02  0.207457D-01
     12 -0.375003D+01 -0.530482D-02  0.982448D-02  0.119918D+00 -0.137732D+01
     13 -0.332771D-01 -0.170038D-01 -0.643513D-01 -0.516610D-01  0.204012D-02
     14  0.538007D-01 -0.710040D-01  0.815618D-01  0.103995D+00  0.171974D-01
     15 -0.227269D-01 -0.527736D-01  0.934884D-01  0.168277D-01  0.270062D-01
     16 -0.103507D-02 -0.294775D-02  0.599313D-03  0.491998D-03  0.181704D-02
     17  0.149652D-01 -0.901041D-02  0.123292D-01  0.725591D-02  0.161384D-01
     18 -0.161637D-01  0.286281D-02 -0.307612D-02 -0.424399D-02 -0.376810D-02
     19 -0.212896D-01 -0.723266D-03  0.124194D-02  0.171420D-02  0.000000D+00
     20  0.146010D+00 -0.366970D-02  0.101423D-02  0.396560D-03  0.683010D-02
     21  0.105766D+00 -0.618257D-02  0.519977D-02  0.358982D-02  0.116216D-01
     22  0.371721D-02  0.966377D-02 -0.105633D-01 -0.780179D-02 -0.253309D-01
     23 -0.957889D-02 -0.248478D-02  0.576584D-03  0.187213D-02 -0.140098D-02
     24 -0.131652D-01 -0.150244D-02  0.155548D-02 -0.945418D-03 -0.103607D-02
     25 -0.130961D+00 -0.229916D-01 -0.162146D-01 -0.513201D-01 -0.285616D-01
     26 -0.332144D+00 -0.114059D-01 -0.426657D-01  0.172490D-01 -0.149771D-01
     27  0.443476D+00 -0.894655D-01  0.504312D-01  0.123380D+00  0.101209D+00
     28  0.301251D-01 -0.144203D-01  0.385828D-03 -0.380588D-02  0.313503D-02
     29  0.650985D-01 -0.368031D-02 -0.100659D-01  0.898454D-02 -0.213735D-02
     30  0.505782D+00 -0.224423D-01  0.199662D-01  0.261074D-01  0.294452D-01
     31 -0.151571D-01  0.584917D-02 -0.568975D-02 -0.780221D-02 -0.838855D-02
     32 -0.253913D-03 -0.128195D-02 -0.544405D-04  0.161028D-02  0.987212D-03
     33 -0.126687D-01 -0.413642D-02  0.302941D-02  0.474992D-02  0.435775D-02
     34  0.227809D-02  0.553826D-02 -0.497525D-02 -0.248240D-01  0.924936D-01
     35 -0.713277D-01 -0.156229D-01  0.991445D-02 -0.272451D-01  0.270824D-01
     36  0.160784D+00 -0.359512D-01 -0.742081D-02 -0.277922D-01  0.971433D-01
     37  0.113709D-01 -0.738758D-02 -0.711353D-02 -0.515459D-02  0.140405D-01
     38  0.184121D-01 -0.184277D-01 -0.251431D-02 -0.481784D-02  0.124662D-01
     39  0.509146D-02 -0.417643D-02 -0.127571D-01 -0.323468D-02 -0.331721D-02
     40  0.145697D+00 -0.535150D-02  0.113556D-01  0.165455D-01  0.383088D-03
     41  0.902422D-01  0.544149D-02  0.991110D-02  0.265779D-01  0.299993D-02
     42  0.124525D+00  0.628064D-02  0.290644D-01  0.322266D-01  0.644470D-02
     43  0.159363D+00  0.130870D-01  0.668915D-01  0.269986D+00  0.585113D-01
     44 -0.360351D-01 -0.583782D-02 -0.163240D+00  0.119478D-01 -0.594755D-02
     45 -0.226161D+00  0.147975D+00  0.520739D-01  0.344164D-01  0.291149D-01
     46  0.522810D-02 -0.294053D-02 -0.678115D-03 -0.103016D-01 -0.193829D-02
     47 -0.136864D-01  0.520626D-02 -0.425224D-02 -0.727737D-02 -0.896367D-02
     48  0.193652D-01 -0.107770D-01  0.785337D-02  0.277088D-02  0.101384D-01
               11            12            13            14            15
     11  0.427143D+01
     12  0.981575D-01  0.339317D+01
     13  0.664781D-03  0.997033D-02  0.152088D+02
     14 -0.340462D-03  0.836634D-02  0.175118D+01  0.123772D+02
     15  0.532625D-02 -0.107285D-01 -0.157471D-01 -0.115661D+00  0.152495D+02
     16  0.405419D-02  0.442532D-02 -0.405688D+01  0.512033D+00 -0.512275D+00
     17  0.733908D-02  0.111778D-01  0.654452D+00 -0.297346D+01 -0.136825D+01
     18  0.364377D-03 -0.613502D-02 -0.596441D+00 -0.123651D+01 -0.302243D+01
     19  0.102037D-02  0.240660D-02 -0.451161D+01  0.133003D+00  0.292039D+00
     20  0.858119D-03  0.785457D-02  0.238164D+00 -0.408619D+01  0.130754D+01
     21  0.479236D-02  0.975793D-02  0.421666D+00  0.999836D+00 -0.207185D+01
     22 -0.150467D-01 -0.236664D-01 -0.158368D+01  0.509150D+00  0.347771D+00
     23  0.621574D-02  0.278567D-01  0.260125D+00 -0.430126D+01  0.370829D-01
     24  0.223502D-01  0.101507D-01  0.362871D+00  0.715500D-01 -0.429024D+01
     25 -0.890440D-02  0.445979D-01 -0.213715D-01 -0.370222D+00  0.172152D+00
     26 -0.538230D-01 -0.316048D-01 -0.242711D+00  0.389877D+00 -0.148457D+00
     27 -0.336074D-01  0.138387D+00  0.109136D+00 -0.113599D+00 -0.107063D+00
     28 -0.123849D-02  0.213384D-01 -0.347146D+00 -0.441834D-01  0.114958D+00
     29 -0.138966D-01 -0.782271D-03 -0.143847D-01 -0.178559D+00 -0.348956D+00
     30 -0.163578D-02  0.277645D-01  0.421577D-01 -0.211470D+00  0.149946D+00
     31  0.332749D-03 -0.722216D-02 -0.274438D-01  0.437926D-01 -0.867190D-01
     32 -0.125285D-02  0.111040D-02  0.158758D-01 -0.425440D-02 -0.817267D-01
     33 -0.210911D-03  0.523300D-02 -0.326342D-01 -0.941818D-01  0.117917D+00
     34  0.305051D-01  0.102593D+00 -0.369482D-01  0.249442D+00  0.215955D-01
     35 -0.370194D-01  0.193939D-01  0.707121D-01 -0.219935D-01 -0.993923D-02
     36  0.201435D-01  0.213487D-01  0.185828D-01 -0.935231D-02  0.107927D+00
     37  0.414892D-02  0.736213D-02  0.561308D-01  0.872497D-02 -0.444100D-01
     38 -0.551042D-03  0.573710D-02  0.194580D-01 -0.323861D-01 -0.295778D-02
     39  0.549325D-03 -0.456946D-02 -0.589953D-01 -0.671792D-03 -0.100624D-01
     40 -0.202253D-02 -0.245728D-02  0.110010D-01 -0.928552D-02  0.565573D-01
     41 -0.773675D-03  0.134612D-02 -0.354051D-02 -0.246870D-01 -0.626123D-02
     42 -0.114676D-02  0.251293D-02  0.753017D-01 -0.148241D-01  0.243771D-01
     43 -0.876460D-02  0.427253D-01  0.178631D+00 -0.305532D+00 -0.949309D-02
     44 -0.179172D-01 -0.258150D-03 -0.292410D+00  0.685139D-01  0.147295D-01
     45 -0.153492D-02 -0.159242D-02 -0.335177D-01  0.296805D-01 -0.184376D+00
     46 -0.370714D-03 -0.477799D-04  0.724906D-02 -0.293523D-01  0.455961D-02
     47  0.000000D+00 -0.556391D-02 -0.454509D-01  0.301043D-01 -0.107774D-01
     48 -0.193013D-02  0.484399D-02  0.152853D-01 -0.148450D-01 -0.123158D-01
               16            17            18            19            20
     16  0.400426D+01
     17 -0.460845D+00  0.261828D+01
     18  0.485054D+00  0.138813D+01  0.301905D+01
     19  0.770988D-01 -0.116239D-02  0.351086D-01  0.451240D+01
     20  0.365610D-02  0.875693D-01  0.410630D-01 -0.515374D-01  0.367513D+01
     21  0.299483D-03  0.278559D-01 -0.882385D-01 -0.279402D+00 -0.121007D+01
     22 -0.195485D-01 -0.623368D-01  0.301438D-01  0.338478D-02 -0.547388D-01
     23 -0.647440D-01  0.347295D-01  0.901910D-02 -0.412277D-01  0.703792D-01
     24  0.595453D-01  0.270764D-01  0.561961D-01 -0.109498D+00 -0.513856D-01
     25 -0.484529D-01  0.254942D-01 -0.114827D-01 -0.183393D-01 -0.350709D-01
     26  0.256281D-01  0.131750D+00 -0.110143D+00 -0.124756D-01  0.582499D-01
     27 -0.128369D-01 -0.105237D+00  0.112658D-01 -0.203216D-02  0.931073D-02
     28 -0.229876D-01 -0.810687D-02  0.830939D-02 -0.133089D+00 -0.588245D-01
     29  0.550808D-02  0.249082D-01 -0.469496D-01 -0.288955D-01  0.992151D-01
     30 -0.315197D-02 -0.442233D-01  0.286957D-01  0.222368D-01 -0.135716D+00
     31  0.192273D-02  0.740201D-02 -0.843538D-02 -0.284352D-03  0.157113D-01
     32  0.503722D-03 -0.514886D-03 -0.149796D-02  0.104420D-02 -0.566047D-03
     33 -0.171891D-02 -0.346231D-02  0.326461D-02 -0.252332D-02 -0.709624D-02
     34 -0.828427D-02 -0.494629D-01  0.326592D-01 -0.194556D-01  0.343069D-01
     35 -0.339428D-01  0.412902D-01 -0.498328D-01  0.255958D-01 -0.170748D-01
     36  0.164487D-01 -0.292509D-01 -0.169625D-01  0.952215D-02 -0.854858D-02
     37  0.230000D-01 -0.308806D-01  0.944857D-02  0.284033D-02 -0.544199D-02
     38 -0.123394D-01 -0.879244D-02  0.123002D-02  0.579692D-04 -0.493984D-02
     39 -0.405641D-02  0.809431D-02 -0.187112D-01 -0.558265D-02  0.614721D-02
     40 -0.229244D-02 -0.415437D-02  0.513836D-02  0.432690D-01 -0.435738D-01
     41 -0.132134D-04 -0.311664D-02  0.776890D-03 -0.240381D-01 -0.138210D-01
     42  0.968921D-03 -0.102335D-01  0.927814D-02  0.112391D-01 -0.104381D-01
     43 -0.382078D-02 -0.390475D-01  0.218832D-01  0.329949D-02 -0.372890D-01
     44 -0.155541D-01  0.230385D-01 -0.197026D-01 -0.204079D-01  0.137467D-01
     45  0.470255D-02 -0.746939D-02 -0.129399D-01 -0.108264D-01  0.199344D-01
     46 -0.545220D-03  0.195394D-02 -0.171022D-02 -0.680258D-03 -0.490342D-04
     47  0.552599D-03  0.615440D-02 -0.546173D-02 -0.277405D-02  0.715952D-02
     48 -0.484563D-03 -0.526223D-02  0.328627D-02  0.505377D-03 -0.361708D-02
               21            22            23            24            25
     21  0.209327D+01
     22 -0.790540D-01  0.128783D+01
     23 -0.239856D-01 -0.772125D-01  0.415565D+01
     24  0.159709D-01 -0.438503D+00  0.620171D-01  0.426141D+01
     25 -0.592180D-02 -0.285240D-01 -0.353039D-01  0.260474D-01  0.960502D+01
     26  0.596469D-01 -0.103884D+00  0.656157D-01 -0.766567D-01 -0.160492D+01
     27 -0.170827D-01  0.518885D-01 -0.627256D-01 -0.338409D-01  0.172450D+01
     28  0.571359D-02  0.274046D-01 -0.208588D-01  0.429129D-01 -0.479104D+01
     29 -0.341738D-01 -0.465286D-01 -0.144165D-01 -0.334365D-01  0.826441D-01
     30 -0.969404D-01  0.516482D-01 -0.221368D-01  0.109040D-01  0.740694D+00
     31  0.486860D-02 -0.135815D-01  0.178182D-02 -0.626013D-02  0.308552D+00
     32  0.118832D-02 -0.210639D-02 -0.201357D-02 -0.279275D-02 -0.538406D-01
     33 -0.671451D-02  0.833962D-02 -0.303294D-02  0.419667D-02 -0.603323D-01
     34 -0.492503D-02  0.196248D+00 -0.781792D-01  0.144049D-01  0.703496D+00
     35  0.154003D-01 -0.807061D-01 -0.347748D-01 -0.574044D-02  0.168673D-01
     36  0.134649D-01  0.718883D-02 -0.254649D-02 -0.532110D-01 -0.798733D-01
     37 -0.120230D-01  0.107212D-02  0.194616D-02  0.852227D-03  0.569616D-01
     38 -0.381844D-02  0.655883D-02  0.214477D-03  0.178661D-03  0.110794D+00
     39  0.986031D-02 -0.639803D-02 -0.892548D-03 -0.686698D-03 -0.937308D-01
     40 -0.998676D-02  0.698031D-02  0.498332D-04  0.256285D-02  0.139790D-01
     41  0.124457D-03  0.375435D-02 -0.169884D-02  0.102124D-02  0.187951D-01
     42 -0.356689D-01  0.115262D-01  0.480141D-03  0.104588D-02  0.413559D-01
     43 -0.344246D-01  0.339491D-01 -0.444316D-02  0.567319D-02  0.607124D+00
     44  0.264251D-01 -0.142482D-01 -0.816424D-02 -0.118028D-02  0.873281D-01
     45  0.257448D-03 -0.413984D-02  0.962581D-03 -0.105773D-01 -0.365971D+00
     46  0.139307D-02 -0.239366D-02  0.113771D-04 -0.213944D-03  0.248036D+00
     47  0.753804D-02 -0.843616D-02  0.463670D-03 -0.139096D-02 -0.199414D+00
     48 -0.578049D-02  0.631944D-02 -0.966863D-03  0.186140D-03  0.168102D-01
               26            27            28            29            30
     26  0.759308D+01
     27  0.203813D+01  0.114004D+01
     28  0.134086D+00  0.904268D+00  0.756327D+01
     29 -0.404744D+01  0.227912D+01  0.575173D+00  0.112337D+02
     30  0.213726D+01  0.195434D+01  0.128473D+01 -0.165210D+01  0.306829D+01
     31 -0.879633D-01 -0.148198D+00 -0.227776D+01 -0.606096D+00 -0.141530D+01
     32  0.980499D-01 -0.533092D-01 -0.581413D+00 -0.654518D+01  0.309636D+00
     33 -0.614506D-01 -0.266086D+00 -0.164189D+01  0.350590D+00 -0.578219D+01
     34  0.186556D-01 -0.426909D-01 -0.136460D+00  0.108203D+00 -0.212990D+00
     35 -0.223383D+00  0.175875D+00  0.602118D-01 -0.219207D+00 -0.814201D-01
     36  0.160029D+00 -0.967603D-01 -0.309118D+00 -0.191288D+00  0.207597D+00
     37  0.955460D-01 -0.838497D-01  0.102535D-02  0.158081D-01 -0.283465D-01
     38  0.380657D-01 -0.762991D-01  0.193987D-01 -0.278476D-02 -0.255423D-01
     39 -0.745794D-01  0.130350D-01 -0.291598D-01 -0.220262D-01  0.229492D-01
     40 -0.321916D-02  0.366321D-02  0.719885D-01  0.106966D+00 -0.120836D+00
     41 -0.645392D-02  0.553046D-03  0.121071D+00 -0.405029D-01 -0.801735D-01
     42  0.269416D-01 -0.648410D-02 -0.529120D-01 -0.251077D-01 -0.708779D-01
     43 -0.329544D-01 -0.322665D+00  0.181361D+00 -0.107049D+00 -0.367533D+00
     44 -0.412673D+00 -0.244931D-01 -0.718559D-01 -0.255635D+00  0.626766D-01
     45  0.186401D-01 -0.280422D+00 -0.398527D+00  0.101318D+00  0.801389D-01
     46 -0.842146D-01 -0.551144D-01 -0.713975D-02 -0.278858D-01 -0.329474D-01
     47 -0.135729D+00  0.300808D-01 -0.627836D-01 -0.159184D-02  0.495418D-01
     48 -0.745022D-02 -0.188390D+00 -0.204273D-01  0.148193D-01 -0.184152D-01
               31            32            33            34            35
     31  0.189977D+01
     32  0.642040D+00  0.651356D+01
     33  0.181894D+01 -0.212168D+00  0.592925D+01
     34  0.192841D-01  0.419688D-02 -0.127203D-01  0.143625D+02
     35 -0.413891D-03 -0.123961D-01 -0.163888D-02  0.243910D+01  0.152127D+02
     36 -0.316964D-01 -0.248623D-02 -0.458921D-02 -0.128389D+00 -0.358140D+00
     37  0.539841D-02  0.159159D-03 -0.302815D-02 -0.435708D+01  0.784704D+00
     38  0.641859D-02 -0.970253D-03 -0.264878D-02  0.707344D+00 -0.331536D+01
     39 -0.840158D-02  0.324812D-04  0.315697D-02 -0.702086D+00 -0.139182D+01
     40 -0.639274D-02 -0.457107D-02  0.707236D-02 -0.486158D+01  0.248119D+00
     41  0.269491D-03  0.447052D-03  0.180458D-02  0.129614D+00 -0.412179D+01
     42  0.152644D-01  0.234035D-02 -0.428409D-02  0.257966D+00  0.131227D+01
     43  0.447097D-01 -0.874751D-02 -0.247821D-01 -0.591197D+01 -0.407213D+01
     44 -0.154983D-02 -0.125082D-01  0.184965D-02 -0.386676D+01 -0.951678D+00
     45 -0.382024D-01  0.671517D-02  0.625905D-02 -0.954113D-01  0.394929D+00
     46  0.233801D-03 -0.165858D-02 -0.201958D-02  0.191065D+00  0.726603D-01
     47 -0.113011D-01  0.699656D-03  0.405997D-02 -0.916664D-01  0.474431D-01
     48  0.244608D-02 -0.117072D-03 -0.262355D-02  0.156656D-01  0.479142D-01
               36            37            38            39            40
     36  0.199680D+02
     37 -0.825037D+00  0.407576D+01
     38 -0.148188D+01 -0.964921D+00  0.317002D+01
     39 -0.327630D+01  0.757697D+00  0.166923D+01  0.324693D+01
     40  0.539840D+00  0.170237D+00  0.150764D-03  0.502098D-01  0.450524D+01
     41  0.146261D+01  0.831799D-04  0.178964D+00  0.414015D-01 -0.534091D+00
     42 -0.223831D+01  0.854963D-01  0.553239D-01 -0.253833D+00 -0.448051D+00
     43 -0.230953D-01  0.258210D-01  0.160505D+00 -0.179449D-01  0.661705D-03
     44  0.297111D+00  0.185252D+00 -0.234981D+00 -0.180202D+00  0.177374D+00
     45 -0.835804D+01 -0.584114D-01 -0.132296D+00  0.212702D+00  0.689679D-01
     46 -0.525833D-01 -0.470680D-01  0.200247D-01 -0.113222D-01  0.298570D-01
     47  0.120466D+00  0.339311D-01  0.162142D+00 -0.118081D+00  0.315287D-02
     48  0.151338D+00 -0.164948D-01 -0.109716D+00  0.151861D-01 -0.172684D-02
               41            42            43            44            45
     41  0.406897D+01
     42 -0.154968D+01  0.215471D+01
     43  0.193596D+00  0.371061D-01  0.997820D+01
     44 -0.105400D+00  0.144424D+00  0.255525D+01  0.696115D+01
     45  0.114560D+00  0.375080D+00  0.192231D+01  0.190332D+01  0.135461D+02
     46  0.182605D-01  0.981970D-02 -0.607759D+01  0.146233D+01 -0.132517D+01
     47 -0.842900D-01 -0.144895D-01  0.190016D+01 -0.418672D+01 -0.243732D+01
     48 -0.284501D-01  0.168044D-01 -0.156655D+01 -0.226722D+01 -0.515012D+01
               46            47            48
     46  0.573637D+01
     47 -0.157178D+01  0.426044D+01
     48  0.145940D+01  0.241009D+01  0.509240D+01
 ReadGW:  IGet=0 IStart=         114 Next=        7213 LGW=        7099.
 ICntrl=12127.
 Symmetry not used in FoFDir.
 MinBra= 0 MaxBra= 2 Meth= 1.
 IRaf=       0 NMat=   1 IRICut=       1 DoRegI=T DoRafI=F ISym2E= 0 JSym2E=0.
 PrsmSu:  NPrtUS=   8 ThrOK=T
 PRISM was handed    16286110 working-precision words and  2500 shell-pairs
 PRISM was handed    16286110 working-precision words and  2500 shell-pairs
 PRISM was handed    16286110 working-precision words and  2500 shell-pairs
 PRISM was handed    16286110 working-precision words and  2500 shell-pairs
 PRISM was handed    16286110 working-precision words and  2500 shell-pairs
 PRISM was handed    16286110 working-precision words and  2500 shell-pairs
 PRISM was handed    16286110 working-precision words and  2500 shell-pairs
 PRISM was handed    16286110 working-precision words and  2500 shell-pairs
 Pruned (  75, 302) grid will be used in CalDFT.
 CkSvGd:  ISavGI=        -1 IRadAn=       4 IRASav=       4 ISavGd=        -1.
 CalDSu:  NPrtUS=   8 ThrOK=T
 IPart= 0 IRanGd=          0 ScrnBf=T ScrnGd=T RCrit=4.00D+00 DoMicB=T.
 IPart= 4 IRanGd=          0 ScrnBf=T ScrnGd=T RCrit=4.00D+00 DoMicB=T.
 CutRad = 1000.00    CtRdIn =    0.00    XCrit =  15.00   ICut = 0
 IPart= 1 IRanGd=          0 ScrnBf=T ScrnGd=T RCrit=4.00D+00 DoMicB=T.
 IPart= 2 IRanGd=          0 ScrnBf=T ScrnGd=T RCrit=4.00D+00 DoMicB=T.
 CutRad = 1000.00    CtRdIn =    0.00    XCrit =  15.00   ICut = 0
 IPart= 6 IRanGd=          0 ScrnBf=T ScrnGd=T RCrit=4.00D+00 DoMicB=T.
 IPart= 5 IRanGd=          0 ScrnBf=T ScrnGd=T RCrit=4.00D+00 DoMicB=T.
 CutRad = 1000.00    CtRdIn =    0.00    XCrit =  15.00   ICut = 0
 CutRad = 1000.00    CtRdIn =    0.00    XCrit =  15.00   ICut = 0
 CutRad = 1000.00    CtRdIn =    0.00    XCrit =  15.00   ICut = 0
 IPart= 7 IRanGd=          0 ScrnBf=T ScrnGd=T RCrit=4.00D+00 DoMicB=T.
 CutRad = 1000.00    CtRdIn =    0.00    XCrit =  15.00   ICut = 0
 IPart= 3 IRanGd=          0 ScrnBf=T ScrnGd=T RCrit=4.00D+00 DoMicB=T.
 CutRad = 1000.00    CtRdIn =    0.00    XCrit =  15.00   ICut = 0
 CutRad = 1000.00    CtRdIn =    0.00    XCrit =  15.00   ICut = 0
 IPart= 1        14283 of        16174 points in      32 batches and       82 microbatches, Max-NSigAt=      16 Max-NSgAt2=      16
 IPart= 5        13511 of        14988 points in      30 batches and       98 microbatches, Max-NSigAt=      16 Max-NSgAt2=      16
 IPart= 0        14591 of        17336 points in      38 batches and      122 microbatches, Max-NSigAt=      16 Max-NSgAt2=      16
 IPart= 4        15565 of        18206 points in      38 batches and      119 microbatches, Max-NSigAt=      16 Max-NSgAt2=      16
 IPart= 2        13741 of        15628 points in      33 batches and       94 microbatches, Max-NSigAt=      16 Max-NSgAt2=      16
 IPart= 7        11979 of        13396 points in      27 batches and       92 microbatches, Max-NSigAt=      16 Max-NSgAt2=      16
 IPart= 3        13687 of        15194 points in      30 batches and       85 microbatches, Max-NSigAt=      16 Max-NSgAt2=      16
 IPart= 6        14749 of        16868 points in      34 batches and       89 microbatches, Max-NSigAt=      16 Max-NSgAt2=      16
 Polarizability after L703:
                1             2             3
      1  0.562323D+02
      2 -0.274390D+01  0.535890D+02
      3 -0.100543D+01  0.186070D+01  0.665043D+02
 Dipole Derivatives after L703:
               1            2            3            4            5
      1 0.287251D+00-0.225820D-01-0.799374D-01 0.684783D-01-0.105420D+00
      2 0.547283D-01 0.464711D+00-0.607595D-01-0.111802D+00-0.194533D+00
      3-0.153853D+00-0.250065D+00 0.455098D+00 0.881655D-01 0.185186D+00
               6            7            8            9           10
      1 0.100193D+00 0.429820D-01 0.434077D-01-0.208859D-02-0.573179D-01
      2 0.104991D+00 0.631244D-01 0.572609D-01-0.523755D-01 0.192941D-01
      3-0.187051D+00 0.268895D-01-0.744955D-01 0.628316D-01-0.820915D-01
              11           12           13           14           15
      1 0.398169D-01-0.480631D-01 0.764080D-02 0.432816D-01 0.272105D-01
      2 0.898581D-01-0.435817D-01 0.102868D+00-0.800763D-01-0.420840D-01
      3-0.397847D-01 0.429164D-01 0.132731D-01 0.975528D-02 0.130319D-01
              16           17           18           19           20
      1 0.483632D-01-0.234468D-01 0.424145D-01 0.513362D-01 0.614115D-02
      2-0.499561D-01-0.112236D-01 0.963930D-01 0.319622D-02 0.438456D-01
      3 0.519042D-01 0.785321D-01-0.119790D-01-0.313794D-01-0.472435D-01
              21           22           23           24           25
      1-0.117286D-01-0.143384D+00-0.475338D-01-0.201668D-01-0.445380D+00
      2-0.102186D+00 0.765637D-02 0.383533D-01-0.940868D-02-0.225459D-01
      3-0.715663D-01-0.222099D-01-0.121923D-01 0.657565D-01 0.557429D-01
              26           27           28           29           30
      1-0.346134D-02 0.175599D-01-0.916750D-01-0.180208D-01 0.796381D-01
      2-0.406351D+00 0.110411D+00-0.279504D-01-0.344144D+00 0.830524D-01
      3 0.245288D+00 0.133477D+00 0.103676D+00-0.388454D-01-0.760283D+00
              31           32           33           34           35
      1 0.157619D+00 0.157908D-01-0.546180D-01 0.405520D+00-0.192720D+00
      2 0.275924D-01 0.324739D+00-0.433319D-01-0.236248D+00 0.578937D+00
      3-0.746515D-01-0.593869D-01 0.271878D+00 0.230977D-01 0.487742D-01
              36           37           38           39           40
      1-0.284062D-01 0.190758D-01-0.133901D-01 0.656534D-01 0.917010D-02
      2-0.114439D-01-0.236534D-01-0.393777D-01 0.102578D+00 0.224662D-01
      3 0.260059D+00 0.508790D-01 0.649540D-01-0.350996D-01-0.224936D-01
              41           42           43           44           45
      1 0.198558D-01-0.457267D-01-0.679975D+00 0.293859D+00-0.136590D+00
      2-0.457320D-01-0.116710D+00 0.258953D+00-0.752775D+00-0.248257D-01
      3-0.652981D-01-0.100353D+00-0.105168D+00-0.420788D-01-0.367942D+00
              46           47           48
      1 0.320296D+00-0.355783D-01 0.946554D-01
      2-0.877234D-01 0.276507D+00 0.928264D-02
      3 0.782201D-01-0.309824D-02 0.229226D+00
 Hessian after L703:
                1             2             3             4             5
      1  0.468226D+00
      2 -0.273135D-01  0.459242D+00
      3  0.451141D-01  0.106896D+00  0.427733D+00
      4 -0.890609D-01 -0.946062D-03 -0.308527D-01  0.580770D+00
      5  0.623909D-03 -0.915619D-01 -0.673728D-01 -0.165034D+00  0.265719D+00
      6 -0.301934D-01 -0.753337D-01 -0.164979D+00  0.797377D-01  0.180593D+00
      7  0.731747D-02 -0.266515D-02 -0.380843D-02 -0.190700D+00  0.133848D+00
      8  0.664050D-02 -0.287962D-02 -0.364063D-02  0.135332D+00 -0.138397D+00
      9  0.183994D-01 -0.160179D-01 -0.483977D-02  0.710887D-01 -0.845212D-01
     10 -0.130347D-02  0.130489D-02  0.210541D-02 -0.292161D+00  0.325413D-01
     11 -0.100469D-01  0.275217D-02 -0.481039D-02  0.299750D-01 -0.298997D-01
     12 -0.247692D-01  0.241136D-02 -0.593853D-02 -0.111374D+00 -0.838898D-02
     13 -0.113590D+00  0.478719D-01  0.503433D-02  0.336985D-02 -0.178035D-02
     14  0.412068D-01 -0.142682D+00 -0.149592D-01  0.872767D-02 -0.160172D-01
     15  0.556327D-02 -0.243580D-01 -0.785372D-01  0.160341D-01 -0.265242D-01
     16  0.529065D-02  0.825109D-02 -0.118621D-01  0.463349D-03 -0.313035D-03
     17 -0.115751D-01 -0.153084D-01  0.191635D-01  0.933317D-04  0.983973D-03
     18 -0.188273D-02 -0.358961D-02  0.212042D-02 -0.157739D-03 -0.686425D-03
     19  0.248090D-02  0.577203D-02  0.167201D-01 -0.140231D-02  0.211450D-02
     20 -0.518773D-02 -0.111152D-01 -0.279198D-01  0.383019D-02 -0.410790D-02
     21 -0.108040D-03 -0.158327D-02 -0.279024D-02  0.928950D-03 -0.110471D-02
     22 -0.194768D-01 -0.314857D-02 -0.181208D-02  0.705762D-03 -0.845674D-03
     23  0.320590D-01  0.342565D-02  0.375931D-02  0.311673D-03  0.102209D-02
     24  0.427325D-02  0.150289D-02 -0.122481D-02  0.120789D-02  0.138678D-03
     25 -0.708189D-01 -0.357984D-01 -0.275697D-02  0.231458D-02  0.428004D-02
     26 -0.303493D-01 -0.122037D+00 -0.187534D-01  0.445062D-02  0.102452D-01
     27  0.205542D-01  0.383706D-01 -0.452203D-01  0.361185D-02  0.356608D-02
     28  0.237690D-02  0.127239D-01  0.801535D-02  0.776042D-03 -0.136319D-02
     29  0.645640D-02  0.121812D-01  0.127916D-01 -0.431188D-03  0.146555D-02
     30 -0.688297D-02 -0.110633D-01 -0.390303D-01  0.475554D-02  0.856348D-02
     31 -0.930789D-03 -0.233014D-02 -0.809612D-04  0.496796D-03  0.688053D-03
     32 -0.221743D-02 -0.481834D-04  0.198568D-02  0.191208D-04 -0.436656D-03
     33  0.157323D-02 -0.431765D-02 -0.420258D-02  0.305180D-04  0.721864D-03
     34 -0.147531D+00 -0.204589D-01 -0.156385D-01 -0.112739D-01 -0.597265D-02
     35 -0.758674D-02 -0.748620D-01 -0.938007D-02 -0.158281D-01  0.171597D-03
     36 -0.270282D-01 -0.140089D-01 -0.823036D-01 -0.320503D-01 -0.417931D-02
     37 -0.792897D-02 -0.167278D-01  0.229012D-01  0.101159D-02  0.512086D-03
     38 -0.367607D-02 -0.228516D-02  0.292646D-02  0.179204D-03  0.463833D-03
     39 -0.356253D-02 -0.362336D-02  0.347944D-02 -0.323659D-03 -0.445679D-03
     40 -0.818306D-02 -0.127678D-01 -0.321806D-01 -0.613162D-02  0.155338D-03
     41 -0.334528D-02 -0.483082D-03 -0.590038D-02 -0.367220D-03  0.608374D-03
     42 -0.344733D-03 -0.209260D-02 -0.544555D-02 -0.119540D-02 -0.246856D-04
     43 -0.271240D-01  0.409893D-01  0.335690D-02  0.134555D-02  0.903198D-03
     44  0.143431D-01 -0.150254D-01  0.359800D-02 -0.201449D-03 -0.258551D-03
     45 -0.214310D-02  0.623367D-02  0.117168D-03 -0.928390D-03 -0.213956D-03
     46  0.256546D-03  0.524318D-02 -0.425496D-02 -0.523844D-03 -0.357623D-03
     47 -0.315439D-04  0.686829D-03  0.161644D-02 -0.110561D-03  0.000000D+00
     48  0.143740D-02  0.574249D-03  0.106241D-02 -0.513311D-03 -0.121504D-03
                6             7             8             9            10
      6  0.411542D+00
      7  0.754801D-01  0.192893D+00
      8 -0.887980D-01 -0.142797D+00  0.139760D+00
      9 -0.886608D-01 -0.792754D-01  0.947247D-01  0.886478D-01
     10 -0.116794D+00 -0.935561D-02 -0.169016D-02 -0.914850D-02  0.301208D+00
     11 -0.884400D-02  0.138764D-01  0.347501D-02  0.684910D-02 -0.319261D-01
     12 -0.909389D-01  0.991066D-02 -0.126974D-02  0.774764D-02  0.124548D+00
     13  0.205820D-02 -0.677631D-04 -0.159874D-03 -0.212045D-02  0.702277D-03
     14 -0.899161D-02 -0.571036D-03 -0.423803D-03 -0.405679D-03  0.492663D-03
     15 -0.652620D-02 -0.551666D-03 -0.200882D-02 -0.404360D-02  0.491505D-03
     16 -0.224102D-03 -0.175124D-04  0.216513D-04 -0.885648D-04 -0.805033D-04
     17  0.837725D-04 -0.551200D-04 -0.879201D-04 -0.826473D-04 -0.215510D-03
     18  0.126829D-03 -0.219340D-04  0.255352D-04  0.143721D-03 -0.826995D-04
     19 -0.486722D-03  0.275392D-03  0.289337D-03  0.698095D-03  0.177504D-03
     20  0.582503D-04 -0.308989D-03 -0.588112D-03 -0.120568D-02 -0.485241D-04
     21 -0.398607D-04 -0.363042D-03 -0.271445D-03  0.519001D-04  0.995627D-04
     22 -0.104576D-02  0.261621D-03 -0.150395D-04  0.122091D-03  0.407103D-03
     23  0.115042D-02 -0.121333D-03  0.123071D-03  0.150719D-03 -0.398497D-03
     24  0.350078D-03 -0.162006D-03  0.113989D-03 -0.506589D-04 -0.126410D-03
     25  0.134452D-02 -0.233193D-03 -0.328647D-03 -0.399648D-03  0.416423D-03
     26  0.406162D-02 -0.570064D-03 -0.544900D-03 -0.594836D-03  0.444327D-04
     27 -0.384531D-01 -0.964692D-04 -0.616646D-03  0.797145D-03 -0.712953D-04
     28  0.225153D-02  0.993274D-04  0.277090D-03 -0.349548D-03 -0.438153D-04
     29  0.123429D-02 -0.815194D-04  0.751796D-04  0.556909D-03  0.569479D-04
     30 -0.116484D-01 -0.729649D-03  0.478584D-04 -0.885055D-03  0.588045D-04
     31 -0.586002D-03 -0.103639D-03 -0.918627D-04 -0.298712D-04 -0.499062D-04
     32 -0.316750D-03  0.201637D-04 -0.120657D-04 -0.958828D-04  0.219877D-04
     33 -0.110609D-02 -0.941104D-04 -0.443527D-04  0.982375D-04  0.128669D-04
     34 -0.125073D-01  0.356500D-03  0.217868D-02  0.150259D-02  0.300368D-03
     35 -0.156659D-02 -0.907591D-03 -0.773905D-03 -0.164299D-02  0.673963D-03
     36 -0.850833D-02 -0.343389D-04 -0.332784D-03  0.697919D-03 -0.545777D-03
     37  0.187464D-03 -0.386546D-04 -0.309474D-03 -0.265967D-03  0.373553D-04
     38  0.115307D-03  0.288317D-04 -0.272407D-03  0.823756D-04  0.347109D-05
     39  0.337821D-03  0.626358D-04  0.544798D-04 -0.463642D-04  0.344171D-04
     40  0.481168D-03  0.704187D-04 -0.101495D-03  0.602213D-04 -0.143646D-03
     41  0.235728D-03  0.375994D-03 -0.446287D-04  0.252495D-03 -0.433656D-04
     42  0.255625D-03  0.179811D-03  0.240968D-03  0.164918D-03 -0.157100D-03
     43  0.265366D-03 -0.100411D-02  0.524366D-03  0.117568D-03 -0.160557D-03
     44 -0.395544D-02 -0.379838D-03  0.366217D-03  0.187890D-02 -0.755552D-03
     45 -0.151567D-02 -0.341961D-03  0.149418D-02  0.112289D-02 -0.601463D-03
     46  0.314011D-04  0.246429D-03  0.229990D-03 -0.310786D-03  0.494990D-04
     47  0.273321D-03  0.308048D-03  0.225135D-03  0.715727D-04 -0.619933D-04
     48 -0.235816D-03 -0.154226D-03  0.280668D-03 -0.945909D-03  0.176986D-03
               11            12            13            14            15
     11  0.238007D-01
     12  0.923757D-02  0.907341D-01
     13 -0.149739D-02 -0.547618D-03  0.546499D+00
     14  0.104502D-02  0.128153D-02  0.501731D-01  0.488467D+00
     15  0.197248D-03  0.144606D-02  0.698480D-02 -0.935873D-02  0.574287D+00
     16 -0.850434D-04  0.992622D-04 -0.723057D-01 -0.541489D-01  0.562486D-01
     17 -0.267352D-03 -0.135241D-03 -0.529161D-01 -0.163477D+00  0.118661D+00
     18  0.781422D-04 -0.276215D-04  0.555191D-01  0.119858D+00 -0.166633D+00
     19  0.207256D-03  0.209338D-03 -0.549866D-01 -0.159008D-01 -0.385291D-01
     20  0.364267D-04  0.237177D-03 -0.154178D-01 -0.818699D-01 -0.886118D-01
     21  0.301446D-03  0.411893D-04 -0.373538D-01 -0.915293D-01 -0.268848D+00
     22  0.242370D-03  0.733105D-03 -0.296576D+00 -0.413433D-01 -0.342967D-01
     23  0.834617D-04 -0.459234D-03 -0.439154D-01 -0.527654D-01 -0.629277D-02
     24 -0.249616D-03 -0.268810D-03 -0.350241D-01 -0.700525D-02 -0.519107D-01
     25 -0.127318D-03 -0.438933D-03  0.776201D-02  0.770409D-02 -0.667376D-02
     26 -0.271951D-03 -0.777017D-03 -0.147473D-01 -0.351282D-01  0.336266D-01
     27 -0.265738D-03  0.102005D-02  0.103136D-02  0.118441D-01 -0.471446D-02
     28 -0.283281D-04  0.736905D-03  0.457891D-04  0.338791D-03 -0.161579D-02
     29 -0.599639D-04  0.633985D-04  0.704436D-03 -0.339384D-02  0.270752D-03
     30 -0.333976D-03 -0.327502D-03  0.229996D-03 -0.191881D-04  0.216646D-02
     31 -0.954605D-04 -0.286265D-04  0.499411D-03  0.532763D-03  0.496052D-03
     32  0.141373D-03 -0.405974D-05  0.365915D-03  0.952060D-03  0.765156D-03
     33 -0.168278D-04 -0.207295D-03  0.264161D-03 -0.220706D-03  0.626015D-03
     34 -0.284372D-03  0.205896D-02 -0.143544D-01  0.857210D-02 -0.309248D-02
     35 -0.127379D-02 -0.300398D-02  0.294308D-01  0.310014D-02  0.269142D-02
     36 -0.242828D-02 -0.438356D-02  0.404110D-02 -0.713838D-03  0.273014D-02
     37 -0.626756D-04  0.425846D-04  0.771085D-03  0.568557D-04 -0.593778D-04
     38 -0.583101D-04 -0.320851D-04 -0.227198D-04 -0.359866D-03 -0.153135D-04
     39 -0.425786D-04  0.182673D-03  0.469478D-03  0.270320D-03 -0.203545D-03
     40 -0.767548D-03 -0.156049D-02  0.113056D-02 -0.113907D-02 -0.441704D-03
     41 -0.638894D-04 -0.746993D-04  0.154245D-03 -0.860880D-05  0.443089D-03
     42 -0.335018D-03  0.933382D-05  0.482000D-05 -0.115545D-03 -0.547816D-04
     43  0.598182D-03  0.414343D-03 -0.831833D-02 -0.412010D-02 -0.124366D-02
     44  0.578942D-03  0.104650D-02  0.261302D-02  0.304452D-02  0.402599D-03
     45  0.846134D-03  0.986327D-03 -0.103300D-02 -0.527776D-03  0.451170D-03
     46  0.219451D-04 -0.344182D-04 -0.580520D-03 -0.581735D-03  0.685964D-03
     47 -0.181956D-04 -0.132514D-03 -0.856583D-03 -0.482854D-03  0.111926D-03
     48 -0.183215D-03 -0.751520D-04  0.441585D-03  0.592439D-03 -0.234620D-03
               16            17            18            19            20
     16  0.748616D-01
     17  0.583105D-01  0.177818D+00
     18 -0.617335D-01 -0.130977D+00  0.179024D+00
     19  0.971070D-03  0.480314D-02  0.977756D-02  0.558111D-01
     20  0.447126D-02  0.934424D-02  0.202550D-01  0.151730D-01  0.883796D-01
     21 -0.373648D-02 -0.809528D-02 -0.183933D-01  0.410523D-01  0.996348D-01
     22 -0.845927D-02 -0.130545D-02 -0.128757D-02 -0.326155D-02 -0.631155D-03
     23 -0.210386D-01 -0.335232D-02 -0.439882D-02 -0.112056D-01 -0.265482D-02
     24  0.221446D-01  0.244768D-02  0.318530D-02 -0.295257D-01 -0.434739D-02
     25 -0.318723D-03  0.343453D-02  0.216123D-03  0.226143D-03 -0.310761D-03
     26  0.476165D-02 -0.795272D-02 -0.208681D-02 -0.139333D-02  0.125776D-02
     27 -0.776563D-03  0.701634D-03 -0.421442D-03 -0.157664D-03 -0.139302D-02
     28  0.106083D-03 -0.389989D-03 -0.102602D-03 -0.235120D-03 -0.579917D-03
     29 -0.122347D-03  0.128034D-02  0.179904D-02  0.518322D-03  0.165260D-02
     30  0.221460D-03 -0.136955D-02  0.349272D-03 -0.533240D-03  0.179822D-02
     31 -0.195352D-03 -0.801288D-04 -0.170983D-03 -0.957575D-04 -0.165211D-03
     32  0.161208D-03 -0.132985D-03 -0.576145D-03 -0.697154D-03 -0.110667D-02
     33 -0.206553D-03 -0.345061D-04  0.299510D-03  0.172865D-03  0.101965D-02
     34 -0.322126D-03 -0.552501D-03  0.434306D-03  0.525253D-03 -0.152951D-02
     35 -0.246877D-03  0.282426D-03  0.503806D-03  0.521030D-03  0.261058D-03
     36 -0.144028D-03  0.431129D-03 -0.212297D-03  0.121893D-02 -0.371446D-03
     37 -0.566892D-03  0.806742D-03 -0.247546D-03 -0.627268D-04 -0.580964D-04
     38  0.453655D-03  0.318739D-03 -0.102773D-03  0.692960D-04  0.310676D-04
     39  0.662287D-04 -0.254275D-03  0.406088D-03 -0.118101D-04  0.135680D-03
     40  0.179319D-04  0.181468D-04  0.589951D-04 -0.534046D-03  0.715411D-03
     41  0.177997D-04 -0.678375D-05  0.127844D-03  0.242131D-03  0.390287D-03
     42 -0.561149D-04 -0.865538D-04 -0.592923D-04 -0.294063D-03  0.327185D-03
     43  0.344082D-03  0.111286D-03 -0.419893D-03  0.000000D+00 -0.393813D-05
     44 -0.576055D-03  0.492671D-03 -0.121707D-03 -0.559392D-03  0.180045D-03
     45  0.161906D-03 -0.494488D-03  0.830197D-04 -0.340677D-03  0.586931D-03
[...]
    X8       -0.29629   0.00000   0.00000  -0.00008  -0.00011  -0.29640
    Y8       -0.36390   0.00000   0.00000   0.00009   0.00000  -0.36390
    Z8        0.46696  -0.00001   0.00000  -0.00035  -0.00029   0.46666
    X9       -2.83591   0.00000   0.00000  -0.00007  -0.00003  -2.83594
    Y9        3.71475   0.00000   0.00000  -0.00006  -0.00012   3.71463
    Z9       -1.28308   0.00000   0.00000  -0.00004  -0.00003  -1.28312
   X10       -3.17779   0.00000   0.00000   0.00035   0.00041  -3.17737
   Y10        2.78431   0.00001   0.00000  -0.00047  -0.00052   2.78378
   Z10       -3.87609   0.00000   0.00000   0.00003   0.00003  -3.87606
   X11       -1.43269  -0.00001   0.00000   0.00047   0.00055  -1.43215
   Y11        2.56186   0.00001   0.00000   0.00105   0.00098   2.56284
   Z11       -4.36555   0.00000   0.00000  -0.00014  -0.00011  -4.36566
   X12       -6.61603   0.00000   0.00000  -0.00011  -0.00012  -6.61615
   Y12        1.49174   0.00000   0.00000   0.00004   0.00002   1.49176
   Z12        0.07422   0.00000   0.00000   0.00008   0.00003   0.07425
   X13       -7.41261   0.00000   0.00000  -0.00005  -0.00009  -7.41270
   Y13        0.24541  -0.00001   0.00000   0.00015   0.00014   0.24555
   Z13        1.51485   0.00000   0.00000   0.00023   0.00016   1.51501
   X14       -6.90238   0.00000   0.00000  -0.00017  -0.00015  -6.90253
   Y14        0.61728   0.00000   0.00000  -0.00017  -0.00019   0.61710
   Z14       -1.78254   0.00000   0.00000   0.00019   0.00013  -1.78241
   X15       -7.90702   0.00000   0.00000  -0.00014  -0.00013  -7.90714
   Y15        3.82731   0.00000   0.00000   0.00003   0.00003   3.82734
   Z15        0.26209   0.00001   0.00000  -0.00014  -0.00021   0.26188
   X16       -7.03566  -0.00001   0.00000   0.00013   0.00017  -7.03549
   Y16        4.97692   0.00000   0.00000   0.00010   0.00009   4.97700
   Z16       -0.85426   0.00002   0.00000   0.00016   0.00010  -0.85415
         Item               Value     Threshold  Converged?
 Maximum Force            0.000016     0.000450     YES
 RMS     Force            0.000006     0.000300     YES
 Maximum Displacement     0.000977     0.001800     YES
 RMS     Displacement     0.000263     0.001200     YES
 Predicted change in Energy=-6.248692D-10
 Optimization completed.
    -- Stationary point found.
 GradGradGradGradGradGradGradGradGradGradGradGradGradGradGradGradGradGrad


 Test job not archived.
 1\1\GINC-NODE27\Freq\UB3LYP\CBSB7\C4H9O3(2)\NYEE\10-Jun-2013\0\\# freq
  nosymm b3lyp/cbsb7 iop(7/33=1)\\Title Card Required\\0,2\C,-1.990087,
 0.954287,0.277089\C,-1.713586,1.608663,1.58555\H,-2.456086,2.26456,2.0
 18562\H,-0.731998,1.534106,2.035872\C,-1.227774,-0.35698,0.103657\H,-1
 .562056,-1.091868,0.840076\H,-1.390695,-0.768645,-0.893522\H,-0.156792
 ,-0.192568,0.247104\O,-1.500699,1.965763,-0.678979\O,-1.681613,1.47339
 1,-2.05114\H,-0.758148,1.35568,-2.310151\C,-3.501053,0.789394,0.039276
 \H,-3.922583,0.129868,0.801624\H,-3.652581,0.326652,-0.943278\O,-4.184
 213,2.025327,0.138694\H,-3.72311,2.633671,-0.452054\\Version=AM64L-G03
 RevD.01\HF=-383.4593386\S2=0.754013\S2-1=0.\S2A=0.750011\RMSD=4.894e-0
 9\RMSF=5.799e-06\ZeroPoint=0.129264\Thermal=0.1383336\Dipole=0.9187484
 ,-0.6257332,-0.053093\DipoleDeriv=0.2872507,0.0547283,-0.1538535,-0.02
 2582,0.4647107,-0.2500655,-0.0799374,-0.0607595,0.4550981,0.0684783,-0
 .1118019,0.0881655,-0.1054202,-0.194533,0.1851856,0.1001933,0.1049906,
 -0.1870515,0.042982,0.0631244,0.0268895,0.0434077,0.0572609,-0.0744955
 ,-0.0020886,-0.0523755,0.0628316,-0.0573179,0.0192941,-0.0820915,0.039
 8169,0.0898581,-0.0397847,-0.0480631,-0.0435817,0.0429164,0.0076408,0.
 1028685,0.0132731,0.0432816,-0.0800763,0.0097553,0.0272105,-0.042084,0
 .0130319,0.0483632,-0.0499561,0.0519042,-0.0234468,-0.0112236,0.078532
 1,0.0424145,0.096393,-0.011979,0.0513362,0.0031962,-0.0313794,0.006141
 2,0.0438456,-0.0472435,-0.0117286,-0.1021861,-0.0715663,-0.1433843,0.0
 076564,-0.0222099,-0.0475338,0.0383533,-0.0121923,-0.0201668,-0.009408
 7,0.0657565,-0.4453798,-0.0225459,0.0557429,-0.0034613,-0.4063507,0.24
 52878,0.0175599,0.1104108,0.1334766,-0.091675,-0.0279504,0.1036758,-0.
 0180208,-0.3441444,-0.0388454,0.0796381,0.0830524,-0.7602829,0.1576193
 ,0.0275924,-0.0746515,0.0157908,0.3247395,-0.0593869,-0.054618,-0.0433
 319,0.271878,0.4055199,-0.2362481,0.0230977,-0.1927197,0.5789375,0.048
 7742,-0.0284062,-0.0114439,0.2600592,0.0190758,-0.0236534,0.050879,-0.
 0133901,-0.0393777,0.064954,0.0656534,0.1025776,-0.0350996,0.0091701,0
 .0224662,-0.0224936,0.0198558,-0.045732,-0.0652981,-0.0457267,-0.11671
 ,-0.1003531,-0.6799749,0.2589529,-0.1051685,0.293859,-0.7527752,-0.042
 0788,-0.1365898,-0.0248257,-0.3679417,0.3202957,-0.0877234,0.0782201,-
 0.0355783,0.2765074,-0.0030982,0.0946554,0.0092826,0.2292257\Polar=56.
 2323214,-2.7439015,53.589043,-1.0054278,1.8607002,66.5043223\PG=C01 [X
 (C4H9O3)]\NImag=0\\0.46822567,-0.02731350,0.45924240,0.04511411,0.1068
 9555,0.42773258,-0.08906088,-0.00094606,-0.03085273,0.58076993,0.00062
 391,-0.09156193,-0.06737277,-0.16503398,0.26571885,-0.03019340,-0.0753
 3367,-0.16497909,0.07973770,0.18059335,0.41154192,0.00731747,-0.002665
 15,-0.00380843,-0.19069966,0.13384807,0.07548009,0.19289298,0.00664050
 ,-0.00287962,-0.00364063,0.13533180,-0.13839695,-0.08879800,-0.1427968
 6,0.13975970,0.01839942,-0.01601787,-0.00483977,0.07108872,-0.08452123
 ,-0.08866081,-0.07927536,0.09472474,0.08864779,-0.00130347,0.00130489,
 0.00210541,-0.29216127,0.03254130,-0.11679416,-0.00935561,-0.00169016,
 -0.00914850,0.30120826,-0.01004694,0.00275217,-0.00481039,0.02997498,-
 0.02989970,-0.00884400,0.01387640,0.00347501,0.00684910,-0.03192606,0.
 02380074,-0.02476923,0.00241136,-0.00593853,-0.11137370,-0.00838898,-0
 .09093893,0.00991066,-0.00126974,0.00774764,0.12454786,0.00923757,0.09
 073413,-0.11359023,0.04787189,0.00503433,0.00336985,-0.00178035,0.0020
 5820,-0.00006776,-0.00015987,-0.00212045,0.00070228,-0.00149739,-0.000
 54762,0.54649896,0.04120677,-0.14268238,-0.01495916,0.00872767,-0.0160
 1716,-0.00899161,-0.00057104,-0.00042380,-0.00040568,0.00049266,0.0010
 4502,0.00128153,0.05017313,0.48846698,0.00556327,-0.02435802,-0.078537
 23,0.01603406,-0.02652420,-0.00652620,-0.00055167,-0.00200882,-0.00404
 360,0.00049151,0.00019725,0.00144606,0.00698480,-0.00935873,0.57428650
 ,0.00529065,0.00825109,-0.01186214,0.00046335,-0.00031304,-0.00022410,
 -0.00001751,0.00002165,-0.00008856,-0.00008050,-0.00008504,0.00009926,
 -0.07230566,-0.05414886,0.05624863,0.07486156,-0.01157512,-0.01530837,
 0.01916353,0.00009333,0.00098397,0.00008377,-0.00005512,-0.00008792,-0
 .00008265,-0.00021551,-0.00026735,-0.00013524,-0.05291613,-0.16347665,
 0.11866088,0.05831052,0.17781773,-0.00188273,-0.00358961,0.00212042,-0
 .00015774,-0.00068642,0.00012683,-0.00002193,0.00002554,0.00014372,-0.
 00008270,0.00007814,-0.00002762,0.05551911,0.11985836,-0.16663295,-0.0
 6173352,-0.13097729,0.17902359,0.00248090,0.00577203,0.01672014,-0.001
 40231,0.00211450,-0.00048672,0.00027539,0.00028934,0.00069810,0.000177
 50,0.00020726,0.00020934,-0.05498658,-0.01590077,-0.03852910,0.0009710
 7,0.00480314,0.00977756,0.05581112,-0.00518773,-0.01111516,-0.02791981
 ,0.00383019,-0.00410790,0.00005825,-0.00030899,-0.00058811,-0.00120568
 ,-0.00004852,0.00003643,0.00023718,-0.01541775,-0.08186991,-0.08861181
 ,0.00447126,0.00934424,0.02025501,0.01517301,0.08837955,-0.00010804,-0
 .00158327,-0.00279024,0.00092895,-0.00110471,-0.00003986,-0.00036304,-
 0.00027144,0.00005190,0.00009956,0.00030145,0.00004119,-0.03735382,-0.
 09152928,-0.26884822,-0.00373648,-0.00809528,-0.01839332,0.04105229,0.
 09963482,0.29331929,-0.01947678,-0.00314857,-0.00181208,0.00070576,-0.
 00084567,-0.00104576,0.00026162,-0.00001504,0.00012209,0.00040710,0.00
 024237,0.00073311,-0.29657648,-0.04134326,-0.03429674,-0.00845927,-0.0
 0130545,-0.00128757,-0.00326155,-0.00063116,-0.00031166,0.32354684,0.0
 3205896,0.00342565,0.00375931,0.00031167,0.00102209,0.00115042,-0.0001
 2133,0.00012307,0.00015072,-0.00039850,0.00008346,-0.00045923,-0.04391
 535,-0.05276541,-0.00629277,-0.02103860,-0.00335232,-0.00439882,-0.011
 20562,-0.00265482,-0.00021653,0.04370771,0.05669575,0.00427325,0.00150
 289,-0.00122481,0.00120789,0.00013868,0.00035008,-0.00016201,0.0001139
 9,-0.00005066,-0.00012641,-0.00024962,-0.00026881,-0.03502405,-0.00700
 525,-0.05191073,0.02214456,0.00244768,0.00318530,-0.02952574,-0.004347
 39,-0.00194849,0.03764546,0.00786908,0.05174119,-0.07081887,-0.0357984
 2,-0.00275697,0.00231458,0.00428004,0.00134452,-0.00023319,-0.00032865
 ,-0.00039965,0.00041642,-0.00012732,-0.00043893,0.00776201,0.00770409,
 -0.00667376,-0.00031872,0.00343453,0.00021612,0.00022614,-0.00031076,0
 .00028345,0.00250730,-0.00168590,-0.00051410,0.11914454,-0.03034932,-0
 .12203689,-0.01875340,0.00445062,0.01024523,0.00406162,-0.00057006,-0.
 00054490,-0.00059484,0.00004443,-0.00027195,-0.00077702,-0.01474728,-0
 .03512823,0.03362660,0.00476165,-0.00795272,-0.00208681,-0.00139333,0.
 00125776,-0.00064280,-0.00061608,0.00297895,-0.00000401,0.07298212,0.2
 3164185,0.02055422,0.03837057,-0.04522026,0.00361185,0.00356608,-0.038
 45310,-0.00009647,-0.00061665,0.00079714,-0.00007130,-0.00026574,0.001
 02005,0.00103136,0.01184412,-0.00471446,-0.00077656,0.00070163,-0.0004
 2144,-0.00015766,-0.00139302,-0.00100472,-0.00000985,-0.00091876,0.000
 46159,-0.03083444,0.01915086,0.26716089,0.00237690,0.01272395,0.008015
 35,0.00077604,-0.00136319,0.00225153,0.00009933,0.00027709,-0.00034955
 ,-0.00004382,-0.00002833,0.00073691,0.00004579,0.00033879,-0.00161579,
 0.00010608,-0.00038999,-0.00010260,-0.00023512,-0.00057992,-0.00021060
 ,0.00003005,0.00003789,0.00021811,-0.04964326,-0.01674313,0.00829751,0
 .53843459,0.00645640,0.01218119,0.01279164,-0.00043119,0.00146555,0.00
 123429,-0.00008152,0.00007518,0.00055691,0.00005695,-0.00005996,0.0000
 6340,0.00070444,-0.00339384,0.00027075,-0.00012235,0.00128034,0.001799
 04,0.00051832,0.00165260,0.00330912,0.00007499,0.00006889,0.00013306,-
 0.02580214,-0.06243425,-0.06401879,-0.03859169,0.05623189,-0.00688297,
 -0.01106332,-0.03903031,0.00475554,0.00856348,-0.01164837,-0.00072965,
 0.00004786,-0.00088506,0.00005880,-0.00033398,-0.00032750,0.00023000,-
 0.00001919,0.00216646,0.00022146,-0.00136955,0.00034927,-0.00053324,0.
 00179822,-0.00090862,-0.00036535,0.00008991,-0.00063876,-0.02462759,-0
 .04369608,-0.14782421,-0.09953411,0.06433836,0.25183866,-0.00093079,-0
 .00233014,-0.00008096,0.00049680,0.00068805,-0.00058600,-0.00010364,-0
 .00009186,-0.00002987,-0.00004991,-0.00009546,-0.00002863,0.00049941,0
 .00053276,0.00049605,-0.00019535,-0.00008013,-0.00017098,-0.00009576,-
 0.00016521,-0.00004911,-0.00022533,0.00010217,-0.00027442,0.01371147,-
 0.00362776,-0.01271193,-0.48929388,0.05762012,0.12571507,0.47614610,-0
 .00221743,-0.00004818,0.00198568,0.00001912,-0.00043666,-0.00031675,0.
 00002016,-0.00001207,-0.00009588,0.00002199,0.00014137,-0.00000406,0.0
 0036591,0.00095206,0.00076516,0.00016121,-0.00013298,-0.00057615,-0.00
 069715,-0.00110667,0.00005686,0.00028763,-0.00010375,0.00027454,0.0108
 3905,-0.00490470,-0.01418951,0.04401828,-0.00794071,-0.01839566,-0.052
 79720,0.01406989,0.00157323,-0.00431765,-0.00420258,0.00003052,0.00072
 186,-0.00110609,-0.00009411,-0.00004435,0.00009824,0.00001287,-0.00001
 683,-0.00020729,0.00026416,-0.00022071,0.00062601,-0.00020655,-0.00003
 451,0.00029951,0.00017287,0.00101965,-0.00001571,-0.00034683,0.0002027
 8,-0.00034700,0.03271181,-0.00615713,-0.02710204,0.07794147,-0.0209295
 2,-0.05465637,-0.11191304,0.03007499,0.08672516,-0.14753103,-0.0204588
 7,-0.01563854,-0.01127386,-0.00597265,-0.01250727,0.00035650,0.0021786
 8,0.00150259,0.00030037,-0.00028437,0.00205896,-0.01435438,0.00857210,
 -0.00309248,-0.00032213,-0.00055250,0.00043431,0.00052525,-0.00152951,
 -0.00067043,0.00166324,-0.00076405,-0.00024991,-0.02201249,-0.01209175
 ,0.01147092,-0.00233102,-0.00055312,-0.00095915,-0.00042600,-0.0004166
 0,-0.00016393,0.44324874,-0.00758674,-0.07486204,-0.00938007,-0.015828
 13,0.00017160,-0.00156659,-0.00090759,-0.00077390,-0.00164299,0.000673
 96,-0.00127379,-0.00300398,0.02943080,0.00310014,0.00269142,-0.0002468
 8,0.00028243,0.00050381,0.00052103,0.00026106,-0.00009529,0.00329871,-
 0.00508349,-0.00059902,-0.02949167,-0.01864999,0.00937257,-0.00080375,
 0.00008661,0.00168948,-0.00000134,-0.00075228,-0.00059737,0.04597768,0
 .54225769,-0.02702816,-0.01400893,-0.08230362,-0.03205028,-0.00417931,
 -0.00850833,-0.00003434,-0.00033278,0.00069792,-0.00054578,-0.00242828
 ,-0.00438356,0.00404110,-0.00071384,0.00273014,-0.00014403,0.00043113,
 -0.00021230,0.00121893,-0.00037145,-0.00034090,0.00101268,-0.00092758,
 -0.00032476,0.03165555,0.02021193,-0.00486425,0.00156452,-0.00153181,0
 .00236472,-0.00067545,0.00013747,-0.00033042,-0.03353269,-0.02625114,0
 .61656364,-0.00792897,-0.01672780,0.02290117,0.00101159,0.00051209,0.0
 0018746,-0.00003865,-0.00030947,-0.00026597,0.00003736,-0.00006268,0.0
 0004258,0.00077109,0.00005686,-0.00005938,-0.00056689,0.00080674,-0.00
 024755,-0.00006273,-0.00005810,-0.00003877,0.00023928,0.00009203,-0.00
 033539,-0.00819810,-0.00417228,0.00109350,0.00065613,0.00043742,-0.001
 30318,0.00020267,-0.00009100,-0.00006930,-0.09333606,-0.06453419,0.075
 64444,0.09767583,-0.00367607,-0.00228516,0.00292646,0.00017920,0.00046
 383,0.00011531,0.00002883,-0.00027241,0.00008238,0.00000347,-0.0000583
 1,-0.00003209,-0.00002272,-0.00035987,-0.00001531,0.00045366,0.0003187
 4,-0.00010277,0.00006930,0.00003107,-0.00008272,-0.00018182,0.00014329
 ,-0.00016298,-0.00051900,0.00061934,-0.00026567,0.00026876,0.00026879,
 -0.00021910,0.00009574,0.00005877,0.00002238,-0.05735098,-0.13034012,0
 .10057071,0.06051776,0.15847680,-0.00356253,-0.00362336,0.00347944,-0.
 00032366,-0.00044568,0.00033782,0.00006264,0.00005448,-0.00004636,0.00
 003442,-0.00004258,0.00018267,0.00046948,0.00027032,-0.00020355,0.0000
 6623,-0.00025428,0.00040609,-0.00001181,0.00013568,-0.00002227,0.00009
 770,-0.00027018,0.00005813,-0.00150568,-0.00157234,0.00015314,0.000362
 53,0.00052139,0.00024290,0.00019074,0.00017358,0.00018727,0.07475398,0
 .10841378,-0.18386229,-0.07934984,-0.11769315,0.19108432,-0.00818306,-
 0.01276780,-0.03218062,-0.00613162,0.00015534,0.00048117,0.00007042,-0
 .00010150,0.00006022,-0.00014365,-0.00076755,-0.00156049,0.00113056,-0
 .00113907,-0.00044170,0.00001793,0.00001815,0.00005900,-0.00053405,0.0
 0071541,0.00036979,0.00021617,-0.00000212,0.00038581,0.00228784,0.0008
 2595,-0.00078900,-0.00030714,-0.00000417,0.00197431,0.00011826,0.00017
 360,0.00012024,-0.05547746,-0.01702957,-0.03443712,0.00342463,0.004434
 69,0.01233171,0.06225877,-0.00334528,-0.00048308,-0.00590038,-0.000367
 22,0.00060837,0.00023573,0.00037599,-0.00004463,0.00025249,-0.00004337
 ,-0.00006389,-0.00007470,0.00015425,-0.00000861,0.00044309,0.00001780,
 -0.00000678,0.00012784,0.00024213,0.00039029,0.00010696,-0.00016266,0.
 00005666,0.00017399,0.00034227,0.00009139,-0.00102532,0.00032413,0.000
 09483,0.00024318,0.00026507,0.00033302,0.00018317,-0.01861159,-0.08386
 925,-0.07941310,0.00317164,0.00933145,0.01624129,0.01022972,0.10166746
 ,-0.00034473,-0.00209260,-0.00544555,-0.00119540,-0.00002469,0.0002556
 2,0.00017981,0.00024097,0.00016492,-0.00015710,-0.00033502,0.00000933,
 0.00000482,-0.00011554,-0.00005478,-0.00005611,-0.00008655,-0.00005929
 ,-0.00029406,0.00032718,0.00053041,-0.00004519,0.00021976,0.00027491,-
 0.00050836,-0.00013678,-0.00083773,0.00200533,0.00143939,-0.00050127,0
 .00038773,0.00016116,0.00020146,-0.03701720,-0.08451229,-0.25696355,-0
 .00434767,-0.00749041,-0.01906100,0.03690428,0.09848526,0.27405555,-0.
 02712405,0.04098928,0.00335690,0.00134555,0.00090320,0.00026537,-0.001
 00411,0.00052437,0.00011757,-0.00016056,0.00059818,0.00041434,-0.00831
 833,-0.00412010,-0.00124366,0.00034408,0.00011129,-0.00041989,0.000000
 02,-0.00000394,0.00023995,-0.00144556,0.00271491,0.00033439,0.00019095
 ,0.00345557,-0.00177570,-0.00008001,-0.00035040,0.00111172,0.00050184,
 0.00038416,-0.00015264,-0.10768567,0.03874420,0.02667374,0.00776947,-0
 .00821635,-0.00294717,0.00124303,0.00699852,0.00381302,0.27636314,0.01
 434314,-0.01502543,0.00359800,-0.00020145,-0.00025855,-0.00395544,-0.0
 0037984,0.00036622,0.00187890,-0.00075555,0.00057894,0.00104650,0.0026
 1302,0.00304452,0.00040260,-0.00057606,0.00049267,-0.00012171,-0.00055
 939,0.00018005,0.00023039,0.00082358,-0.00094608,-0.00023705,-0.004280
 92,0.00388456,-0.00007383,0.00022649,0.00098571,-0.00130969,0.00000392
 ,-0.00018346,0.00042756,0.07752074,-0.19600294,-0.01853177,0.01668618,
 -0.03148123,0.00016905,0.01632698,-0.02892456,-0.00605631,0.02967656,0
 .47516920,-0.00214310,0.00623367,0.00011717,-0.00092839,-0.00021396,-0
 .00151567,-0.00034196,0.00149418,0.00112289,-0.00060146,0.00084613,0.0
 0098633,-0.00103300,-0.00052778,0.00045117,0.00016191,-0.00049449,0.00
 008302,-0.00034068,0.00058693,0.00045546,-0.00022174,0.00029850,0.0006
 0681,0.00200193,-0.00251826,0.00054949,-0.00017855,0.00073585,0.001124
 48,0.00011399,0.00006948,0.00023258,0.01489653,0.00785987,-0.08159067,
 -0.01370459,0.02218821,0.00572821,0.01680305,-0.02836856,0.00677250,-0
 .18032068,-0.17330000,0.26622492,0.00025655,0.00524318,-0.00425496,-0.
 00052384,-0.00035762,0.00003140,0.00024643,0.00022999,-0.00031079,0.00
 004950,0.00002195,-0.00003442,-0.00058052,-0.00058173,0.00068596,0.000
 21131,-0.00048774,0.00010112,0.00011068,0.00005172,-0.00013204,-0.0001
 3239,0.00010612,0.00000257,0.00266337,-0.00220935,0.00116355,-0.000590
 67,0.00006794,0.00086835,-0.00035590,-0.00007173,0.00011923,0.00865599
 ,0.01778347,-0.01336311,-0.00165665,0.00391551,-0.00066872,0.00000936,
 0.00040859,0.00067084,-0.14193981,-0.15146740,0.16583674,0.13357660,-0
 .00003154,0.00068683,0.00161644,-0.00011056,-0.00000066,0.00027332,0.0
 0030805,0.00022514,0.00007157,-0.00006199,-0.00001820,-0.00013251,-0.0
 0085658,-0.00048285,0.00011193,0.00008198,0.00006500,-0.00010815,0.000
 04621,-0.00009047,-0.00001827,-0.00018529,0.00030807,-0.00004861,-0.00
 123733,0.00120454,-0.00023855,0.00028461,-0.00056281,-0.00036391,-0.00
 011873,0.00006634,-0.00033432,-0.01566321,-0.03455171,0.02733874,0.003
 67480,-0.00491498,-0.00207801,-0.00106808,0.00082733,-0.00002354,-0.11
 240943,-0.21187961,0.16511022,0.12734711,0.24911804,0.00143740,0.00057
 425,0.00106241,-0.00051331,-0.00012150,-0.00023582,-0.00015423,0.00028
 067,-0.00094591,0.00017699,-0.00018321,-0.00007515,0.00044159,0.000592
 44,-0.00023462,-0.00011398,0.00004122,0.00000917,0.00002980,-0.0002037
 7,-0.00008588,0.00013173,-0.00025662,0.00003602,0.00004610,-0.00011154
 ,0.00029991,0.00059796,-0.00071307,-0.00166601,-0.00038319,-0.00012093
 ,-0.00040275,-0.00128567,-0.00288220,0.00132824,-0.00014753,0.00015875
 ,0.00133549,-0.00008066,-0.00171094,0.00065848,0.15053273,0.19583279,-
 0.20134870,-0.15071573,-0.19117634,0.20026512\\-0.00000247,-0.00000075
 ,0.00000056,-0.00000561,0.00000616,0.00000003,-0.00000590,0.00000679,-
 0.00000705,-0.00000754,0.00000629,0.00000254,-0.00000223,-0.00000103,0
 .00000746,-0.00000406,0.00000281,0.00000969,0.00000257,-0.00000315,0.0
 0001016,-0.00000175,-0.00000070,0.00001159,0.00000159,-0.00000303,-0.0
 0000190,0.00000397,-0.00000721,0.00000162,0.00001363,-0.00001066,0.000
 00204,0.00000178,-0.00000139,-0.00000496,-0.00000339,0.00000543,-0.000
 00439,0.00000371,-0.00000128,-0.00000333,-0.00000062,-0.00000017,-0.00
 000833,0.00000631,0.00000189,-0.00001574\\\@


 THE ONLY DIFFERENCE BETWEEN ECCENTRICS AND JOGGERS
 IS THAT JOGGERS WEAR SWEATBANDS WHEN THEY RUN IN THE RAIN.
 Job cpu time:  0 days  1 hours 31 minutes 55.3 seconds.
 File lengths (MBytes):  RWF=    125 Int=      0 D2E=      0 Chk=      8 Scr=      1
 Normal termination of Gaussian 03 at Mon Jun 10 09:58:40 2013.
