 Entering Gaussian System, Link 0=g03
 Input=p15freq.gjf
 Output=p15freq.log
 Initial command:
 /opt/g03/l1.exe /scratch/nyee/Gau-2898.inp -scrdir=/scratch/nyee/
 Entering Link 1 = /opt/g03/l1.exe PID=      2900.
  
 Copyright (c) 1988,1990,1992,1993,1995,1998,2003,2004, Gaussian, Inc.
                  All Rights Reserved.
  
 This is the Gaussian(R) 03 program.  It is based on the
 the Gaussian(R) 98 system (copyright 1998, Gaussian, Inc.),
 the Gaussian(R) 94 system (copyright 1995, Gaussian, Inc.),
 the Gaussian 92(TM) system (copyright 1992, Gaussian, Inc.),
 the Gaussian 90(TM) system (copyright 1990, Gaussian, Inc.),
 the Gaussian 88(TM) system (copyright 1988, Gaussian, Inc.),
 the Gaussian 86(TM) system (copyright 1986, Carnegie Mellon
 University), and the Gaussian 82(TM) system (copyright 1983,
 Carnegie Mellon University). Gaussian is a federally registered
 trademark of Gaussian, Inc.
  
 This software contains proprietary and confidential information,
 including trade secrets, belonging to Gaussian, Inc.
  
 This software is provided under written license and may be
 used, copied, transmitted, or stored only in accord with that
 written license.
  
 The following legend is applicable only to US Government
 contracts under FAR:
  
                    RESTRICTED RIGHTS LEGEND
  
 Use, reproduction and disclosure by the US Government is
 subject to restrictions as set forth in subparagraphs (a)
 and (c) of the Commercial Computer Software - Restricted
 Rights clause in FAR 52.227-19.
  
 Gaussian, Inc.
 340 Quinnipiac St., Bldg. 40, Wallingford CT 06492
  
  
 ---------------------------------------------------------------
 Warning -- This program may not be used in any manner that
 competes with the business of Gaussian, Inc. or will provide
 assistance to any competitor of Gaussian, Inc.  The licensee
 of this program is prohibited from giving any competitor of
 Gaussian, Inc. access to this program.  By using this program,
 the user acknowledges that Gaussian, Inc. is engaged in the
 business of creating and licensing software in the field of
 computational chemistry and represents and warrants to the
 licensee that it is not a competitor of Gaussian, Inc. and that
 it will not use this program in any manner prohibited above.
 ---------------------------------------------------------------
  

 Cite this work as:
 Gaussian 03, Revision D.01,
 M. J. Frisch, G. W. Trucks, H. B. Schlegel, G. E. Scuseria, 
 M. A. Robb, J. R. Cheeseman, J. A. Montgomery, Jr., T. Vreven, 
 K. N. Kudin, J. C. Burant, J. M. Millam, S. S. Iyengar, J. Tomasi, 
 V. Barone, B. Mennucci, M. Cossi, G. Scalmani, N. Rega, 
 G. A. Petersson, H. Nakatsuji, M. Hada, M. Ehara, K. Toyota, 
 R. Fukuda, J. Hasegawa, M. Ishida, T. Nakajima, Y. Honda, O. Kitao, 
 H. Nakai, M. Klene, X. Li, J. E. Knox, H. P. Hratchian, J. B. Cross, 
 V. Bakken, C. Adamo, J. Jaramillo, R. Gomperts, R. E. Stratmann, 
 O. Yazyev, A. J. Austin, R. Cammi, C. Pomelli, J. W. Ochterski, 
 P. Y. Ayala, K. Morokuma, G. A. Voth, P. Salvador, J. J. Dannenberg, 
 V. G. Zakrzewski, S. Dapprich, A. D. Daniels, M. C. Strain, 
 O. Farkas, D. K. Malick, A. D. Rabuck, K. Raghavachari, 
 J. B. Foresman, J. V. Ortiz, Q. Cui, A. G. Baboul, S. Clifford, 
 J. Cioslowski, B. B. Stefanov, G. Liu, A. Liashenko, P. Piskorz, 
 I. Komaromi, R. L. Martin, D. J. Fox, T. Keith, M. A. Al-Laham, 
 C. Y. Peng, A. Nanayakkara, M. Challacombe, P. M. W. Gill, 
 B. Johnson, W. Chen, M. W. Wong, C. Gonzalez, and J. A. Pople, 
 Gaussian, Inc., Wallingford CT, 2004.
 
 ******************************************
 Gaussian 03:  AM64L-G03RevD.01 13-Oct-2005
                29-Jul-2014 
 ******************************************
 %chk=p15freq.chk
 %mem=1000mb
 %nproc=8
 Will use up to    8 processors via shared memory.
 -------------------------------------
 # freq nosymm b3lyp/cbsb7 iop(7/33=1)
 -------------------------------------
 1/10=4,30=1,38=1/1,3;
 2/15=1,17=6,18=5,40=1/2;
 3/5=4,6=6,7=700,11=2,16=1,25=1,30=1,74=-5/1,2,3;
 4//1;
 5/5=2,38=5/2;
 8/6=4,10=90,11=11/1;
 11/6=1,8=1,9=11,15=111,16=1,31=1/1,2,10;
 10/6=1,31=1/2;
 6/7=2,8=2,9=2,10=2,18=1,28=1/1;
 7/8=1,10=1,25=1,30=1,33=1/1,2,3,16;
 1/10=4,30=1/3;
 99//99;
 -------------------
 Title Card Required
 -------------------
 Symbolic Z-matrix:
 Charge =  0 Multiplicity = 1
 C                    -3.12152  -0.49553   0.04627 
 H                    -2.48032  -1.18761  -0.51098 
 H                    -3.19013   0.42254  -0.54801 
 H                    -4.12128  -0.93507   0.09267 
 C                    -2.58032  -0.22583   1.42111 
 H                    -1.58442   0.21179   1.48645 
 C                    -3.24316  -0.48943   2.54599 
 H                    -4.23726  -0.9244    2.54795 
 O                    -2.81533  -0.27227   3.82408 
 H                    -1.93206   0.11295   3.79646 
 

 GradGradGradGradGradGradGradGradGradGradGradGradGradGradGradGradGradGrad
 Berny optimization.
 Initialization pass.
 Trust Radius=3.00D-01 FncErr=1.00D-07 GrdErr=1.00D-07
 Number of steps in this run=   2 maximum allowed number of steps=   2.
 GradGradGradGradGradGradGradGradGradGradGradGradGradGradGradGradGradGrad

                          Input orientation:                          
 ---------------------------------------------------------------------
 Center     Atomic     Atomic              Coordinates (Angstroms)
 Number     Number      Type              X           Y           Z
 ---------------------------------------------------------------------
    1          6             0       -3.121518   -0.495529    0.046265
    2          1             0       -2.480320   -1.187614   -0.510980
    3          1             0       -3.190132    0.422536   -0.548007
    4          1             0       -4.121280   -0.935073    0.092673
    5          6             0       -2.580320   -0.225832    1.421114
    6          1             0       -1.584416    0.211786    1.486454
    7          6             0       -3.243160   -0.489432    2.545987
    8          1             0       -4.237264   -0.924397    2.547951
    9          8             0       -2.815325   -0.272267    3.824076
   10          1             0       -1.932064    0.112951    3.796457
 ---------------------------------------------------------------------
                    Distance matrix (angstroms):
                    1          2          3          4          5
     1  C    0.000000
     2  H    1.095737   0.000000
     3  H    1.095769   1.760053   0.000000
     4  H    1.093104   1.766614   1.766525   0.000000
     5  C    1.501946   2.160558   2.160946   2.154608   0.000000
     6  H    2.221963   2.598212   2.600341   3.113453   1.089772
     7  C    2.502687   3.227140   3.226034   2.643566   1.331984
     8  H    2.772589   3.537399   3.534921   2.458039   2.122079
     9  O    3.796769   4.443287   4.442785   4.008516   2.414873
    10  H    3.981079   4.532777   4.533536   4.428209   2.485410
                    6          7          8          9         10
     6  H    0.000000
     7  C    2.089437   0.000000
     8  H    3.074946   1.085100   0.000000
     9  O    2.685874   1.365179   2.018831   0.000000
    10  H    2.338106   1.909323   2.819363   0.964005   0.000000
 Symmetry turned off by external request.
 Stoichiometry    C3H6O
 Framework group  C1[X(C3H6O)]
 Deg. of freedom    24
 Full point group                 C1
 Rotational constants (GHZ):     41.0504043      3.9152363      3.6550360
 Standard basis: CBSB7 (5D, 7F)
 Integral buffers will be    131072 words long.
 Raffenetti 2 integral format.
 Two-electron integral symmetry is turned off.
   108 basis functions,   176 primitive gaussians,   112 cartesian basis functions
    16 alpha electrons       16 beta electrons
       nuclear repulsion energy       115.8181802129 Hartrees.
 NAtoms=   10 NActive=   10 NUniq=   10 SFac= 7.50D-01 NAtFMM=   80 NAOKFM=F Big=F
 One-electron integrals computed using PRISM.
 NBasis=   108 RedAO= T  NBF=   108
 NBsUse=   108 1.00D-06 NBFU=   108
 Harris functional with IExCor=  402 diagonalized for initial guess.
 ExpMin= 1.03D-01 ExpMax= 8.59D+03 ExpMxC= 1.30D+03 IAcc=1 IRadAn=         1 AccDes= 1.00D-06
 HarFok:  IExCor= 402 AccDes= 1.00D-06 IRadAn=         1 IDoV=1
 ScaDFX=  1.000000  1.000000  1.000000  1.000000
 Requested convergence on RMS density matrix=1.00D-08 within 128 cycles.
 Requested convergence on MAX density matrix=1.00D-06.
 Requested convergence on             energy=1.00D-06.
 No special actions if energy rises.
 Keep R1 integrals in memory in canonical form, NReq=    21926503.
 Integral accuracy reduced to 1.0D-05 until final iterations.
 Initial convergence to 1.0D-05 achieved.  Increase integral accuracy.
 SCF Done:  E(RB+HF-LYP) =  -193.186659034     A.U. after   13 cycles
             Convg  =    0.4211D-08             -V/T =  2.0038
             S**2   =   0.0000
 Range of M.O.s used for correlation:     1   108
 NBasis=   108 NAE=    16 NBE=    16 NFC=     0 NFV=     0
 NROrb=    108 NOA=    16 NOB=    16 NVA=    92 NVB=    92
 Symmetrizing basis deriv contribution to polar:
 IMax=3 JMax=2 DiffMx= 0.00D+00
 G2DrvN: will do   11 centers at a time, making    1 passes doing MaxLOS=2.
 FoFDir/FoFCou used for L=0 through L=2.
 DoAtom=TTTTTTTTTT
          Differentiating once with respect to electric field.
                with respect to dipole field.
          Differentiating once with respect to nuclear coordinates.
          Store integrals in memory, NReq=    20848010.
          There are  33 degrees of freedom in the 1st order CPHF.
    30 vectors were produced by pass  0.
 AX will form  30 AO Fock derivatives at one time.
    30 vectors were produced by pass  1.
    30 vectors were produced by pass  2.
    30 vectors were produced by pass  3.
    30 vectors were produced by pass  4.
    16 vectors were produced by pass  5.
     3 vectors were produced by pass  6.
 Inv2:  IOpt= 1 Iter= 1 AM= 1.99D-15 Conv= 1.00D-12.
 Inverted reduced A of dimension  169 with in-core refinement.
 Isotropic polarizability for W=    0.000000       38.59 Bohr**3.
 End of Minotr Frequency-dependent properties file   721 does not exist.

 **********************************************************************

            Population analysis using the SCF density.

 **********************************************************************

 Alpha  occ. eigenvalues --  -19.14257 -10.21906 -10.16700 -10.16024  -1.05560
 Alpha  occ. eigenvalues --   -0.78173  -0.68094  -0.60392  -0.50684  -0.45772
 Alpha  occ. eigenvalues --   -0.41576  -0.40207  -0.38076  -0.36720  -0.35994
 Alpha  occ. eigenvalues --   -0.22424
 Alpha virt. eigenvalues --    0.03558   0.03665   0.05702   0.07747   0.11678
 Alpha virt. eigenvalues --    0.11872   0.13338   0.21264   0.24552   0.30072
 Alpha virt. eigenvalues --    0.30843   0.34045   0.37396   0.40850   0.43287
 Alpha virt. eigenvalues --    0.44621   0.45599   0.51254   0.51475   0.56427
 Alpha virt. eigenvalues --    0.58344   0.59068   0.61393   0.63332   0.67142
 Alpha virt. eigenvalues --    0.75952   0.82054   0.82507   0.83409   0.90012
 Alpha virt. eigenvalues --    0.96449   1.01394   1.09100   1.17499   1.19895
 Alpha virt. eigenvalues --    1.36475   1.36714   1.42466   1.44292   1.45059
 Alpha virt. eigenvalues --    1.46090   1.47933   1.49990   1.51699   1.59397
 Alpha virt. eigenvalues --    1.63640   1.64862   1.72029   1.74569   1.79676
 Alpha virt. eigenvalues --    1.88845   1.97000   1.97700   2.00837   2.00845
 Alpha virt. eigenvalues --    2.08373   2.11018   2.20149   2.25103   2.32969
 Alpha virt. eigenvalues --    2.35590   2.39469   2.42043   2.43122   2.46951
 Alpha virt. eigenvalues --    2.53180   2.60844   2.62482   2.64679   2.68358
 Alpha virt. eigenvalues --    2.84938   2.87886   2.94064   3.03641   3.09408
 Alpha virt. eigenvalues --    3.16285   3.17134   3.42994   3.48211   3.78201
 Alpha virt. eigenvalues --    3.78300   3.80146   3.85172   3.96833   4.27912
 Alpha virt. eigenvalues --    4.79758   5.29450   5.66864  23.64216  23.91908
 Alpha virt. eigenvalues --   24.24788  49.86823
          Condensed to atoms (all electrons):
              1          2          3          4          5          6
     1  C    4.812914   0.398707   0.398728   0.411808   0.324326  -0.031195
     2  H    0.398707   0.598371  -0.039267  -0.028530  -0.037467  -0.003489
     3  H    0.398728  -0.039267   0.598349  -0.028543  -0.037520  -0.003423
     4  H    0.411808  -0.028530  -0.028543   0.577884  -0.042585   0.006943
     5  C    0.324326  -0.037467  -0.037520  -0.042585   5.152116   0.404149
     6  H   -0.031195  -0.003489  -0.003423   0.006943   0.404149   0.579874
     7  C   -0.037644  -0.000397  -0.000450  -0.005623   0.607620  -0.046263
     8  H   -0.002791  -0.000058  -0.000056   0.004833  -0.061841   0.006497
     9  O    0.003990  -0.000046  -0.000046   0.000005  -0.062967  -0.004954
    10  H    0.000177   0.000001   0.000001   0.000108  -0.005566   0.007118
              7          8          9         10
     1  C   -0.037644  -0.002791   0.003990   0.000177
     2  H   -0.000397  -0.000058  -0.000046   0.000001
     3  H   -0.000450  -0.000056  -0.000046   0.000001
     4  H   -0.005623   0.004833   0.000005   0.000108
     5  C    0.607620  -0.061841  -0.062967  -0.005566
     6  H   -0.046263   0.006497  -0.004954   0.007118
     7  C    4.678842   0.419766   0.345366  -0.055204
     8  H    0.419766   0.550134  -0.032229   0.008822
     9  O    0.345366  -0.032229   7.768422   0.319080
    10  H   -0.055204   0.008822   0.319080   0.483319
 Mulliken atomic charges:
              1
     1  C   -0.279018
     2  H    0.112177
     3  H    0.112226
     4  H    0.103702
     5  C   -0.240262
     6  H    0.084743
     7  C    0.093987
     8  H    0.106922
     9  O   -0.336622
    10  H    0.242146
 Sum of Mulliken charges=   0.00000
 Atomic charges with hydrogens summed into heavy atoms:
              1
     1  C    0.049087
     2  H    0.000000
     3  H    0.000000
     4  H    0.000000
     5  C   -0.155520
     6  H    0.000000
     7  C    0.200909
     8  H    0.000000
     9  O   -0.094476
    10  H    0.000000
 Sum of Mulliken charges=   0.00000
 APT atomic charges:
              1
     1  C    0.124393
     2  H   -0.036374
     3  H   -0.036520
     4  H   -0.018376
     5  C   -0.177523
     6  H    0.002834
     7  C    0.534779
     8  H    0.035359
     9  O   -0.683692
    10  H    0.255119
 Sum of APT charges=   0.00000
 APT Atomic charges with hydrogens summed into heavy atoms:
              1
     1  C    0.033124
     2  H    0.000000
     3  H    0.000000
     4  H    0.000000
     5  C   -0.174689
     6  H    0.000000
     7  C    0.570138
     8  H    0.000000
     9  O   -0.428573
    10  H    0.000000
 Sum of APT charges=   0.00000
 Electronic spatial extent (au):  <R**2>=  1780.9596
 Charge=     0.0000 electrons
 Dipole moment (field-independent basis, Debye):
    X=     0.8798    Y=     0.3676    Z=    -0.6928  Tot=     1.1786
 Quadrupole moment (field-independent basis, Debye-Ang):
   XX=   -27.5328   YY=   -26.3316   ZZ=   -29.7053
   XY=     0.6697   XZ=     5.9719   YZ=     1.9430
 Traceless Quadrupole moment (field-independent basis, Debye-Ang):
   XX=     0.3238   YY=     1.5250   ZZ=    -1.8487
   XY=     0.6697   XZ=     5.9719   YZ=     1.9430
 Octapole moment (field-independent basis, Debye-Ang**2):
  XXX=   221.3984  YYY=    29.7671  ZZZ=  -161.3161  XYY=    76.4457
  XXY=     1.7723  XXZ=   -65.0340  XZZ=   104.8268  YZZ=    18.5690
  YYZ=   -48.2563  XYZ=    -0.8911
 Hexadecapole moment (field-independent basis, Debye-Ang**3):
 XXXX= -1319.8587 YYYY=   -63.1508 ZZZZ=  -977.4506 XXXY=   -45.1326
 XXXZ=   435.1259 YYYX=   -93.0198 YYYZ=    46.9664 ZZZX=   540.3046
 ZZZY=    84.0868 XXYY=  -241.0155 XXZZ=  -477.3373 YYZZ=  -157.7342
 XXYZ=     2.7469 YYXZ=   136.7685 ZZXY=   -43.4443
 N-N= 1.158181802129D+02 E-N=-6.828247420962D+02  KE= 1.924514566865D+02
  Exact polarizability:  35.768   4.712  26.936  -2.191  -0.299  53.074
 Approx polarizability:  50.999   7.077  37.383  -8.702  -2.871  74.464
 Use density number 0.
 Entering OneElI...
 Calculate overlap and kinetic energy integrals
    NBasis = 112  MinDer = 2  MaxDer = 2
 Requested accuracy = 0.1000D-12
 PrsmSu:  NPrtUS=   1 ThrOK=F
 PRISM was handed   130950614 working-precision words and   990 shell-pairs
 Entering OneElI...
 Calculate potential energy integrals
    NBasis = 112  MinDer = 2  MaxDer = 2
 Requested accuracy = 0.1000D-12
 PrsmSu:  NPrtUS=   8 ThrOK=T
 PRISM was handed    16349644 working-precision words and   951 shell-pairs
 PRISM was handed    16349644 working-precision words and   951 shell-pairs
 PRISM was handed    16349644 working-precision words and   951 shell-pairs
 PRISM was handed    16349644 working-precision words and   951 shell-pairs
 PRISM was handed    16349644 working-precision words and   951 shell-pairs
 PRISM was handed    16349644 working-precision words and   951 shell-pairs
 PRISM was handed    16349644 working-precision words and   951 shell-pairs
 PRISM was handed    16349644 working-precision words and   951 shell-pairs
 Polarizability after L701:
                1             2             3
      1  0.357678D+02
      2  0.471155D+01  0.269358D+02
      3 -0.219098D+01 -0.299325D+00  0.530736D+02
 Dipole Derivatives after L701:
               1            2            3            4            5
      1 0.861060D-01-0.392910D-01-0.733846D-02-0.833295D-02 0.825997D-01
      2-0.384865D-01 0.158112D+00-0.446381D-02 0.955639D-01-0.160724D-01
      3 0.165603D-01 0.638952D-02 0.128961D+00 0.498121D-01-0.124005D+00
               6            7            8            9           10
      1 0.449044D-01 0.775448D-01 0.154413D-01-0.205937D-01-0.117250D+00
      2-0.719781D-01 0.182045D-02-0.927849D-01 0.821673D-01-0.860327D-01
      3-0.847160D-01-0.554206D-01 0.121085D+00-0.943190D-01-0.379937D-01
              11           12           13           14           15
      1-0.839927D-01 0.417317D-01-0.359591D-01 0.133591D+00 0.442620D-02
      2 0.383080D-01 0.171511D-01 0.139601D+00-0.279441D+00 0.479123D-02
      3-0.179331D-01 0.238151D-01 0.262960D+00 0.117735D+00-0.217167D+00
              16           17           18           19           20
      1-0.986097D-01-0.118696D+00-0.656522D-01 0.247938D+00 0.130137D+00
      2-0.118653D+00 0.116506D+00-0.329429D-01 0.136076D+00 0.985545D-02
      3-0.564386D-01-0.289761D-01-0.939463D-02 0.240609D+00 0.138013D+00
              21           22           23           24           25
      1-0.112226D-01-0.457215D-01-0.864295D-01-0.164354D-01-0.271667D+00
      2 0.277384D-01-0.865600D-01 0.112798D+00-0.979364D-02 0.277266D-01
      3 0.134654D+01-0.198859D-01-0.113604D-01 0.389989D-01-0.469853D+00
              26           27           28           29           30
      1 0.370107D-01-0.701041D-01 0.165951D+00-0.703708D-01 0.100284D+00
      2-0.349445D+00-0.556221D-01-0.710564D-01 0.302163D+00 0.429525D-01
      3-0.230721D+00-0.142996D+01 0.696506D-01 0.297722D-01 0.297242D+00
 Hessian after L701:
                1             2             3             4             5
      1  0.108999D+02
      2 -0.258765D+00  0.113095D+02
      3 -0.103607D+01 -0.543973D+00  0.757020D+01
      4 -0.231390D+01 -0.755493D+00 -0.625488D+00  0.226209D+01
      5 -0.763473D+00 -0.213562D+01  0.696885D+00  0.773248D+00  0.203166D+01
      6 -0.680727D+00  0.753729D+00 -0.237980D+01  0.763467D+00 -0.880363D+00
      7 -0.297609D+01 -0.140627D+00  0.878812D-01  0.449352D-01  0.688269D-01
      8 -0.133967D+00 -0.155265D+01 -0.966295D+00  0.462254D-01 -0.606123D-01
      9  0.924817D-01 -0.104546D+01 -0.230003D+01 -0.551679D-02 -0.359237D-02
     10 -0.122871D+01  0.834691D+00 -0.887066D-01 -0.288644D-01 -0.328012D-02
     11  0.838123D+00 -0.275901D+01 -0.401352D-01  0.340648D-01  0.530798D-01
     12  0.577322D-01  0.244071D-01 -0.317108D+01  0.300537D-01  0.856578D-02
     13 -0.407308D+01  0.308450D+00  0.168832D+01  0.541446D-01 -0.530308D-01
     14  0.306895D+00 -0.453119D+01  0.837727D+00 -0.684894D-01  0.120411D+00
     15  0.161496D+01  0.805473D+00 -0.522289D+00 -0.791714D-01  0.836967D-01
     16  0.626300D-01  0.208216D-01 -0.309715D-02 -0.552306D-02  0.781560D-02
     17  0.201791D-01  0.235229D-01 -0.171773D-02 -0.647094D-02  0.395382D-02
     18 -0.315706D-01 -0.141869D-01  0.172498D-02 -0.557965D-02 -0.316806D-02
     19 -0.208959D+00 -0.253959D-01 -0.304542D-01 -0.901696D-02 -0.211409D-01
     20 -0.257779D-01 -0.163741D+00 -0.107059D-03 -0.218799D-01 -0.206341D-03
     21 -0.461111D-01 -0.703348D-02  0.396139D+00 -0.492294D-01  0.681324D-01
     22  0.360725D-02  0.172333D-01 -0.624147D-01  0.824807D-02 -0.761761D-02
     23  0.180090D-01 -0.318129D-01 -0.257486D-01  0.285713D-02 -0.472580D-02
     24 -0.287777D-01 -0.110674D-01  0.269845D-01 -0.553465D-02  0.275278D-02
     25 -0.161619D+00 -0.615576D-02  0.347129D-01 -0.741877D-02 -0.706116D-02
     26 -0.592840D-02 -0.147596D+00  0.269856D-01 -0.186611D-02 -0.983345D-02
     27  0.458939D-01  0.318438D-01  0.351896D+00 -0.216963D-01  0.243984D-01
     28 -0.374993D-02  0.524141D-02  0.353211D-01 -0.469337D-02  0.571385D-02
     29  0.470560D-02 -0.114304D-01  0.163784D-01 -0.219532D-02  0.189592D-02
     30  0.121902D-01  0.626813D-02  0.262534D-01 -0.130451D-02  0.269235D-02
                6             7             8             9            10
      6  0.216928D+01
      7 -0.967603D-02  0.291083D+01
      8  0.465938D-02  0.159778D+00  0.147736D+01
      9  0.828534D-01 -0.128260D+00  0.118712D+01  0.207399D+01
     10  0.267930D-01  0.303645D-01 -0.205502D-01  0.154769D-01  0.109870D+01
     11 -0.450097D-02 -0.575155D-01 -0.541802D-02  0.235427D-01 -0.890735D+00
     12  0.372123D-01  0.287359D-01  0.177474D-01  0.364273D-01 -0.131659D+00
     13 -0.571886D-01  0.291909D-01 -0.433098D-01  0.181120D-01  0.989960D-01
     14  0.744722D-01 -0.286934D-01  0.137001D+00 -0.986740D-01  0.274227D-01
     15 -0.640250D-02  0.969692D-02 -0.121224D+00  0.240362D-02  0.157069D-01
     16  0.411284D-02  0.461251D-03 -0.117273D-01  0.309839D-02  0.691693D-01
     17 -0.719458D-03  0.216967D-02 -0.191218D-02  0.340130D-02  0.390872D-01
     18 -0.497080D-02 -0.585835D-02 -0.232836D-02 -0.487131D-02  0.346963D-01
     19 -0.325391D-01 -0.260130D-01 -0.477216D-02  0.104301D-01 -0.103406D-01
     20  0.457864D-01 -0.431376D-02  0.112312D-01 -0.530103D-01  0.830324D-02
     21  0.599748D-01  0.156723D-01 -0.804246D-01  0.652517D-01  0.648027D-01
     22 -0.122760D-01 -0.968537D-03  0.111831D-01 -0.115567D-01 -0.300417D-01
     23 -0.362927D-02  0.105237D-02  0.416102D-02 -0.653440D-02 -0.502591D-02
     24  0.478494D-02 -0.186185D-02 -0.574684D-02  0.508553D-02  0.885636D-02
     25 -0.909950D-02 -0.132243D-01  0.389567D-02 -0.203311D-02 -0.884767D-02
     26  0.688824D-02 -0.149400D-02 -0.576729D-02 -0.981242D-02  0.513622D-02
     27  0.337693D-01  0.263997D-02 -0.308759D-01  0.354491D-01  0.487939D-01
     28  0.713334D-02  0.512486D-03 -0.675646D-02  0.776758D-02  0.957948D-02
     29  0.367767D-02  0.816167D-03 -0.339509D-02  0.301606D-02  0.495097D-02
     30  0.329968D-02  0.102999D-02 -0.263600D-02  0.344100D-02  0.523967D-02
               11            12            13            14            15
     11  0.271904D+01
     12 -0.613598D-01  0.298351D+01
     13  0.262954D-01 -0.334318D-01  0.121351D+02
     14  0.495253D-01 -0.148615D-01 -0.258909D+01  0.170220D+02
     15  0.678480D-02  0.295393D-01  0.179579D+01  0.474363D+00  0.495487D+01
     16  0.392975D-01  0.405797D-01 -0.135300D+01  0.877056D+00  0.184313D+00
     17 -0.451524D-03  0.180898D-01  0.874459D+00 -0.296115D+01  0.788566D-01
     18  0.155379D-01 -0.593381D-02  0.748305D-01  0.309204D-01 -0.342470D+01
     19  0.690399D-02  0.597283D-02 -0.666352D+01  0.164319D+01 -0.342037D+01
     20 -0.217116D-01  0.386791D-02  0.164354D+01 -0.991256D+01 -0.128487D+01
     21  0.297852D-01  0.196205D-01 -0.340742D+01 -0.127924D+01 -0.159997D+01
     22 -0.569074D-02 -0.161092D-01  0.210700D-01 -0.423139D-01  0.814080D-01
     23 -0.204131D-01 -0.561503D-02 -0.409581D-01  0.104799D+00  0.339109D-01
     24  0.534602D-02  0.393648D-01  0.138518D+00  0.589132D-01  0.473530D-01
     25  0.427341D-02  0.129253D-01 -0.214757D+00 -0.120144D+00 -0.231862D+00
     26 -0.154242D-01  0.677966D-02 -0.118496D+00 -0.649984D-02 -0.895480D-01
     27  0.225901D-01  0.283533D-01 -0.160641D+00 -0.584357D-01  0.549802D+00
     28  0.498374D-02  0.520023D-02 -0.341036D-01 -0.583762D-02  0.295315D-01
     29  0.777370D-03  0.237879D-02 -0.786400D-02 -0.223412D-01  0.125553D-01
     30  0.240928D-02  0.299038D-02 -0.568816D-01 -0.251848D-01 -0.306020D-01
               16            17            18            19            20
     16  0.110569D+01
     17 -0.990748D+00  0.293119D+01
     18 -0.533188D-01 -0.243162D-01  0.331886D+01
     19  0.563991D-01 -0.177877D-02  0.495397D-01  0.147210D+02
     20 -0.365210D-02  0.620381D-01  0.217952D-01 -0.300039D+01  0.202874D+02
     21 -0.294146D-01 -0.127630D-01  0.670837D-01  0.500900D+00 -0.205350D+00
     22  0.826216D-01  0.403446D-01 -0.318878D-01 -0.133297D+01  0.952914D+00
     23  0.403930D-01  0.610222D-02 -0.140062D-01  0.952347D+00 -0.309070D+01
     24 -0.293144D-01 -0.128772D-01 -0.132443D-01  0.315754D-01  0.112611D-01
     25  0.201847D-01  0.290615D-01 -0.361274D-01 -0.664995D+01  0.438905D+00
     26  0.277587D-01 -0.363545D-01 -0.143005D-01  0.441592D+00 -0.727582D+01
     27 -0.907269D-01 -0.382276D-01  0.140988D-01  0.293379D+01  0.148108D+01
     28 -0.386427D-01 -0.630279D-02  0.527607D-02  0.123369D+00  0.123527D-01
     29 -0.701463D-02 -0.269423D-01  0.405276D-02  0.944675D-02  0.104043D+00
     30 -0.262324D-01 -0.972658D-02  0.519541D-01 -0.488459D-01 -0.204539D-01
               21            22            23            24            25
     21  0.352516D+01
     22  0.547885D-01  0.104846D+01
     23  0.214073D-01 -0.106600D+01  0.301384D+01
     24 -0.361683D+01 -0.722032D-01 -0.284683D-01  0.362151D+01
     25  0.282270D+01  0.972658D-01  0.406003D-01 -0.921829D-01  0.828653D+01
     26  0.143259D+01  0.430055D-01  0.175729D-01 -0.428095D-01 -0.205013D+01
     27  0.948384D+00  0.904078D-02  0.147853D-02 -0.109283D+00 -0.290076D+01
     28  0.733183D-01  0.102713D+00  0.567279D-01  0.509246D-01 -0.134817D+01
     29  0.328983D-01  0.569439D-01  0.117591D-02  0.226962D-01  0.166675D+01
     30  0.135188D+00  0.612103D-01  0.272050D-01 -0.572040D-02  0.401731D+00
               26            27            28            29            30
     26  0.118922D+02
     27 -0.149298D+01  0.326027D+01
     28  0.166042D+01  0.133664D+00  0.119318D+01
     29 -0.441248D+01  0.591278D-01 -0.172654D+01  0.436869D+01
     30  0.176208D+00 -0.511274D+01 -0.348137D+00 -0.156781D+00  0.492594D+01
 ReadGW:  IGet=0 IStart=          78 Next=        4507 LGW=        4429.
 ICntrl=12127.
 Symmetry not used in FoFDir.
 MinBra= 0 MaxBra= 2 Meth= 1.
 IRaf=       0 NMat=   1 IRICut=       1 DoRegI=T DoRafI=F ISym2E= 0 JSym2E=0.
 PrsmSu:  NPrtUS=   8 ThrOK=T
 PRISM was handed    16346504 working-precision words and   969 shell-pairs
 PRISM was handed    16346504 working-precision words and   969 shell-pairs
 PRISM was handed    16346504 working-precision words and   969 shell-pairs
 PRISM was handed    16346504 working-precision words and   969 shell-pairs
 PRISM was handed    16346504 working-precision words and   969 shell-pairs
 PRISM was handed    16346504 working-precision words and   969 shell-pairs
 PRISM was handed    16346504 working-precision words and   969 shell-pairs
 PRISM was handed    16346504 working-precision words and   969 shell-pairs
 Pruned (  75, 302) grid will be used in CalDFT.
 CkSvGd:  ISavGI=        -1 IRadAn=       4 IRASav=       4 ISavGd=        -1.
 CalDSu:  NPrtUS=   8 ThrOK=T
 IPart= 0 IRanGd=          0 ScrnBf=T ScrnGd=T RCrit=4.00D+00 DoMicB=T.
 IPart= 2 IRanGd=          0 ScrnBf=T ScrnGd=T RCrit=4.00D+00 DoMicB=T.
 CutRad = 1000.00    CtRdIn =    0.00    XCrit =  15.00   ICut = 0
 IPart= 6 IRanGd=          0 ScrnBf=T ScrnGd=T RCrit=4.00D+00 DoMicB=T.
 IPart= 4 IRanGd=          0 ScrnBf=T ScrnGd=T RCrit=4.00D+00 DoMicB=T.
 CutRad = 1000.00    CtRdIn =    0.00    XCrit =  15.00   ICut = 0
 CutRad = 1000.00    CtRdIn =    0.00    XCrit =  15.00   ICut = 0
 IPart= 1 IRanGd=          0 ScrnBf=T ScrnGd=T RCrit=4.00D+00 DoMicB=T.
 IPart= 3 IRanGd=          0 ScrnBf=T ScrnGd=T RCrit=4.00D+00 DoMicB=T.
 CutRad = 1000.00    CtRdIn =    0.00    XCrit =  15.00   ICut = 0
 IPart= 5 IRanGd=          0 ScrnBf=T ScrnGd=T RCrit=4.00D+00 DoMicB=T.
 IPart= 7 IRanGd=          0 ScrnBf=T ScrnGd=T RCrit=4.00D+00 DoMicB=T.
 CutRad = 1000.00    CtRdIn =    0.00    XCrit =  15.00   ICut = 0
 CutRad = 1000.00    CtRdIn =    0.00    XCrit =  15.00   ICut = 0
 CutRad = 1000.00    CtRdIn =    0.00    XCrit =  15.00   ICut = 0
 CutRad = 1000.00    CtRdIn =    0.00    XCrit =  15.00   ICut = 0
 IPart= 3         8813 of        10180 points in      21 batches and       58 microbatches, Max-NSigAt=      10 Max-NSgAt2=      10
 IPart= 4         8237 of         9100 points in      19 batches and       82 microbatches, Max-NSigAt=      10 Max-NSgAt2=      10
 IPart= 0         8822 of         9462 points in      18 batches and       56 microbatches, Max-NSigAt=      10 Max-NSgAt2=      10
 IPart= 6         8958 of         9698 points in      19 batches and       62 microbatches, Max-NSigAt=      10 Max-NSgAt2=      10
 IPart= 1         9002 of         9758 points in      21 batches and       78 microbatches, Max-NSigAt=      10 Max-NSgAt2=      10
 IPart= 7         8971 of         9806 points in      20 batches and       71 microbatches, Max-NSigAt=      10 Max-NSgAt2=      10
 IPart= 2         9784 of        11062 points in      23 batches and       63 microbatches, Max-NSigAt=      10 Max-NSgAt2=      10
 IPart= 5         9535 of        10666 points in      22 batches and       56 microbatches, Max-NSigAt=      10 Max-NSgAt2=      10
 Polarizability after L703:
                1             2             3
      1  0.357678D+02
      2  0.471155D+01  0.269358D+02
      3 -0.219098D+01 -0.299325D+00  0.530736D+02
 Dipole Derivatives after L703:
               1            2            3            4            5
      1 0.861060D-01-0.392910D-01-0.733846D-02-0.833295D-02 0.825997D-01
      2-0.384865D-01 0.158112D+00-0.446381D-02 0.955639D-01-0.160724D-01
      3 0.165603D-01 0.638952D-02 0.128961D+00 0.498121D-01-0.124005D+00
               6            7            8            9           10
      1 0.449044D-01 0.775448D-01 0.154413D-01-0.205937D-01-0.117250D+00
      2-0.719781D-01 0.182045D-02-0.927849D-01 0.821673D-01-0.860327D-01
      3-0.847160D-01-0.554206D-01 0.121085D+00-0.943190D-01-0.379937D-01
              11           12           13           14           15
      1-0.839927D-01 0.417317D-01-0.359591D-01 0.133591D+00 0.442620D-02
      2 0.383080D-01 0.171511D-01 0.139601D+00-0.279441D+00 0.479123D-02
      3-0.179331D-01 0.238151D-01 0.262960D+00 0.117735D+00-0.217167D+00
              16           17           18           19           20
      1-0.986097D-01-0.118696D+00-0.656522D-01 0.247938D+00 0.130137D+00
      2-0.118653D+00 0.116506D+00-0.329429D-01 0.136076D+00 0.985545D-02
      3-0.564386D-01-0.289761D-01-0.939463D-02 0.240609D+00 0.138013D+00
              21           22           23           24           25
      1-0.112226D-01-0.457215D-01-0.864295D-01-0.164354D-01-0.271667D+00
      2 0.277384D-01-0.865600D-01 0.112798D+00-0.979364D-02 0.277266D-01
      3 0.134654D+01-0.198859D-01-0.113604D-01 0.389989D-01-0.469853D+00
              26           27           28           29           30
      1 0.370107D-01-0.701041D-01 0.165951D+00-0.703708D-01 0.100284D+00
      2-0.349445D+00-0.556221D-01-0.710564D-01 0.302163D+00 0.429525D-01
      3-0.230721D+00-0.142996D+01 0.696506D-01 0.297722D-01 0.297242D+00
 Hessian after L703:
                1             2             3             4             5
      1  0.549997D+00
      2  0.952353D-02  0.530738D+00
      3 -0.259110D-01 -0.121952D-01  0.490350D+00
      4 -0.137644D+00  0.942835D-01  0.733336D-01  0.145878D+00
      5  0.956709D-01 -0.147769D+00 -0.793472D-01 -0.105809D+00  0.158326D+00
      6  0.752097D-01 -0.796049D-01 -0.104452D+00 -0.804712D-01  0.882079D-01
      7 -0.483125D-01  0.120256D-01 -0.854839D-02 -0.159534D-02  0.178190D-01
      8  0.107050D-01 -0.228261D+00  0.112563D+00  0.100861D-02 -0.191066D-01
      9 -0.742303D-02  0.114160D+00 -0.113193D+00  0.279480D-03 -0.132528D-01
     10 -0.264358D+00 -0.957501D-01  0.124948D-01 -0.168586D-01 -0.783040D-02
     11 -0.957848D-01 -0.885893D-01  0.542295D-02  0.192123D-01  0.922513D-02
     12  0.145335D-01  0.640680D-02 -0.485132D-01  0.137342D-01  0.766257D-02
     13 -0.101913D+00 -0.184943D-01 -0.438178D-01  0.102018D-01  0.130198D-02
     14 -0.185136D-01 -0.707437D-01 -0.223388D-01 -0.923923D-02 -0.443479D-03
     15 -0.478108D-01 -0.241799D-01 -0.195513D+00 -0.625144D-02 -0.346129D-02
     16 -0.744117D-02 -0.388104D-02  0.909687D-03  0.301813D-03 -0.197516D-03
     17 -0.451561D-02 -0.511247D-03  0.376485D-03  0.212662D-03  0.777729D-04
     18 -0.261348D-01 -0.114653D-01  0.973083D-03  0.791372D-03 -0.262071D-03
     19  0.866914D-02  0.540884D-02 -0.828449D-02  0.000000D+00 -0.887910D-03
     20  0.580322D-02 -0.168747D-02 -0.423671D-02 -0.710030D-03 -0.329510D-03
     21  0.821735D-02  0.294064D-02 -0.309163D-01 -0.782885D-05  0.150257D-02
     22 -0.245977D-03  0.219214D-02 -0.124047D-02  0.303459D-04  0.000000D+00
     23  0.228231D-02 -0.435883D-02 -0.384669D-03  0.373228D-03  0.139848D-03
     24  0.161412D-02  0.872192D-03  0.160314D-02 -0.126608D-03  0.622847D-05
     25  0.210897D-02 -0.534931D-02  0.511880D-03 -0.549057D-03 -0.255338D-03
     26 -0.521122D-02  0.120947D-01 -0.106511D-03  0.845201D-03 -0.101422D-03
     27  0.731664D-02  0.289502D-02  0.424445D-03 -0.126723D-02 -0.109521D-02
     28 -0.860476D-03  0.411284D-04  0.552205D-03  0.233713D-03  0.189026D-03
     29  0.403197D-04 -0.911902D-03  0.246708D-03 -0.176996D-03 -0.184131D-04
     30  0.388218D-03  0.170070D-03 -0.763038D-03 -0.143346D-04  0.393026D-04
                6             7             8             9            10
      6  0.120020D+00
      7 -0.104566D-01  0.469263D-01
      8  0.102419D-01 -0.132631D-01  0.247533D+00
      9  0.886421D-02  0.100378D-01 -0.124001D+00  0.129702D+00
     10  0.113282D-02  0.276335D-02  0.977297D-03  0.521025D-03  0.287383D+00
     11 -0.359594D-03 -0.254215D-01 -0.103989D-01  0.101680D-02  0.106735D+00
     12 -0.143360D-02  0.159572D-01  0.532121D-02 -0.140029D-02 -0.128576D-01
     13  0.181039D-01  0.582730D-03 -0.244517D-03  0.328059D-03 -0.109900D-01
     14 -0.166559D-01  0.956642D-02  0.101199D-01  0.235095D-01 -0.436602D-02
     15 -0.215346D-01 -0.675768D-02 -0.349933D-02 -0.225256D-01 -0.740242D-03
     16 -0.542712D-03  0.174921D-03  0.306935D-03 -0.597623D-04  0.625562D-03
     17  0.458262D-03 -0.746320D-04  0.183845D-03 -0.682759D-03 -0.453455D-03
     18  0.866377D-03  0.327949D-03  0.795889D-03  0.853253D-03 -0.199446D-02
     19 -0.242794D-02 -0.914833D-03  0.335111D-04 -0.447906D-02  0.495466D-03
     20 -0.382434D-02  0.512582D-04  0.636518D-03  0.802505D-03  0.313348D-03
     21  0.765151D-03  0.107775D-02 -0.100676D-02  0.751980D-03  0.263858D-02
     22  0.396420D-03  0.281695D-03  0.135025D-03 -0.304348D-03  0.644637D-03
     23 -0.777536D-03 -0.243596D-03 -0.758488D-04  0.822592D-03  0.132132D-03
     24  0.324567D-04 -0.642687D-04 -0.933770D-04 -0.845252D-05 -0.777170D-03
     25 -0.137659D-02 -0.611827D-05  0.388514D-03  0.877425D-03  0.322781D-03
     26  0.241267D-02 -0.763719D-03 -0.757603D-03 -0.276885D-02  0.240206D-03
     27 -0.326947D-02 -0.157989D-02 -0.284178D-03 -0.317608D-02 -0.804751D-03
     28  0.432206D-03  0.997751D-04 -0.472221D-04  0.222395D-03 -0.277561D-04
     29 -0.985236D-04  0.304287D-03  0.126860D-03  0.393358D-03  0.189645D-05
     30  0.141617D-03  0.610149D-05 -0.374589D-04  0.132743D-03  0.387032D-03
               11            12            13            14            15
     11  0.915430D-01
     12 -0.554000D-02  0.531381D-01
     13 -0.498043D-02 -0.292306D-01  0.586414D+00
     14 -0.336179D-02 -0.127988D-01  0.200767D+00  0.208151D+00
     15 -0.250106D-03  0.177003D-02 -0.120523D+00 -0.381805D-01  0.738105D+00
     16 -0.430932D-03 -0.178455D-02 -0.270089D+00 -0.104009D+00 -0.967149D-02
     17  0.131025D-02 -0.949560D-03 -0.104166D+00 -0.786843D-01 -0.473694D-02
     18 -0.102780D-02 -0.527094D-02 -0.129776D-01 -0.622030D-02 -0.564684D-01
     19  0.167946D-03 -0.174049D-02 -0.224019D+00 -0.720974D-01  0.177152D+00
     20  0.100047D-03 -0.721474D-03 -0.718747D-01 -0.793702D-01  0.693679D-01
     21  0.121669D-02  0.165420D-02  0.185662D+00  0.731391D-01 -0.395339D+00
     22  0.240071D-03  0.864841D-03 -0.102943D-01 -0.767223D-02 -0.200316D-02
     23  0.333055D-03  0.377585D-03 -0.704760D-02  0.388181D-02 -0.944764D-03
     24 -0.304164D-03 -0.129159D-03  0.224327D-01  0.972799D-02  0.367054D-02
     25  0.266349D-03  0.375958D-03  0.153616D-01  0.293877D-02  0.124374D-01
     26 -0.155312D-03  0.170832D-03  0.222131D-02  0.103921D-01  0.396210D-02
     27 -0.351970D-03 -0.124337D-03 -0.184182D-01 -0.955858D-02 -0.540591D-01
     28 -0.403536D-05  0.147549D-03  0.474466D-02  0.262517D-02  0.416809D-02
     29 -0.617809D-05  0.708502D-04  0.251758D-02  0.592288D-04  0.192276D-02
     30  0.177188D-03  0.309214D-03 -0.155979D-02 -0.623787D-03  0.189437D-02
               16            17            18            19            20
     16  0.289300D+00
     17  0.117913D+00  0.723918D-01
     18  0.125458D-01  0.630313D-02  0.573378D-01
     19 -0.157252D-01 -0.916139D-02  0.257863D-01  0.655227D+00
     20 -0.994678D-02  0.266922D-02  0.112637D-01  0.227669D+00  0.226805D+00
     21 -0.552007D-02 -0.251163D-02  0.249742D-02 -0.120394D+00 -0.378114D-01
     22  0.115154D-02 -0.336879D-02  0.201366D-02 -0.284575D+00 -0.106492D+00
     23 -0.335791D-02  0.751686D-02  0.580487D-03 -0.106383D+00 -0.872371D-01
     24  0.264306D-02  0.857864D-03 -0.381605D-02  0.135139D-01  0.556615D-02
     25  0.181062D-02  0.378468D-02  0.800158D-03 -0.119170D+00 -0.361537D-01
     26  0.376298D-02 -0.512754D-02  0.593054D-03 -0.350732D-01 -0.570361D-01
     27 -0.314811D-03  0.104527D-03  0.356193D-02 -0.332212D-01 -0.202313D-01
     28 -0.109107D-03 -0.170684D-03 -0.115838D-02 -0.199879D-01 -0.865968D-02
     29 -0.160310D-03  0.173389D-03 -0.560805D-03 -0.967644D-02 -0.455014D-02
     30  0.179484D-02  0.780612D-03 -0.534401D-03 -0.459054D-01 -0.201750D-01
               21            22            23            24            25
     21  0.760822D+00
     22  0.866878D-02  0.302474D+00
     23  0.345730D-02  0.121449D+00  0.781101D-01
     24 -0.528584D-01 -0.419157D-03  0.780863D-03  0.650833D-01
     25 -0.785665D-01 -0.114264D-01 -0.627604D-02 -0.358186D-01  0.537184D+00
     26 -0.400703D-01 -0.558580D-02 -0.180504D-02 -0.158772D-01  0.221842D+00
     27 -0.283846D+00 -0.640554D-02 -0.300257D-02 -0.803906D-02  0.515226D-01
     28 -0.177656D-02  0.195947D-02 -0.928611D-03 -0.299796D-02 -0.425636D+00
     29 -0.856227D-03 -0.897064D-03  0.349509D-02 -0.153651D-02 -0.181186D+00
     30 -0.353078D-02 -0.157103D-02 -0.909280D-03 -0.553825D-02  0.492363D-01
               26            27            28            29            30
     26  0.129821D+00
     27  0.310108D-01  0.395498D+00
     28 -0.182278D+00  0.317238D-02  0.439583D+00
     29 -0.873247D-01  0.513521D-03  0.189233D+00  0.889567D-01
     30  0.206735D-01 -0.469708D-01 -0.276192D-02 -0.951263D-04  0.548593D-01
 FrcOut:
 IF    =   560 IFX   =   590 IFXYZ =   620
 IFFX  =   650 IFFFX =  1115 IFLen =    30
 IFFLen=   465 IFFFLn=     0 IEDerv=  1115
 LEDerv=  1493 IFroze=  2612 ICStrt= 26265
 DipoleDeriv   = 8.61059865D-02-3.84865050D-02 1.65602908D-02
                -3.92910453D-02 1.58112497D-01 6.38951517D-03
                -7.33845510D-03-4.46380658D-03 1.28961085D-01
                -8.33294647D-03 9.55638952D-02 4.98120738D-02
                 8.25996919D-02-1.60724225D-02-1.24004808D-01
                 4.49044026D-02-7.19781407D-02-8.47159548D-02
                 7.75448006D-02 1.82044840D-03-5.54205768D-02
                 1.54413226D-02-9.27849432D-02 1.21085294D-01
                -2.05936644D-02 8.21673005D-02-9.43190343D-02
                -1.17249969D-01-8.60327179D-02-3.79937479D-02
                -8.39927416D-02 3.83079686D-02-1.79331395D-02
                 4.17316852D-02 1.71510796D-02 2.38150775D-02
                -3.59590645D-02 1.39601487D-01 2.62960040D-01
                 1.33591019D-01-2.79441431D-01 1.17735371D-01
                 4.42619630D-03 4.79122657D-03-2.17167416D-01
                -9.86096991D-02-1.18653100D-01-5.64385819D-02
                -1.18696071D-01 1.16505687D-01-2.89761252D-02
                -6.56521682D-02-3.29428586D-02-9.39462557D-03
                 2.47937938D-01 1.36076321D-01 2.40609052D-01
                 1.30137346D-01 9.85544835D-03 1.38013379D-01
                -1.12226455D-02 2.77384452D-02 1.34654490D+00
                -4.57215279D-02-8.65600010D-02-1.98859183D-02
                -8.64294529D-02 1.12798340D-01-1.13604287D-02
                -1.64353846D-02-9.79363531D-03 3.89988550D-02
                -2.71666515D-01 2.77265611D-02-4.69853241D-01
                 3.70107471D-02-3.49444554D-01-2.30721231D-01
                -7.01040731D-02-5.56220936D-02-1.42996488D+00
                 1.65950998D-01-7.10563882D-02 6.96506094D-02
                -7.03708162D-02 3.02163410D-01 2.97721743D-02
                 1.00284107D-01 4.29524833D-02 2.97241992D-01
 Full mass-weighted force constant matrix:
 Low frequencies ---  -25.5712  -12.1574   -0.0015   -0.0015   -0.0012   10.2832
 Low frequencies ---  198.2345  267.1782  295.7587
 Dipole derivatives wrt mode   1:  2.02378D-02 -2.68586D-02  1.59326D-02
 Vibrational polarizability contributions from mode   1       0.0002805       0.0004941       0.0001739
 Vibrational hyperpolarizability contributions from mode   1       0.0000000       0.0000000       0.0000000
 Dipole derivatives wrt mode   2: -1.56709D+00  3.60848D+00 -6.11883D-02
 Vibrational polarizability contributions from mode   2       0.9258874       4.9092882       0.0014116
 Vibrational hyperpolarizability contributions from mode   2       0.0000000       0.0000000       0.0000000
 Dipole derivatives wrt mode   3:  1.22877D+00  5.79547D-01  2.68262D+00
 Vibrational polarizability contributions from mode   3       0.4645187       0.1033322       2.2140015
 Vibrational hyperpolarizability contributions from mode   3       0.0000000       0.0000000       0.0000000
 Dipole derivatives wrt mode   4:  3.58489D+00 -8.20758D+00  1.82883D-01
 Vibrational polarizability contributions from mode   4       1.7027061       8.9252316       0.0044313
 Vibrational hyperpolarizability contributions from mode   4       0.0000000       0.0000000       0.0000000
 Dipole derivatives wrt mode   5: -1.58148D+00 -6.60098D-01  1.36873D-01
 Vibrational polarizability contributions from mode   5       0.2299276       0.0400570       0.0017223
 Vibrational hyperpolarizability contributions from mode   5       0.0000000       0.0000000       0.0000000
 Dipole derivatives wrt mode   6:  1.64443D+00 -3.74983D+00  9.80202D-02
 Vibrational polarizability contributions from mode   6       0.1129187       0.5871657       0.0004012
 Vibrational hyperpolarizability contributions from mode   6       0.0000000       0.0000000       0.0000000
 Dipole derivatives wrt mode   7:  2.91984D+00  1.27832D+00  1.79002D+00
 Vibrational polarizability contributions from mode   7       0.2641582       0.0506320       0.0992807
 Vibrational hyperpolarizability contributions from mode   7       0.0000000       0.0000000       0.0000000
 Dipole derivatives wrt mode   8: -3.06062D+00  7.04381D+00 -1.57596D-01
 Vibrational polarizability contributions from mode   8       0.2703166       1.4317516       0.0007167
 Vibrational hyperpolarizability contributions from mode   8       0.0000000       0.0000000       0.0000000
 Dipole derivatives wrt mode   9:  8.10548D-02 -2.05070D-01  2.50529D-02
 Vibrational polarizability contributions from mode   9       0.0001561       0.0009990       0.0000149
 Vibrational hyperpolarizability contributions from mode   9       0.0000000       0.0000000       0.0000000
 Dipole derivatives wrt mode  10:  1.27281D+00  6.30110D-01  2.92927D+00
 Vibrational polarizability contributions from mode  10       0.0354709       0.0086932       0.1878731
 Vibrational hyperpolarizability contributions from mode  10       0.0000000       0.0000000       0.0000000
 Dipole derivatives wrt mode  11:  1.23946D+00  8.74173D-01  1.45968D+01
 Vibrational polarizability contributions from mode  11       0.0320078       0.0159215       4.4392280
 Vibrational hyperpolarizability contributions from mode  11       0.0000000       0.0000000       0.0000000
 Dipole derivatives wrt mode  12:  2.54405D-01  9.20738D-05 -4.25930D+00
 Vibrational polarizability contributions from mode  12       0.0010904       0.0000000       0.3056309
 Vibrational hyperpolarizability contributions from mode  12       0.0000000       0.0000000       0.0000000
 Dipole derivatives wrt mode  13:  3.07943D-01  2.20223D-01  3.56342D+00
 Vibrational polarizability contributions from mode  13       0.0014295       0.0007311       0.1914183
 Vibrational hyperpolarizability contributions from mode  13       0.0000000       0.0000000       0.0000000
 Dipole derivatives wrt mode  14: -1.07056D+00 -5.67948D-01 -4.12966D+00
 Vibrational polarizability contributions from mode  14       0.0158315       0.0044557       0.2355724
 Vibrational hyperpolarizability contributions from mode  14       0.0000000       0.0000000       0.0000000
 Dipole derivatives wrt mode  15: -1.70464D+00 -7.84969D-01 -1.53482D+00
 Vibrational polarizability contributions from mode  15       0.0385406       0.0081726       0.0312439
 Vibrational hyperpolarizability contributions from mode  15       0.0000000       0.0000000       0.0000000
 Dipole derivatives wrt mode  16: -1.03948D+00  2.44308D+00 -4.29142D-02
 Vibrational polarizability contributions from mode  16       0.0132672       0.0732864       0.0000226
 Vibrational hyperpolarizability contributions from mode  16       0.0000000       0.0000000       0.0000000
 Dipole derivatives wrt mode  17:  2.76365D+00  1.20780D+00  1.08792D+00
 Vibrational polarizability contributions from mode  17       0.0912129       0.0174213       0.0141347
 Vibrational hyperpolarizability contributions from mode  17       0.0000000       0.0000000       0.0000000
 Dipole derivatives wrt mode  18:  7.45632D-01  9.00860D-02 -1.02953D+01
 Vibrational polarizability contributions from mode  18       0.0049659       0.0000725       0.9467329
 Vibrational hyperpolarizability contributions from mode  18       0.0000000       0.0000000       0.0000000
 Dipole derivatives wrt mode  19:  7.09067D-01  4.36105D-01  6.72876D+00
 Vibrational polarizability contributions from mode  19       0.0014949       0.0005655       0.1346208
 Vibrational hyperpolarizability contributions from mode  19       0.0000000       0.0000000       0.0000000
 Dipole derivatives wrt mode  20:  2.28906D+00 -5.22867D+00  9.61787D-02
 Vibrational polarizability contributions from mode  20       0.0151760       0.0791814       0.0000268
 Vibrational hyperpolarizability contributions from mode  20       0.0000000       0.0000000       0.0000000
 Dipole derivatives wrt mode  21: -3.21568D+00 -1.36103D+00  2.26822D+00
 Vibrational polarizability contributions from mode  21       0.0292501       0.0052398       0.0145529
 Vibrational hyperpolarizability contributions from mode  21       0.0000000       0.0000000       0.0000000
 Dipole derivatives wrt mode  22: -5.20646D+00 -2.33531D+00 -2.09381D+00
 Vibrational polarizability contributions from mode  22       0.0753381       0.0151572       0.0121843
 Vibrational hyperpolarizability contributions from mode  22       0.0000000       0.0000000       0.0000000
 Dipole derivatives wrt mode  23: -3.32831D+00 -1.48549D+00 -1.20024D+00
 Vibrational polarizability contributions from mode  23       0.0295687       0.0058901       0.0038452
 Vibrational hyperpolarizability contributions from mode  23       0.0000000       0.0000000       0.0000000
 Dipole derivatives wrt mode  24: -4.09704D+00 -1.86229D+00 -3.15204D+00
 Vibrational polarizability contributions from mode  24       0.0311170       0.0064292       0.0184179
 Vibrational hyperpolarizability contributions from mode  24       0.0000000       0.0000000       0.0000000
 Diagonal vibrational polarizability:
        4.3866314      16.2901687       8.8576586
 Harmonic frequencies (cm**-1), IR intensities (KM/Mole), Raman scattering
 activities (A**4/AMU), depolarization ratios for plane and unpolarized
 incident light, reduced masses (AMU), force constants (mDyne/A),
 and normal coordinates:
                           1         2         3         4         5
                           A         A         A         A         A
       Frequencies ---   198.2223  267.1665  295.7584  450.6839  541.0476
    Reduced masses ---     1.2174    2.1258    2.8110    1.2998    3.4231
   Force constants ---     0.0282    0.0894    0.1449    0.1555    0.5904
    IR Intensities ---     0.0014   15.4807    9.0422   80.2493    2.9556
 Coord Atom Element:
   1     1     6          0.01415  -0.04864  -0.12981  -0.00549   0.03988
   2     1     6         -0.03340   0.10863  -0.05545   0.01232   0.02352
   3     1     6          0.00143  -0.00164   0.10115   0.00023   0.26623
   1     2     1         -0.21433  -0.28899  -0.31767  -0.04363  -0.07812
   2     2     1         -0.47117   0.00663  -0.14073   0.00609  -0.03411
   3     2     1          0.27656  -0.15160  -0.00810  -0.03626   0.20187
   1     3     1          0.49325   0.18346  -0.33175   0.02346  -0.08542
   2     3     1         -0.17135   0.22167  -0.13974   0.03733  -0.02601
   3     3     1         -0.26168   0.14631  -0.00503   0.03584   0.20386
   1     4     1         -0.18317  -0.18307  -0.11562  -0.02418   0.04632
   2     4     1          0.41442   0.41375  -0.04859   0.05481   0.02970
   3     4     1         -0.00594  -0.00547   0.48599   0.00013   0.48569
   1     5     6         -0.04827   0.07078   0.21622  -0.00076   0.06345
   2     5     6          0.11269  -0.15701   0.09412   0.00283   0.03023
   3     5     6         -0.00282   0.00343  -0.05438   0.00006   0.11890
   1     6     1         -0.09610   0.02627   0.21978  -0.09425   0.04528
   2     6     1          0.22190  -0.05521   0.08935   0.21606   0.02755
   3     6     1         -0.00542   0.00074  -0.19461  -0.00505   0.34186
   1     7     6          0.01091   0.07699   0.15759   0.03988  -0.15020
   2     7     6         -0.02381  -0.17322   0.06934  -0.09135  -0.06689
   3     7     6          0.00008   0.00326  -0.09356   0.00187  -0.09074
   1     8     1          0.06688   0.14531   0.15654   0.06030  -0.14718
   2     8     1         -0.15181  -0.32953   0.06683  -0.13800  -0.06507
   3     8     1          0.00202   0.00498  -0.31581   0.00239  -0.12847
   1     9     8          0.01495  -0.05190  -0.14952  -0.04407   0.04665
   2     9     8         -0.03555   0.11567  -0.06637   0.10051   0.01374
   3     9     8          0.00067  -0.00279   0.01790  -0.00264  -0.25568
   1    10     1         -0.02751  -0.23966  -0.14342   0.37732   0.03692
   2    10     1          0.06169   0.54556  -0.05981  -0.86413   0.00622
   3    10     1         -0.00079  -0.01086   0.31060   0.01919  -0.55222
                           6         7         8         9        10
                           A         A         A         A         A
       Frequencies ---   802.7833  931.9510  965.6955 1064.3690 1108.6477
    Reduced masses ---     1.5932    1.5800    1.1275    1.4254    2.0864
   Force constants ---     0.6049    0.8085    0.6195    0.9514    1.5109
    IR Intensities ---    16.7750   13.3637   59.0075    0.0493   10.5977
 Coord Atom Element:
   1     1     6         -0.01364  -0.03938  -0.00095  -0.06102   0.15133
   2     1     6          0.03108  -0.01337   0.00124   0.13877   0.06856
   3     1     6         -0.00029   0.16003   0.00070  -0.00351   0.08483
   1     2     1          0.12304   0.33481  -0.00564   0.21527  -0.13956
   2     2     1         -0.01838   0.20237  -0.01255  -0.10359  -0.13365
   3     2     1          0.21601   0.31440   0.01074   0.59673   0.00820
   1     3     1         -0.06546   0.37079   0.01736  -0.06128  -0.19437
   2     3     1         -0.11132   0.12187  -0.00348  -0.25201  -0.01286
   3     3     1         -0.21206   0.31396  -0.00723  -0.58970   0.00526
   1     4     1          0.04408  -0.04970   0.01080   0.12442   0.16562
   2     4     1         -0.09980  -0.03248  -0.02549  -0.28192   0.08860
   3     4     1          0.00208  -0.45746  -0.00235   0.00696   0.68075
   1     5     6         -0.05729  -0.07560   0.00770   0.04868  -0.16442
   2     5     6          0.13059  -0.03439  -0.01847  -0.11039  -0.07620
   3     5     6         -0.00304  -0.04382   0.00017   0.00285  -0.16465
   1     6     1          0.34144  -0.05538  -0.20302  -0.06174  -0.17763
   2     6     1         -0.78010  -0.03638   0.46307   0.14177  -0.07756
   3     6     1          0.01725  -0.43639  -0.01244  -0.00216  -0.01677
   1     7     6          0.06828   0.08987   0.04156  -0.00804   0.03779
   2     7     6         -0.15583   0.03991  -0.09357   0.01839   0.01550
   3     7     6          0.00363  -0.01891   0.00215  -0.00030  -0.04129
   1     8     1         -0.11755   0.09568  -0.33903   0.04803   0.03047
   2     8     1          0.26890   0.03220   0.77609  -0.10968   0.02093
   3     8     1         -0.00678  -0.08535  -0.01925   0.00298   0.28139
   1     9     8         -0.01817  -0.02365  -0.00049  -0.00199   0.00094
   2     9     8          0.04149  -0.01179   0.00077   0.00445   0.00049
   3     9     8         -0.00124  -0.06004  -0.00023  -0.00023   0.00163
   1    10     1         -0.00559  -0.02189  -0.04787   0.00961   0.00646
   2    10     1          0.01274  -0.00702   0.10925  -0.02213   0.01320
   3    10     1         -0.00033   0.14517  -0.00179   0.00025   0.45736
                          11        12        13        14        15
                           A         A         A         A         A
       Frequencies ---  1136.5049 1263.8821 1336.1071 1395.7864 1424.4262
    Reduced masses ---     2.6059    1.5477    1.2952    1.2243    1.2943
   Force constants ---     1.9831    1.4567    1.3623    1.4054    1.5472
    IR Intensities ---   215.3678   18.2064   12.8413   18.5228    5.8776
 Coord Atom Element:
   1     1     6         -0.02750  -0.06991   0.00042  -0.04111   0.03725
   2     1     6         -0.01405  -0.02997   0.00057  -0.01844   0.01951
   3     1     6         -0.07677   0.02860   0.01262  -0.02202   0.13719
   1     2     1         -0.06531   0.12378  -0.00555   0.20702  -0.30718
   2     2     1         -0.03237   0.10815   0.03582   0.06662   0.11504
   3     2     1         -0.09692   0.08152  -0.04949   0.17110  -0.41967
   1     3     1         -0.06519   0.16235   0.02516   0.18823  -0.11523
   2     3     1         -0.02917   0.02156  -0.02971   0.11514  -0.32030
   3     3     1         -0.09515   0.08300  -0.04765   0.17051  -0.40961
   1     4     1         -0.03408  -0.06986   0.00196  -0.02105   0.00790
   2     4     1         -0.01748  -0.03595  -0.00131  -0.00662  -0.00808
   3     4     1         -0.11810  -0.19390  -0.05412   0.20325  -0.52403
   1     5     6         -0.02708   0.03644   0.09912   0.01849  -0.00685
   2     5     6         -0.00853   0.01511   0.04326   0.00628  -0.00421
   3     5     6          0.12869  -0.04250  -0.00504  -0.08205  -0.05389
   1     6     1         -0.04662  -0.01490   0.12751   0.00336  -0.02200
   2     6     1         -0.00841   0.00929   0.04345   0.00864  -0.00518
   3     6     1          0.51059   0.69914  -0.54561   0.32441   0.19091
   1     7     6          0.13700  -0.05720  -0.10659   0.06193   0.03247
   2     7     6          0.06330  -0.02888  -0.04687   0.02697   0.01405
   3     7     6          0.14903  -0.16368  -0.00463  -0.00275  -0.00658
   1     8     1          0.13433  -0.05740  -0.11945   0.05994   0.03584
   2     8     1          0.06901  -0.02330  -0.03415   0.04003   0.01981
   3     8     1          0.44079   0.09718   0.75058   0.58554   0.18371
   1     9     8         -0.05389   0.05534   0.00342  -0.05385  -0.02079
   2     9     8         -0.02885   0.02538   0.00100  -0.02297  -0.00864
   3     9     8         -0.22834   0.04844  -0.02213   0.02459   0.01945
   1    10     1         -0.04928   0.05736   0.00002  -0.05074  -0.01795
   2    10     1         -0.00850   0.03815   0.00626  -0.03548  -0.01353
   3    10     1          0.59000   0.57862   0.26245  -0.57309  -0.24346
                          16        17        18        19        20
                           A         A         A         A         A
       Frequencies ---  1480.4455 1501.1400 1735.7747 3008.4700 3048.2220
    Reduced masses ---     1.0432    1.0509    5.3419    1.0368    1.1006
   Force constants ---     1.3472    1.3953    9.4828    5.5286    6.0251
    IR Intensities ---     7.0510   10.2801  106.5580   45.9692   32.5881
 Coord Atom Element:
   1     1     6          0.02115  -0.04570   0.00777   0.00340   0.03689
   2     1     6         -0.04980  -0.01916   0.00219   0.00219  -0.08411
   3     1     6          0.00115   0.01238  -0.05260   0.05109   0.00171
   1     2     1          0.41549   0.20079  -0.05629   0.37975  -0.42265
   2     2     1          0.24388   0.47918   0.05886  -0.40936   0.43601
   3     2     1          0.13028  -0.35446  -0.18402  -0.30739   0.36153
   1     3     1         -0.44605   0.50450   0.00879  -0.04091  -0.03016
   2     3     1         -0.15052  -0.18549  -0.08839   0.54988   0.58707
   3     3     1         -0.13876  -0.33699  -0.18067  -0.33294  -0.38223
   1     4     1         -0.28710  -0.01058   0.01569  -0.38263   0.01194
   2     4     1          0.65050  -0.00361   0.01066  -0.16813  -0.01808
   3     4     1         -0.01054   0.42227   0.15574   0.02975   0.00019
   1     5     6          0.00699  -0.00823  -0.15145   0.00146   0.00005
   2     5     6         -0.01564  -0.00345  -0.05686   0.00065  -0.00011
   3     5     6          0.00026   0.00083   0.40261   0.00058   0.00001
   1     6     1         -0.01236  -0.00627  -0.16300  -0.01997  -0.00037
   2     6     1          0.02854  -0.00414  -0.07975  -0.00871   0.00098
   3     6     1         -0.00070  -0.04130  -0.38075   0.00223  -0.00003
   1     7     6          0.00013  -0.00924   0.15392  -0.00046   0.00008
   2     7     6         -0.00048  -0.00327   0.05759  -0.00023  -0.00018
   3     7     6          0.00033   0.03111  -0.41222  -0.00125   0.00001
   1     8     1         -0.00531  -0.01216   0.21430   0.01187   0.00030
   2     8     1          0.01155  -0.00828   0.10553   0.00526  -0.00083
   3     8     1          0.00063  -0.11899   0.47261   0.00129   0.00001
   1     9     8         -0.00015   0.00455  -0.00871  -0.00007   0.00001
   2     9     8          0.00022   0.00174  -0.00225  -0.00002  -0.00001
   3     9     8         -0.00011  -0.00990   0.06717   0.00052   0.00000
   1    10     1          0.00107   0.00370  -0.00310   0.00064  -0.00003
   2    10     1         -0.00258   0.00295  -0.00592   0.00024   0.00006
   3    10     1          0.00010   0.05892  -0.20825  -0.00142   0.00001
                          21        22        23        24
                           A         A         A         A
       Frequencies ---  3084.4394 3111.7291 3175.2221 3810.1134
    Reduced masses ---     1.0977    1.0898    1.0914    1.0653
   Force constants ---     6.1529    6.2175    6.4832    9.1114
    IR Intensities ---    17.3379   36.9450   14.7249   30.1892
 Coord Atom Element:
   1     1     6         -0.07674  -0.02226  -0.00183   0.00012
   2     1     6         -0.03309  -0.00955  -0.00081   0.00005
   3     1     6          0.02509   0.00978   0.00008  -0.00001
   1     2     1          0.15021   0.05121   0.00019  -0.00004
   2     2     1         -0.18734  -0.06341   0.00069  -0.00069
   3     2     1         -0.13081  -0.04835   0.00181  -0.00101
   1     3     1         -0.03455  -0.01143   0.00055  -0.00052
   2     3     1          0.23015   0.07815  -0.00033   0.00040
   3     3     1         -0.13919  -0.05128   0.00186  -0.00104
   1     4     1          0.79878   0.22472   0.02372   0.00010
   2     4     1          0.35122   0.09882   0.01062   0.00003
   3     4     1         -0.04265  -0.01048   0.00195  -0.00031
   1     5     6          0.02161  -0.07508  -0.00040  -0.00105
   2     5     6          0.00948  -0.03284  -0.00031  -0.00047
   3     5     6          0.00117   0.00054  -0.00560  -0.00046
   1     6     1         -0.25900   0.87370   0.03495   0.00332
   2     6     1         -0.11367   0.38362   0.01537   0.00150
   3     6     1         -0.01164   0.04737   0.00161   0.00299
   1     7     6          0.00100   0.00427  -0.07955   0.00341
   2     7     6          0.00048   0.00171  -0.03468   0.00147
   3     7     6          0.00173  -0.00647   0.00591  -0.00074
   1     8     1         -0.01088  -0.03532   0.91145  -0.01690
   2     8     1         -0.00494  -0.01545   0.39873  -0.00735
   3     8     1         -0.00369   0.00186  -0.00512   0.00191
   1     9     8          0.00003  -0.00001   0.00137   0.05665
   2     9     8          0.00001   0.00001   0.00058   0.02475
   3     9     8         -0.00027   0.00058  -0.00095   0.00004
   1    10     1         -0.00060   0.00545  -0.01891  -0.91448
   2    10     1         -0.00023   0.00241  -0.00804  -0.39924
   3    10     1         -0.00110   0.00589   0.00854   0.01145
 Harmonic frequencies (cm**-1), IR intensities (KM/Mole), Raman scattering
 activities (A**4/AMU), depolarization ratios for plane and unpolarized
 incident light, reduced masses (AMU), force constants (mDyne/A),
 and normal coordinates:
                     1                      2                      3
                     A                      A                      A
 Frequencies --   198.2223               267.1665               295.7584
 Red. masses --     1.2174                 2.1258                 2.8110
 Frc consts  --     0.0282                 0.0894                 0.1449
 IR Inten    --     0.0014                15.4807                 9.0422
 Atom AN      X      Y      Z        X      Y      Z        X      Y      Z
   1   6     0.01  -0.03   0.00    -0.05   0.11   0.00    -0.13  -0.06   0.10
   2   1    -0.21  -0.47   0.28    -0.29   0.01  -0.15    -0.32  -0.14  -0.01
   3   1     0.49  -0.17  -0.26     0.18   0.22   0.15    -0.33  -0.14  -0.01
   4   1    -0.18   0.41  -0.01    -0.18   0.41  -0.01    -0.12  -0.05   0.49
   5   6    -0.05   0.11   0.00     0.07  -0.16   0.00     0.22   0.09  -0.05
   6   1    -0.10   0.22  -0.01     0.03  -0.06   0.00     0.22   0.09  -0.19
   7   6     0.01  -0.02   0.00     0.08  -0.17   0.00     0.16   0.07  -0.09
   8   1     0.07  -0.15   0.00     0.15  -0.33   0.00     0.16   0.07  -0.32
   9   8     0.01  -0.04   0.00    -0.05   0.12   0.00    -0.15  -0.07   0.02
  10   1    -0.03   0.06   0.00    -0.24   0.55  -0.01    -0.14  -0.06   0.31
                     4                      5                      6
                     A                      A                      A
 Frequencies --   450.6839               541.0476               802.7833
 Red. masses --     1.2998                 3.4231                 1.5932
 Frc consts  --     0.1555                 0.5904                 0.6049
 IR Inten    --    80.2493                 2.9556                16.7750
 Atom AN      X      Y      Z        X      Y      Z        X      Y      Z
   1   6    -0.01   0.01   0.00     0.04   0.02   0.27    -0.01   0.03   0.00
   2   1    -0.04   0.01  -0.04    -0.08  -0.03   0.20     0.12  -0.02   0.22
   3   1     0.02   0.04   0.04    -0.09  -0.03   0.20    -0.07  -0.11  -0.21
   4   1    -0.02   0.05   0.00     0.05   0.03   0.49     0.04  -0.10   0.00
   5   6     0.00   0.00   0.00     0.06   0.03   0.12    -0.06   0.13   0.00
   6   1    -0.09   0.22  -0.01     0.05   0.03   0.34     0.34  -0.78   0.02
   7   6     0.04  -0.09   0.00    -0.15  -0.07  -0.09     0.07  -0.16   0.00
   8   1     0.06  -0.14   0.00    -0.15  -0.07  -0.13    -0.12   0.27  -0.01
   9   8    -0.04   0.10   0.00     0.05   0.01  -0.26    -0.02   0.04   0.00
  10   1     0.38  -0.86   0.02     0.04   0.01  -0.55    -0.01   0.01   0.00
                     7                      8                      9
                     A                      A                      A
 Frequencies --   931.9510               965.6955              1064.3690
 Red. masses --     1.5800                 1.1275                 1.4254
 Frc consts  --     0.8085                 0.6195                 0.9514
 IR Inten    --    13.3637                59.0075                 0.0493
 Atom AN      X      Y      Z        X      Y      Z        X      Y      Z
   1   6    -0.04  -0.01   0.16     0.00   0.00   0.00    -0.06   0.14   0.00
   2   1     0.33   0.20   0.31    -0.01  -0.01   0.01     0.22  -0.10   0.60
   3   1     0.37   0.12   0.31     0.02   0.00  -0.01    -0.06  -0.25  -0.59
   4   1    -0.05  -0.03  -0.46     0.01  -0.03   0.00     0.12  -0.28   0.01
   5   6    -0.08  -0.03  -0.04     0.01  -0.02   0.00     0.05  -0.11   0.00
   6   1    -0.06  -0.04  -0.44    -0.20   0.46  -0.01    -0.06   0.14   0.00
   7   6     0.09   0.04  -0.02     0.04  -0.09   0.00    -0.01   0.02   0.00
   8   1     0.10   0.03  -0.09    -0.34   0.78  -0.02     0.05  -0.11   0.00
   9   8    -0.02  -0.01  -0.06     0.00   0.00   0.00     0.00   0.00   0.00
  10   1    -0.02  -0.01   0.15    -0.05   0.11   0.00     0.01  -0.02   0.00
                    10                     11                     12
                     A                      A                      A
 Frequencies --  1108.6477              1136.5049              1263.8821
 Red. masses --     2.0864                 2.6059                 1.5477
 Frc consts  --     1.5109                 1.9831                 1.4567
 IR Inten    --    10.5977               215.3678                18.2064
 Atom AN      X      Y      Z        X      Y      Z        X      Y      Z
   1   6     0.15   0.07   0.08    -0.03  -0.01  -0.08    -0.07  -0.03   0.03
   2   1    -0.14  -0.13   0.01    -0.07  -0.03  -0.10     0.12   0.11   0.08
   3   1    -0.19  -0.01   0.01    -0.07  -0.03  -0.10     0.16   0.02   0.08
   4   1     0.17   0.09   0.68    -0.03  -0.02  -0.12    -0.07  -0.04  -0.19
   5   6    -0.16  -0.08  -0.16    -0.03  -0.01   0.13     0.04   0.02  -0.04
   6   1    -0.18  -0.08  -0.02    -0.05  -0.01   0.51    -0.01   0.01   0.70
   7   6     0.04   0.02  -0.04     0.14   0.06   0.15    -0.06  -0.03  -0.16
   8   1     0.03   0.02   0.28     0.13   0.07   0.44    -0.06  -0.02   0.10
   9   8     0.00   0.00   0.00    -0.05  -0.03  -0.23     0.06   0.03   0.05
  10   1     0.01   0.01   0.46    -0.05  -0.01   0.59     0.06   0.04   0.58
                    13                     14                     15
                     A                      A                      A
 Frequencies --  1336.1071              1395.7864              1424.4262
 Red. masses --     1.2952                 1.2243                 1.2943
 Frc consts  --     1.3623                 1.4054                 1.5472
 IR Inten    --    12.8413                18.5228                 5.8776
 Atom AN      X      Y      Z        X      Y      Z        X      Y      Z
   1   6     0.00   0.00   0.01    -0.04  -0.02  -0.02     0.04   0.02   0.14
   2   1    -0.01   0.04  -0.05     0.21   0.07   0.17    -0.31   0.12  -0.42
   3   1     0.03  -0.03  -0.05     0.19   0.12   0.17    -0.12  -0.32  -0.41
   4   1     0.00   0.00  -0.05    -0.02  -0.01   0.20     0.01  -0.01  -0.52
   5   6     0.10   0.04  -0.01     0.02   0.01  -0.08    -0.01   0.00  -0.05
   6   1     0.13   0.04  -0.55     0.00   0.01   0.32    -0.02  -0.01   0.19
   7   6    -0.11  -0.05   0.00     0.06   0.03   0.00     0.03   0.01  -0.01
   8   1    -0.12  -0.03   0.75     0.06   0.04   0.59     0.04   0.02   0.18
   9   8     0.00   0.00  -0.02    -0.05  -0.02   0.02    -0.02  -0.01   0.02
  10   1     0.00   0.01   0.26    -0.05  -0.04  -0.57    -0.02  -0.01  -0.24
                    16                     17                     18
                     A                      A                      A
 Frequencies --  1480.4455              1501.1400              1735.7747
 Red. masses --     1.0432                 1.0509                 5.3419
 Frc consts  --     1.3472                 1.3953                 9.4828
 IR Inten    --     7.0510                10.2801               106.5580
 Atom AN      X      Y      Z        X      Y      Z        X      Y      Z
   1   6     0.02  -0.05   0.00    -0.05  -0.02   0.01     0.01   0.00  -0.05
   2   1     0.42   0.24   0.13     0.20   0.48  -0.35    -0.06   0.06  -0.18
   3   1    -0.45  -0.15  -0.14     0.50  -0.19  -0.34     0.01  -0.09  -0.18
   4   1    -0.29   0.65  -0.01    -0.01   0.00   0.42     0.02   0.01   0.16
   5   6     0.01  -0.02   0.00    -0.01   0.00   0.00    -0.15  -0.06   0.40
   6   1    -0.01   0.03   0.00    -0.01   0.00  -0.04    -0.16  -0.08  -0.38
   7   6     0.00   0.00   0.00    -0.01   0.00   0.03     0.15   0.06  -0.41
   8   1    -0.01   0.01   0.00    -0.01  -0.01  -0.12     0.21   0.11   0.47
   9   8     0.00   0.00   0.00     0.00   0.00  -0.01    -0.01   0.00   0.07
  10   1     0.00   0.00   0.00     0.00   0.00   0.06     0.00  -0.01  -0.21
                    19                     20                     21
                     A                      A                      A
 Frequencies --  3008.4700              3048.2220              3084.4394
 Red. masses --     1.0368                 1.1006                 1.0977
 Frc consts  --     5.5286                 6.0251                 6.1529
 IR Inten    --    45.9692                32.5881                17.3379
 Atom AN      X      Y      Z        X      Y      Z        X      Y      Z
   1   6     0.00   0.00   0.05     0.04  -0.08   0.00    -0.08  -0.03   0.03
   2   1     0.38  -0.41  -0.31    -0.42   0.44   0.36     0.15  -0.19  -0.13
   3   1    -0.04   0.55  -0.33    -0.03   0.59  -0.38    -0.03   0.23  -0.14
   4   1    -0.38  -0.17   0.03     0.01  -0.02   0.00     0.80   0.35  -0.04
   5   6     0.00   0.00   0.00     0.00   0.00   0.00     0.02   0.01   0.00
   6   1    -0.02  -0.01   0.00     0.00   0.00   0.00    -0.26  -0.11  -0.01
   7   6     0.00   0.00   0.00     0.00   0.00   0.00     0.00   0.00   0.00
   8   1     0.01   0.01   0.00     0.00   0.00   0.00    -0.01   0.00   0.00
   9   8     0.00   0.00   0.00     0.00   0.00   0.00     0.00   0.00   0.00
  10   1     0.00   0.00   0.00     0.00   0.00   0.00     0.00   0.00   0.00
                    22                     23                     24
                     A                      A                      A
 Frequencies --  3111.7291              3175.2221              3810.1134
 Red. masses --     1.0898                 1.0914                 1.0653
 Frc consts  --     6.2175                 6.4832                 9.1114
 IR Inten    --    36.9450                14.7249                30.1892
 Atom AN      X      Y      Z        X      Y      Z        X      Y      Z
   1   6    -0.02  -0.01   0.01     0.00   0.00   0.00     0.00   0.00   0.00
   2   1     0.05  -0.06  -0.05     0.00   0.00   0.00     0.00   0.00   0.00
   3   1    -0.01   0.08  -0.05     0.00   0.00   0.00     0.00   0.00   0.00
   4   1     0.22   0.10  -0.01     0.02   0.01   0.00     0.00   0.00   0.00
   5   6    -0.08  -0.03   0.00     0.00   0.00  -0.01     0.00   0.00   0.00
   6   1     0.87   0.38   0.05     0.03   0.02   0.00     0.00   0.00   0.00
   7   6     0.00   0.00  -0.01    -0.08  -0.03   0.01     0.00   0.00   0.00
   8   1    -0.04  -0.02   0.00     0.91   0.40  -0.01    -0.02  -0.01   0.00
   9   8     0.00   0.00   0.00     0.00   0.00   0.00     0.06   0.02   0.00
  10   1     0.01   0.00   0.01    -0.02  -0.01   0.01    -0.91  -0.40   0.01

 -------------------
 - Thermochemistry -
 -------------------
 Temperature   298.150 Kelvin.  Pressure   1.00000 Atm.
 Atom  1 has atomic number  6 and mass  12.00000
 Atom  2 has atomic number  1 and mass   1.00783
 Atom  3 has atomic number  1 and mass   1.00783
 Atom  4 has atomic number  1 and mass   1.00783
 Atom  5 has atomic number  6 and mass  12.00000
 Atom  6 has atomic number  1 and mass   1.00783
 Atom  7 has atomic number  6 and mass  12.00000
 Atom  8 has atomic number  1 and mass   1.00783
 Atom  9 has atomic number  8 and mass  15.99491
 Atom 10 has atomic number  1 and mass   1.00783
 Molecular mass:    58.04186 amu.
 Principal axes and moments of inertia in atomic units:
                           1         2         3
     EIGENVALUES --    43.96403 460.95332 493.76838
           X            0.04843   0.91487  -0.40084
           Y            0.04476   0.39892   0.91589
           Z            0.99782  -0.06230  -0.02163
 This molecule is an asymmetric top.
 Rotational symmetry number  1.
 Rotational temperatures (Kelvin)      1.97011     0.18790     0.17541
 Rotational constants (GHZ):          41.05040     3.91524     3.65504
 Zero-point vibrational energy     222138.1 (Joules/Mol)
                                   53.09228 (Kcal/Mol)
 Warning -- explicit consideration of   5 degrees of freedom as
           vibrations may cause significant error
 Vibrational temperatures:    285.20   384.39   425.53   648.43   778.45
          (Kelvin)           1155.02  1340.87  1389.42  1531.39  1595.09
                             1635.18  1818.44  1922.36  2008.22  2049.43
                             2130.03  2159.80  2497.39  4328.51  4385.71
                             4437.81  4477.08  4568.43  5481.90
 
 Zero-point correction=                           0.084608 (Hartree/Particle)
 Thermal correction to Energy=                    0.089642
 Thermal correction to Enthalpy=                  0.090586
 Thermal correction to Gibbs Free Energy=         0.057699
 Sum of electronic and zero-point Energies=           -193.102051
 Sum of electronic and thermal Energies=              -193.097017
 Sum of electronic and thermal Enthalpies=            -193.096073
 Sum of electronic and thermal Free Energies=         -193.128960
 
                     E (Thermal)             CV                S
                      KCal/Mol        Cal/Mol-Kelvin    Cal/Mol-Kelvin
 Total                   56.251             16.783             69.216
 Electronic               0.000              0.000              0.000
 Translational            0.889              2.981             38.096
 Rotational               0.889              2.981             23.819
 Vibrational             54.474             10.822              7.301
 Vibration  1             0.637              1.842              2.150
 Vibration  2             0.672              1.733              1.614
 Vibration  3             0.690              1.682              1.441
 Vibration  4             0.809              1.359              0.794
 Vibration  5             0.896              1.159              0.563
                       Q            Log10(Q)             Ln(Q)
 Total Bot       0.288621D-26        -26.539672        -61.109854
 Total V=0       0.238338D+13         12.377192         28.499539
 Vib (Bot)       0.463741D-38        -38.333725        -88.266663
 Vib (Bot)  1    0.100660D+01          0.002856          0.006577
 Vib (Bot)  2    0.724415D+00         -0.140013         -0.322391
 Vib (Bot)  3    0.644541D+00         -0.190750         -0.439218
 Vib (Bot)  4    0.380293D+00         -0.419881         -0.966812
 Vib (Bot)  5    0.292540D+00         -0.533815         -1.229155
 Vib (V=0)       0.382948D+01          0.583140          1.342729
 Vib (V=0)  1    0.162394D+01          0.210570          0.484855
 Vib (V=0)  2    0.138021D+01          0.139947          0.322239
 Vib (V=0)  3    0.131574D+01          0.119170          0.274400
 Vib (V=0)  4    0.112819D+01          0.052382          0.120615
 Vib (V=0)  5    0.107929D+01          0.033139          0.076306
 Electronic      0.100000D+01          0.000000          0.000000
 Translational   0.173807D+08          7.240067         16.670871
 Rotational      0.358084D+05          4.553985         10.485939
 -------------------------------------------------------------------
 Center     Atomic                   Forces (Hartrees/Bohr)
 Number     Number              X              Y              Z
 -------------------------------------------------------------------
    1          6           0.000005365    0.000004533    0.000012106
    2          1           0.000002514   -0.000013091   -0.000006339
    3          1           0.000010169    0.000013527   -0.000007486
    4          1          -0.000014628    0.000007128   -0.000001193
    5          6           0.000015725    0.000001677   -0.000036851
    6          1           0.000015171   -0.000010172    0.000001926
    7          6          -0.000022580   -0.000004431    0.000031406
    8          1          -0.000014029    0.000010580   -0.000001341
    9          8          -0.000160223   -0.000070000    0.000009209
   10          1           0.000162516    0.000060249   -0.000001436
 -------------------------------------------------------------------
 Cartesian Forces:  Max     0.000162516 RMS     0.000046724
 ------------------------------------------------------------------------
           Internal Coordinate Forces (Hartree/Bohr or radian)
 Cent Atom N1     Length/X     N2     Alpha/Y      N3      Beta/Z       J
 ------------------------------------------------------------------------
   1  C         0.000005(   1)      0.000005(  11)      0.000012(  21)
   2  H         0.000003(   2)     -0.000013(  12)     -0.000006(  22)
   3  H         0.000010(   3)      0.000014(  13)     -0.000007(  23)
   4  H        -0.000015(   4)      0.000007(  14)     -0.000001(  24)
   5  C         0.000016(   5)      0.000002(  15)     -0.000037(  25)
   6  H         0.000015(   6)     -0.000010(  16)      0.000002(  26)
   7  C        -0.000023(   7)     -0.000004(  17)      0.000031(  27)
   8  H        -0.000014(   8)      0.000011(  18)     -0.000001(  28)
   9  O        -0.000160(   9)     -0.000070(  19)      0.000009(  29)
  10  H         0.000163(  10)      0.000060(  20)     -0.000001(  30)
 ------------------------------------------------------------------------
 Internal  Forces:  Max     0.000162516 RMS     0.000046724
 Force constants in Cartesian coordinates: 
                1             2             3             4             5
      1  0.549997D+00
      2  0.952353D-02  0.530738D+00
      3 -0.259110D-01 -0.121952D-01  0.490350D+00
      4 -0.137644D+00  0.942835D-01  0.733336D-01  0.145878D+00
      5  0.956709D-01 -0.147769D+00 -0.793472D-01 -0.105809D+00  0.158326D+00
      6  0.752097D-01 -0.796049D-01 -0.104452D+00 -0.804712D-01  0.882079D-01
      7 -0.483125D-01  0.120256D-01 -0.854839D-02 -0.159534D-02  0.178190D-01
      8  0.107050D-01 -0.228261D+00  0.112563D+00  0.100861D-02 -0.191066D-01
[...]
     28 -0.381605D-02 -0.528584D-01  0.650833D-01
     29  0.356193D-02 -0.283846D+00 -0.803906D-02  0.395498D+00
     30 -0.534401D-03 -0.353078D-02 -0.553825D-02 -0.469708D-01  0.548593D-01
 Force constants in internal coordinates: 
                1             2             3             4             5
      1  0.549997D+00
      2 -0.137644D+00  0.145878D+00
      3 -0.483125D-01 -0.159534D-02  0.469263D-01
      4 -0.264358D+00 -0.168586D-01  0.276335D-02  0.287383D+00
      5 -0.101913D+00  0.102018D-01  0.582730D-03 -0.109900D-01  0.586414D+00
      6 -0.744117D-02  0.301813D-03  0.174921D-03  0.625562D-03 -0.270089D+00
      7  0.866914D-02  0.000000D+00 -0.914833D-03  0.495466D-03 -0.224019D+00
      8 -0.245977D-03  0.303459D-04  0.281695D-03  0.644637D-03 -0.102943D-01
      9  0.210897D-02 -0.549057D-03 -0.611827D-05  0.322781D-03  0.153616D-01
     10 -0.860476D-03  0.233713D-03  0.997751D-04 -0.277561D-04  0.474466D-02
     11  0.952353D-02  0.942835D-01  0.120256D-01 -0.957501D-01 -0.184943D-01
     12  0.956709D-01 -0.105809D+00  0.178190D-01 -0.783040D-02  0.130198D-02
     13  0.107050D-01  0.100861D-02 -0.132631D-01  0.977297D-03 -0.244517D-03
     14 -0.957848D-01  0.192123D-01 -0.254215D-01  0.106735D+00 -0.498043D-02
     15 -0.185136D-01 -0.923923D-02  0.956642D-02 -0.436602D-02  0.200767D+00
     16 -0.451561D-02  0.212662D-03 -0.746320D-04 -0.453455D-03 -0.104166D+00
     17  0.580322D-02 -0.710030D-03  0.512582D-04  0.313348D-03 -0.718747D-01
     18  0.228231D-02  0.373228D-03 -0.243596D-03  0.132132D-03 -0.704760D-02
     19 -0.521122D-02  0.845201D-03 -0.763719D-03  0.240206D-03  0.222131D-02
     20  0.403197D-04 -0.176996D-03  0.304287D-03  0.189645D-05  0.251758D-02
     21 -0.259110D-01  0.733336D-01 -0.854839D-02  0.124948D-01 -0.438178D-01
     22  0.752097D-01 -0.804712D-01 -0.104566D-01  0.113282D-02  0.181039D-01
     23 -0.742303D-02  0.279480D-03  0.100378D-01  0.521025D-03  0.328059D-03
     24  0.145335D-01  0.137342D-01  0.159572D-01 -0.128576D-01 -0.292306D-01
     25 -0.478108D-01 -0.625144D-02 -0.675768D-02 -0.740242D-03 -0.120523D+00
     26 -0.261348D-01  0.791372D-03  0.327949D-03 -0.199446D-02 -0.129776D-01
     27  0.821735D-02 -0.782885D-05  0.107775D-02  0.263858D-02  0.185662D+00
     28  0.161412D-02 -0.126608D-03 -0.642687D-04 -0.777170D-03  0.224327D-01
     29  0.731664D-02 -0.126723D-02 -0.157989D-02 -0.804751D-03 -0.184182D-01
     30  0.388218D-03 -0.143346D-04  0.610149D-05  0.387032D-03 -0.155979D-02
                6             7             8             9            10
      6  0.289300D+00
      7 -0.157252D-01  0.655227D+00
      8  0.115154D-02 -0.284575D+00  0.302474D+00
      9  0.181062D-02 -0.119170D+00 -0.114264D-01  0.537184D+00
     10 -0.109107D-03 -0.199879D-01  0.195947D-02 -0.425636D+00  0.439583D+00
     11 -0.388104D-02  0.540884D-02  0.219214D-02 -0.534931D-02  0.411284D-04
     12 -0.197516D-03 -0.887910D-03  0.000000D+00 -0.255338D-03  0.189026D-03
     13  0.306935D-03  0.335111D-04  0.135025D-03  0.388514D-03 -0.472221D-04
     14 -0.430932D-03  0.167946D-03  0.240071D-03  0.266349D-03 -0.403536D-05
     15 -0.104009D+00 -0.720974D-01 -0.767223D-02  0.293877D-02  0.262517D-02
     16  0.117913D+00 -0.916139D-02 -0.336879D-02  0.378468D-02 -0.170684D-03
     17 -0.994678D-02  0.227669D+00 -0.106492D+00 -0.361537D-01 -0.865968D-02
     18 -0.335791D-02 -0.106383D+00  0.121449D+00 -0.627604D-02 -0.928611D-03
     19  0.376298D-02 -0.350732D-01 -0.558580D-02  0.221842D+00 -0.182278D+00
     20 -0.160310D-03 -0.967644D-02 -0.897064D-03 -0.181186D+00  0.189233D+00
     21  0.909687D-03 -0.828449D-02 -0.124047D-02  0.511880D-03  0.552205D-03
     22 -0.542712D-03 -0.242794D-02  0.396420D-03 -0.137659D-02  0.432206D-03
     23 -0.597623D-04 -0.447906D-02 -0.304348D-03  0.877425D-03  0.222395D-03
     24 -0.178455D-02 -0.174049D-02  0.864841D-03  0.375958D-03  0.147549D-03
     25 -0.967149D-02  0.177152D+00 -0.200316D-02  0.124374D-01  0.416809D-02
     26  0.125458D-01  0.257863D-01  0.201366D-02  0.800158D-03 -0.115838D-02
     27 -0.552007D-02 -0.120394D+00  0.866878D-02 -0.785665D-01 -0.177656D-02
     28  0.264306D-02  0.135139D-01 -0.419157D-03 -0.358186D-01 -0.299796D-02
     29 -0.314811D-03 -0.332212D-01 -0.640554D-02  0.515226D-01  0.317238D-02
     30  0.179484D-02 -0.459054D-01 -0.157103D-02  0.492363D-01 -0.276192D-02
               11            12            13            14            15
     11  0.530738D+00
     12 -0.147769D+00  0.158326D+00
     13 -0.228261D+00 -0.191066D-01  0.247533D+00
     14 -0.885893D-01  0.922513D-02 -0.103989D-01  0.915430D-01
     15 -0.707437D-01 -0.443479D-03  0.101199D-01 -0.336179D-02  0.208151D+00
     16 -0.511247D-03  0.777729D-04  0.183845D-03  0.131025D-02 -0.786843D-01
     17 -0.168747D-02 -0.329510D-03  0.636518D-03  0.100047D-03 -0.793702D-01
     18 -0.435883D-02  0.139848D-03 -0.758488D-04  0.333055D-03  0.388181D-02
     19  0.120947D-01 -0.101422D-03 -0.757603D-03 -0.155312D-03  0.103921D-01
     20 -0.911902D-03 -0.184131D-04  0.126860D-03 -0.617809D-05  0.592288D-04
     21 -0.121952D-01 -0.793472D-01  0.112563D+00  0.542295D-02 -0.223388D-01
     22 -0.796049D-01  0.882079D-01  0.102419D-01 -0.359594D-03 -0.166559D-01
     23  0.114160D+00 -0.132528D-01 -0.124001D+00  0.101680D-02  0.235095D-01
     24  0.640680D-02  0.766257D-02  0.532121D-02 -0.554000D-02 -0.127988D-01
     25 -0.241799D-01 -0.346129D-02 -0.349933D-02 -0.250106D-03 -0.381805D-01
     26 -0.114653D-01 -0.262071D-03  0.795889D-03 -0.102780D-02 -0.622030D-02
     27  0.294064D-02  0.150257D-02 -0.100676D-02  0.121669D-02  0.731391D-01
     28  0.872192D-03  0.622847D-05 -0.933770D-04 -0.304164D-03  0.972799D-02
     29  0.289502D-02 -0.109521D-02 -0.284178D-03 -0.351970D-03 -0.955858D-02
     30  0.170070D-03  0.393026D-04 -0.374589D-04  0.177188D-03 -0.623787D-03
               16            17            18            19            20
     16  0.723918D-01
     17  0.266922D-02  0.226805D+00
     18  0.751686D-02 -0.872371D-01  0.781101D-01
     19 -0.512754D-02 -0.570361D-01 -0.180504D-02  0.129821D+00
     20  0.173389D-03 -0.455014D-02  0.349509D-02 -0.873247D-01  0.889567D-01
     21  0.376485D-03 -0.423671D-02 -0.384669D-03 -0.106511D-03  0.246708D-03
     22  0.458262D-03 -0.382434D-02 -0.777536D-03  0.241267D-02 -0.985236D-04
     23 -0.682759D-03  0.802505D-03  0.822592D-03 -0.276885D-02  0.393358D-03
     24 -0.949560D-03 -0.721474D-03  0.377585D-03  0.170832D-03  0.708502D-04
     25 -0.473694D-02  0.693679D-01 -0.944764D-03  0.396210D-02  0.192276D-02
     26  0.630313D-02  0.112637D-01  0.580487D-03  0.593054D-03 -0.560805D-03
     27 -0.251163D-02 -0.378114D-01  0.345730D-02 -0.400703D-01 -0.856227D-03
     28  0.857864D-03  0.556615D-02  0.780863D-03 -0.158772D-01 -0.153651D-02
     29  0.104527D-03 -0.202313D-01 -0.300257D-02  0.310108D-01  0.513521D-03
     30  0.780612D-03 -0.201750D-01 -0.909280D-03  0.206735D-01 -0.951263D-04
               21            22            23            24            25
     21  0.490350D+00
     22 -0.104452D+00  0.120020D+00
     23 -0.113193D+00  0.886421D-02  0.129702D+00
     24 -0.485132D-01 -0.143360D-02 -0.140029D-02  0.531381D-01
     25 -0.195513D+00 -0.215346D-01 -0.225256D-01  0.177003D-02  0.738105D+00
     26  0.973083D-03  0.866377D-03  0.853253D-03 -0.527094D-02 -0.564684D-01
     27 -0.309163D-01  0.765151D-03  0.751980D-03  0.165420D-02 -0.395339D+00
     28  0.160314D-02  0.324567D-04 -0.845252D-05 -0.129159D-03  0.367054D-02
     29  0.424445D-03 -0.326947D-02 -0.317608D-02 -0.124337D-03 -0.540591D-01
     30 -0.763038D-03  0.141617D-03  0.132743D-03  0.309214D-03  0.189437D-02
               26            27            28            29            30
     26  0.573378D-01
     27  0.249742D-02  0.760822D+00
     28 -0.381605D-02 -0.528584D-01  0.650833D-01
     29  0.356193D-02 -0.283846D+00 -0.803906D-02  0.395498D+00
     30 -0.534401D-03 -0.353078D-02 -0.553825D-02 -0.469708D-01  0.548593D-01
 Final forces over variables, Energy=-1.93186659D+02:
  5.36496218D-06 2.51392399D-06 1.01691651D-05-1.46280923D-05
  1.57246345D-05 1.51714355D-05-2.25800228D-05-1.40288624D-05
 -1.60223410D-04 1.62516266D-04 4.53280329D-06-1.30906550D-05
  1.35268797D-05 7.12812222D-06 1.67688468D-06-1.01721184D-05
 -4.43109808D-06 1.05799851D-05-6.99995364D-05 6.02487329D-05
  1.21063888D-05-6.33929118D-06-7.48638034D-06-1.19290454D-06
 -3.68506566D-05 1.92580208D-06 3.14058666D-05-1.34132203D-06
  9.20865979D-06-1.43616251D-06

 GradGradGradGradGradGradGradGradGradGradGradGradGradGradGradGradGradGrad
 Berny optimization.
 Search for a local minimum.
 Step number   1 out of a maximum of   2
 All quantities printed in internal units (Hartrees-Bohrs-Radians)
 Second derivative matrix not updated -- analytic derivatives used.
     Eigenvalues ---    0.00190   0.00564   0.00960   0.02081   0.02837
     Eigenvalues ---    0.04256   0.04969   0.07593   0.09577   0.10317
     Eigenvalues ---    0.10855   0.12847   0.14231   0.18866   0.20711
     Eigenvalues ---    0.25007   0.48962   0.60389   0.71141   0.74254
     Eigenvalues ---    0.74679   0.87591   1.06162   1.44559
 Angle between quadratic step and forces=  63.07 degrees.
 Linear search not attempted -- first point.
 TrRot= -0.000012  0.000017  0.000020  0.000002 -0.000002  0.000002
 Variable       Old X    -DE/DX   Delta X   Delta X   Delta X     New X
                                 (Linear)    (Quad)   (Total)
    X1       -5.89881   0.00001   0.00000   0.00001   0.00000  -5.89881
    Y1       -0.93641   0.00000   0.00000   0.00000  -0.00001  -0.93642
    Z1        0.08743   0.00001   0.00000  -0.00003  -0.00002   0.08740
    X2       -4.68713   0.00000   0.00000  -0.00003  -0.00004  -4.68716
    Y2       -2.24427  -0.00001   0.00000  -0.00019  -0.00019  -2.24446
    Z2       -0.96561  -0.00001   0.00000   0.00008   0.00009  -0.96553
    X3       -6.02848   0.00001   0.00000   0.00021   0.00020  -6.02828
    Y3        0.79848   0.00001   0.00000  -0.00003  -0.00004   0.79844
    Z3       -1.03558  -0.00001   0.00000  -0.00017  -0.00017  -1.03575
    X4       -7.78809  -0.00001   0.00000  -0.00010  -0.00011  -7.78820
    Y4       -1.76703   0.00001   0.00000   0.00016   0.00014  -1.76689
    Z4        0.17513   0.00000   0.00000  -0.00007  -0.00007   0.17506
    X5       -4.87610   0.00002   0.00000  -0.00006  -0.00007  -4.87617
    Y5       -0.42676   0.00000   0.00000   0.00009   0.00009  -0.42667
    Z5        2.68552  -0.00004   0.00000  -0.00003  -0.00002   2.68550
    X6       -2.99411   0.00002   0.00000  -0.00005  -0.00007  -2.99418
    Y6        0.40022  -0.00001   0.00000   0.00015   0.00015   0.40037
    Z6        2.80899   0.00000   0.00000   0.00000   0.00001   2.80900
    X7       -6.12868  -0.00002   0.00000  -0.00002  -0.00004  -6.12873
    Y7       -0.92489   0.00000   0.00000  -0.00006  -0.00007  -0.92496
    Z7        4.81122   0.00003   0.00000   0.00004   0.00005   4.81127
    X8       -8.00727  -0.00001   0.00000  -0.00002  -0.00004  -8.00731
    Y8       -1.74686   0.00001   0.00000  -0.00013  -0.00015  -1.74700
    Z8        4.81493   0.00000   0.00000   0.00005   0.00005   4.81498
    X9       -5.32019  -0.00016   0.00000  -0.00003  -0.00005  -5.32025
    Y9       -0.51451  -0.00007   0.00000  -0.00006  -0.00006  -0.51457
    Z9        7.22646   0.00001   0.00000   0.00005   0.00006   7.22651
   X10       -3.65107   0.00016   0.00000   0.00026   0.00023  -3.65085
   Y10        0.21345   0.00006   0.00000   0.00013   0.00013   0.21358
   Z10        7.17426   0.00000   0.00000   0.00002   0.00003   7.17429
         Item               Value     Threshold  Converged?
 Maximum Force            0.000163     0.000450     YES
 RMS     Force            0.000047     0.000300     YES
 Maximum Displacement     0.000227     0.001800     YES
 RMS     Displacement     0.000101     0.001200     YES
 Predicted change in Energy=-3.181533D-08
 Optimization completed.
    -- Stationary point found.
 GradGradGradGradGradGradGradGradGradGradGradGradGradGradGradGradGradGrad


 Test job not archived.
 1\1\GINC-NODE21\Freq\RB3LYP\CBSB7\C3H6O1\NYEE\29-Jul-2014\0\\# freq no
 symm b3lyp/cbsb7 iop(7/33=1)\\Title Card Required\\0,1\C,-3.121518,-0.
 495529,0.046265\H,-2.48032,-1.187614,-0.51098\H,-3.190132,0.422536,-0.
 548007\H,-4.12128,-0.935073,0.092673\C,-2.58032,-0.225832,1.421114\H,-
 1.584416,0.211786,1.486454\C,-3.24316,-0.489432,2.545987\H,-4.237264,-
 0.924397,2.547951\O,-2.815325,-0.272267,3.824076\H,-1.932064,0.112951,
 3.796457\\Version=AM64L-G03RevD.01\HF=-193.186659\RMSD=4.211e-09\RMSF=
 4.672e-05\ZeroPoint=0.0846079\Thermal=0.0896418\Dipole=0.3461333,0.144
 6359,-0.2725755\DipoleDeriv=0.086106,-0.0384865,0.0165603,-0.039291,0.
 1581125,0.0063895,-0.0073385,-0.0044638,0.1289611,-0.0083329,0.0955639
 ,0.0498121,0.0825997,-0.0160724,-0.1240048,0.0449044,-0.0719781,-0.084
 716,0.0775448,0.0018204,-0.0554206,0.0154413,-0.0927849,0.1210853,-0.0
 205937,0.0821673,-0.094319,-0.11725,-0.0860327,-0.0379937,-0.0839927,0
 .038308,-0.0179331,0.0417317,0.0171511,0.0238151,-0.0359591,0.1396015,
 0.26296,0.133591,-0.2794414,0.1177354,0.0044262,0.0047912,-0.2171674,-
 0.0986097,-0.1186531,-0.0564386,-0.1186961,0.1165057,-0.0289761,-0.065
 6522,-0.0329429,-0.0093946,0.2479379,0.1360763,0.2406091,0.1301373,0.0
 098554,0.1380134,-0.0112226,0.0277384,1.3465449,-0.0457215,-0.08656,-0
 .0198859,-0.0864295,0.1127983,-0.0113604,-0.0164354,-0.0097936,0.03899
 89,-0.2716665,0.0277266,-0.4698532,0.0370107,-0.3494446,-0.2307212,-0.
 0701041,-0.0556221,-1.4299649,0.165951,-0.0710564,0.0696506,-0.0703708
 ,0.3021634,0.0297722,0.1002841,0.0429525,0.297242\Polar=35.7677776,4.7
 115467,26.9358168,-2.1909848,-0.299325,53.0735706\PG=C01 [X(C3H6O1)]\N
 Imag=0\\0.54999685,0.00952353,0.53073795,-0.02591100,-0.01219517,0.490
 35045,-0.13764353,0.09428349,0.07333362,0.14587814,0.09567091,-0.14776
 907,-0.07934722,-0.10580923,0.15832579,0.07520971,-0.07960485,-0.10445
 223,-0.08047118,0.08820795,0.12002009,-0.04831252,0.01202562,-0.008548
 39,-0.00159534,0.01781899,-0.01045664,0.04692634,0.01070498,-0.2282611
 4,0.11256291,0.00100861,-0.01910665,0.01024190,-0.01326314,0.24753305,
 -0.00742303,0.11416045,-0.11319346,0.00027948,-0.01325282,0.00886421,0
 .01003783,-0.12400080,0.12970171,-0.26435831,-0.09575007,0.01249482,-0
 .01685858,-0.00783040,0.00113282,0.00276335,0.00097730,0.00052103,0.28
 738283,-0.09578480,-0.08858928,0.00542295,0.01921228,0.00922513,-0.000
 35959,-0.02542150,-0.01039890,0.00101680,0.10673505,0.09154297,0.01453
 355,0.00640680,-0.04851323,0.01373416,0.00766257,-0.00143360,0.0159572
 4,0.00532121,-0.00140029,-0.01285765,-0.00554000,0.05313811,-0.1019129
 7,-0.01849434,-0.04381785,0.01020177,0.00130198,0.01810390,0.00058273,
 -0.00024452,0.00032806,-0.01098998,-0.00498043,-0.02923061,0.58641423,
 -0.01851364,-0.07074374,-0.02233877,-0.00923923,-0.00044348,-0.0166559
 3,0.00956642,0.01011986,0.02350953,-0.00436602,-0.00336179,-0.01279881
 ,0.20076666,0.20815052,-0.04781077,-0.02417987,-0.19551288,-0.00625144
 ,-0.00346129,-0.02153461,-0.00675768,-0.00349933,-0.02252562,-0.000740
 24,-0.00025011,0.00177003,-0.12052283,-0.03818048,0.73810483,-0.007441
 17,-0.00388104,0.00090969,0.00030181,-0.00019752,-0.00054271,0.0001749
 2,0.00030693,-0.00005976,0.00062556,-0.00043093,-0.00178455,-0.2700889
 3,-0.10400855,-0.00967149,0.28929991,-0.00451561,-0.00051125,0.0003764
 8,0.00021266,0.00007777,0.00045826,-0.00007463,0.00018384,-0.00068276,
 -0.00045345,0.00131025,-0.00094956,-0.10416592,-0.07868433,-0.00473694
 ,0.11791313,0.07239178,-0.02613478,-0.01146528,0.00097308,0.00079137,-
 0.00026207,0.00086638,0.00032795,0.00079589,0.00085325,-0.00199446,-0.
 00102780,-0.00527094,-0.01297764,-0.00622030,-0.05646842,0.01254581,0.
 00630313,0.05733776,0.00866914,0.00540884,-0.00828449,0.00000072,-0.00
 088791,-0.00242794,-0.00091483,0.00003351,-0.00447906,0.00049547,0.000
 16795,-0.00174049,-0.22401884,-0.07209737,0.17715216,-0.01572515,-0.00
 916139,0.02578631,0.65522664,0.00580322,-0.00168747,-0.00423671,-0.000
 71003,-0.00032951,-0.00382434,0.00005126,0.00063652,0.00080250,0.00031
 335,0.00010005,-0.00072147,-0.07187473,-0.07937023,0.06936792,-0.00994
 678,0.00266922,0.01126369,0.22766859,0.22680475,0.00821735,0.00294064,
 -0.03091628,-0.00000783,0.00150257,0.00076515,0.00107775,-0.00100676,0
 .00075198,0.00263858,0.00121669,0.00165420,0.18566222,0.07313914,-0.39
 533911,-0.00552007,-0.00251163,0.00249742,-0.12039371,-0.03781140,0.76
 082157,-0.00024598,0.00219214,-0.00124047,0.00003035,-0.00000053,0.000
 39642,0.00028170,0.00013503,-0.00030435,0.00064464,0.00024007,0.000864
 84,-0.01029426,-0.00767223,-0.00200316,0.00115154,-0.00336879,0.002013
 66,-0.28457482,-0.10649151,0.00866878,0.30247379,0.00228231,-0.0043588
 3,-0.00038467,0.00037323,0.00013985,-0.00077754,-0.00024360,-0.0000758
 5,0.00082259,0.00013213,0.00033306,0.00037758,-0.00704760,0.00388181,-
 0.00094476,-0.00335791,0.00751686,0.00058049,-0.10638259,-0.08723708,0
 .00345730,0.12144868,0.07811014,0.00161412,0.00087219,0.00160314,-0.00
 012661,0.00000623,0.00003246,-0.00006427,-0.00009338,-0.00000845,-0.00
 077717,-0.00030416,-0.00012916,0.02243271,0.00972799,0.00367054,0.0026
 4306,0.00085786,-0.00381605,0.01351388,0.00556615,-0.05285843,-0.00041
 916,0.00078086,0.06508327,0.00210897,-0.00534931,0.00051188,-0.0005490
 6,-0.00025534,-0.00137659,-0.00000612,0.00038851,0.00087742,0.00032278
 ,0.00026635,0.00037596,0.01536158,0.00293877,0.01243736,0.00181062,0.0
 0378468,0.00080016,-0.11917042,-0.03615369,-0.07856651,-0.01142641,-0.
 00627604,-0.03581861,0.53718369,-0.00521122,0.01209473,-0.00010651,0.0
 0084520,-0.00010142,0.00241267,-0.00076372,-0.00075760,-0.00276885,0.0
 0024021,-0.00015531,0.00017083,0.00222131,0.01039215,0.00396210,0.0037
 6298,-0.00512754,0.00059305,-0.03507319,-0.05703612,-0.04007032,-0.005
 58580,-0.00180504,-0.01587723,0.22184227,0.12982082,0.00731664,0.00289
 502,0.00042444,-0.00126723,-0.00109521,-0.00326947,-0.00157989,-0.0002
 8418,-0.00317608,-0.00080475,-0.00035197,-0.00012434,-0.01841817,-0.00
 955858,-0.05405912,-0.00031481,0.00010453,0.00356193,-0.03322123,-0.02
 023132,-0.28384571,-0.00640554,-0.00300257,-0.00803906,0.05152262,0.03
 101077,0.39549818,-0.00086048,0.00004113,0.00055220,0.00023371,0.00018
 903,0.00043221,0.00009978,-0.00004722,0.00022240,-0.00002776,-0.000004
 04,0.00014755,0.00474466,0.00262517,0.00416809,-0.00010911,-0.00017068
 ,-0.00115838,-0.01998790,-0.00865968,-0.00177656,0.00195947,-0.0009286
 1,-0.00299796,-0.42563564,-0.18227804,0.00317238,0.43958326,0.00004032
 ,-0.00091190,0.00024671,-0.00017700,-0.00001841,-0.00009852,0.00030429
 ,0.00012686,0.00039336,0.00000190,-0.00000618,0.00007085,0.00251758,0.
 00005923,0.00192276,-0.00016031,0.00017339,-0.00056081,-0.00967644,-0.
 00455014,-0.00085623,-0.00089706,0.00349509,-0.00153651,-0.18118621,-0
 .08732466,0.00051352,0.18923294,0.08895673,0.00038822,0.00017007,-0.00
 076304,-0.00001433,0.00003930,0.00014162,0.00000610,-0.00003746,0.0001
 3274,0.00038703,0.00017719,0.00030921,-0.00155979,-0.00062379,0.001894
 37,0.00179484,0.00078061,-0.00053440,-0.04590542,-0.02017501,-0.003530
 78,-0.00157103,-0.00090928,-0.00553825,0.04923631,0.02067349,-0.046970
 77,-0.00276192,-0.00009513,0.05485929\\-0.00000536,-0.00000453,-0.0000
 1211,-0.00000251,0.00001309,0.00000634,-0.00001017,-0.00001353,0.00000
 749,0.00001463,-0.00000713,0.00000119,-0.00001572,-0.00000168,0.000036
 85,-0.00001517,0.00001017,-0.00000193,0.00002258,0.00000443,-0.0000314
 1,0.00001403,-0.00001058,0.00000134,0.00016022,0.00007000,-0.00000921,
 -0.00016252,-0.00006025,0.00000144\\\@


 Fatherhood is pretending the present you love most is soap-on-a-rope.
 -- Bill Cosby
 Job cpu time:  0 days  0 hours  7 minutes 31.3 seconds.
 File lengths (MBytes):  RWF=     22 Int=      0 D2E=      0 Chk=      6 Scr=      1
 Normal termination of Gaussian 03 at Tue Jul 29 04:05:44 2014.
