 Entering Gaussian System, Link 0=g03
 Input=TS10freq.gjf
 Output=TS10freq.log
 Initial command:
 /opt/g03/l1.exe /scratch/nyee/Gau-6014.inp -scrdir=/scratch/nyee/
 Entering Link 1 = /opt/g03/l1.exe PID=      6016.
  
 Copyright (c) 1988,1990,1992,1993,1995,1998,2003,2004, Gaussian, Inc.
                  All Rights Reserved.
  
 This is the Gaussian(R) 03 program.  It is based on the
 the Gaussian(R) 98 system (copyright 1998, Gaussian, Inc.),
 the Gaussian(R) 94 system (copyright 1995, Gaussian, Inc.),
 the Gaussian 92(TM) system (copyright 1992, Gaussian, Inc.),
 the Gaussian 90(TM) system (copyright 1990, Gaussian, Inc.),
 the Gaussian 88(TM) system (copyright 1988, Gaussian, Inc.),
 the Gaussian 86(TM) system (copyright 1986, Carnegie Mellon
 University), and the Gaussian 82(TM) system (copyright 1983,
 Carnegie Mellon University). Gaussian is a federally registered
 trademark of Gaussian, Inc.
  
 This software contains proprietary and confidential information,
 including trade secrets, belonging to Gaussian, Inc.
  
 This software is provided under written license and may be
 used, copied, transmitted, or stored only in accord with that
 written license.
  
 The following legend is applicable only to US Government
 contracts under FAR:
  
                    RESTRICTED RIGHTS LEGEND
  
 Use, reproduction and disclosure by the US Government is
 subject to restrictions as set forth in subparagraphs (a)
 and (c) of the Commercial Computer Software - Restricted
 Rights clause in FAR 52.227-19.
  
 Gaussian, Inc.
 340 Quinnipiac St., Bldg. 40, Wallingford CT 06492
  
  
 ---------------------------------------------------------------
 Warning -- This program may not be used in any manner that
 competes with the business of Gaussian, Inc. or will provide
 assistance to any competitor of Gaussian, Inc.  The licensee
 of this program is prohibited from giving any competitor of
 Gaussian, Inc. access to this program.  By using this program,
 the user acknowledges that Gaussian, Inc. is engaged in the
 business of creating and licensing software in the field of
 computational chemistry and represents and warrants to the
 licensee that it is not a competitor of Gaussian, Inc. and that
 it will not use this program in any manner prohibited above.
 ---------------------------------------------------------------
  

 Cite this work as:
 Gaussian 03, Revision D.01,
 M. J. Frisch, G. W. Trucks, H. B. Schlegel, G. E. Scuseria, 
 M. A. Robb, J. R. Cheeseman, J. A. Montgomery, Jr., T. Vreven, 
 K. N. Kudin, J. C. Burant, J. M. Millam, S. S. Iyengar, J. Tomasi, 
 V. Barone, B. Mennucci, M. Cossi, G. Scalmani, N. Rega, 
 G. A. Petersson, H. Nakatsuji, M. Hada, M. Ehara, K. Toyota, 
 R. Fukuda, J. Hasegawa, M. Ishida, T. Nakajima, Y. Honda, O. Kitao, 
 H. Nakai, M. Klene, X. Li, J. E. Knox, H. P. Hratchian, J. B. Cross, 
 V. Bakken, C. Adamo, J. Jaramillo, R. Gomperts, R. E. Stratmann, 
 O. Yazyev, A. J. Austin, R. Cammi, C. Pomelli, J. W. Ochterski, 
 P. Y. Ayala, K. Morokuma, G. A. Voth, P. Salvador, J. J. Dannenberg, 
 V. G. Zakrzewski, S. Dapprich, A. D. Daniels, M. C. Strain, 
 O. Farkas, D. K. Malick, A. D. Rabuck, K. Raghavachari, 
 J. B. Foresman, J. V. Ortiz, Q. Cui, A. G. Baboul, S. Clifford, 
 J. Cioslowski, B. B. Stefanov, G. Liu, A. Liashenko, P. Piskorz, 
 I. Komaromi, R. L. Martin, D. J. Fox, T. Keith, M. A. Al-Laham, 
 C. Y. Peng, A. Nanayakkara, M. Challacombe, P. M. W. Gill, 
 B. Johnson, W. Chen, M. W. Wong, C. Gonzalez, and J. A. Pople, 
 Gaussian, Inc., Wallingford CT, 2004.
 
 ******************************************
 Gaussian 03:  AM64L-G03RevD.01 13-Oct-2005
                15-Jul-2014 
 ******************************************
 %chk=TS10.chk
 %mem=1000mb
 %nproc=8
 Will use up to    8 processors via shared memory.
 -------------------------------------
 # freq nosymm b3lyp/cbsb7 iop(7/33=1)
 -------------------------------------
 1/10=4,30=1,38=1/1,3;
 2/15=1,17=6,18=5,40=1/2;
 3/5=4,6=6,7=700,11=2,16=1,25=1,30=1,74=-5/1,2,3;
 4//1;
 5/5=2,38=5/2;
 8/6=4,10=90,11=11/1;
 11/6=1,8=1,9=11,15=111,16=1,31=1/1,2,10;
 10/6=1,31=1/2;
 6/7=2,8=2,9=2,10=2,18=1,28=1/1;
 7/8=1,10=1,25=1,30=1,33=1/1,2,3,16;
 1/10=4,30=1/3;
 99//99;
 -------------------
 Title Card Required
 -------------------
 Symbolic Z-matrix:
 Charge =  0 Multiplicity = 2
 O                     1.18341  -1.6538    0.06856 
 O                     1.63991  -0.30786   0.07832 
 C                     0.59483   0.40742  -0.59808 
 H                     0.65836   0.24855  -1.67885 
 O                     0.78058   1.76096  -0.37735 
 H                     0.86586   1.89992   0.57431 
 C                    -0.7147   -0.20914  -0.03984 
 H                    -0.01248  -1.34334   0.10143 
 C                    -1.84582  -0.36218  -1.02159 
 H                    -2.66375  -0.95142  -0.59861 
 H                    -2.25936   0.62027  -1.28991 
 H                    -1.51514  -0.84186  -1.94656 
 C                    -1.09      0.25077   1.34949 
 H                    -1.86058  -0.39394   1.77857 
 H                    -0.2271    0.24016   2.02082 
 H                    -1.49779   1.27022   1.32708 
 

 GradGradGradGradGradGradGradGradGradGradGradGradGradGradGradGradGradGrad
 Berny optimization.
 Initialization pass.
 Trust Radius=3.00D-01 FncErr=1.00D-07 GrdErr=1.00D-07
 Number of steps in this run=   2 maximum allowed number of steps=   2.
 GradGradGradGradGradGradGradGradGradGradGradGradGradGradGradGradGradGrad

                          Input orientation:                          
 ---------------------------------------------------------------------
 Center     Atomic     Atomic              Coordinates (Angstroms)
 Number     Number      Type              X           Y           Z
 ---------------------------------------------------------------------
    1          8             0        1.183411   -1.653804    0.068556
    2          8             0        1.639910   -0.307860    0.078316
    3          6             0        0.594826    0.407417   -0.598082
    4          1             0        0.658363    0.248551   -1.678846
    5          8             0        0.780580    1.760963   -0.377347
    6          1             0        0.865859    1.899919    0.574314
    7          6             0       -0.714697   -0.209141   -0.039836
    8          1             0       -0.012483   -1.343337    0.101430
    9          6             0       -1.845824   -0.362183   -1.021590
   10          1             0       -2.663747   -0.951418   -0.598611
   11          1             0       -2.259356    0.620269   -1.289913
   12          1             0       -1.515143   -0.841863   -1.946559
   13          6             0       -1.089998    0.250767    1.349492
   14          1             0       -1.860581   -0.393940    1.778567
   15          1             0       -0.227104    0.240156    2.020821
   16          1             0       -1.497794    1.270216    1.327083
 ---------------------------------------------------------------------
                    Distance matrix (angstroms):
                    1          2          3          4          5
     1  O    0.000000
     2  O    1.421285   0.000000
     3  C    2.244877   1.435735   0.000000
     4  H    2.635914   2.088216   1.094224   0.000000
     5  O    3.467238   2.286068   1.383949   1.999056   0.000000
     6  H    3.603551   2.391539   1.917168   2.801214   0.965526
     7  C    2.387805   2.359635   1.551333   2.186579   2.496212
     8  H    1.235974   1.950167   1.980727   2.480630   3.239576
     9  C    3.468857   3.655555   2.593919   2.660063   3.438138
    10  H    3.967251   4.403846   3.530543   3.693677   4.389688
    11  H    4.343903   4.235298   2.944536   2.966905   3.372710
    12  H    3.464409   3.786771   2.798403   2.446385   3.808868
    13  C    3.230569   3.062736   2.579964   3.496799   2.960021
    14  H    3.711776   3.892519   3.509937   4.325688   4.033275
    15  H    3.063980   2.749434   2.749945   3.804163   3.013219
    16  H    4.162048   3.727590   2.971488   3.837763   2.887369
                    6          7          8          9         10
     6  H    0.000000
     7  C    2.706191   0.000000
     8  H    3.393201   1.341440   0.000000
     9  C    3.875208   1.505560   2.363255   0.000000
    10  H    4.686576   2.159167   2.769993   1.093210   0.000000
    11  H    3.857436   2.153273   3.292419   1.099190   1.763981
    12  H    4.420559   2.162555   2.589155   1.093165   1.774333
    13  C    2.673197   1.510827   2.293440   2.563008   2.777956
    14  H    3.761049   2.157265   2.670133   2.800376   2.570376
    15  H    2.458000   2.164699   2.497514   3.498476   3.770743
    16  H    2.559305   2.161066   3.246388   2.881339   3.162815
                   11         12         13         14         15
    11  H    0.000000
    12  H    1.767164   0.000000
    13  C    2.910393   3.498363   0.000000
    14  H    3.256257   3.767828   1.092497   0.000000
    15  H    3.903267   4.309282   1.093335   1.768901   0.000000
    16  H    2.801977   3.895884   1.098215   1.762063   1.776781
                   16
    16  H    0.000000
 Symmetry turned off by external request.
 Stoichiometry    C4H9O3(2)
 Framework group  C1[X(C4H9O3)]
 Deg. of freedom    42
 Full point group                 C1
 Rotational constants (GHZ):      3.0195364      2.2996471      1.8704952
 Standard basis: CBSB7 (5D, 7F)
 Integral buffers will be    131072 words long.
 Raffenetti 2 integral format.
 Two-electron integral symmetry is turned off.
   180 basis functions,   296 primitive gaussians,   187 cartesian basis functions
    29 alpha electrons       28 beta electrons
       nuclear repulsion energy       337.8143480886 Hartrees.
 NAtoms=   16 NActive=   16 NUniq=   16 SFac= 7.50D-01 NAtFMM=   80 NAOKFM=F Big=F
 One-electron integrals computed using PRISM.
 NBasis=   180 RedAO= T  NBF=   180
 NBsUse=   180 1.00D-06 NBFU=   180
 Harris functional with IExCor=  402 diagonalized for initial guess.
 ExpMin= 1.03D-01 ExpMax= 8.59D+03 ExpMxC= 1.30D+03 IAcc=1 IRadAn=         1 AccDes= 1.00D-06
 HarFok:  IExCor= 402 AccDes= 1.00D-06 IRadAn=         1 IDoV=1
 ScaDFX=  1.000000  1.000000  1.000000  1.000000
 <S**2> of initial guess= 0.7500
 Requested convergence on RMS density matrix=1.00D-08 within 128 cycles.
 Requested convergence on MAX density matrix=1.00D-06.
 Requested convergence on             energy=1.00D-06.
 No special actions if energy rises.
 Integral accuracy reduced to 1.0D-05 until final iterations.
 Initial convergence to 1.0D-05 achieved.  Increase integral accuracy.
 SCF Done:  E(UB+HF-LYP) =  -383.446108933     A.U. after   22 cycles
             Convg  =    0.6042D-08             -V/T =  2.0033
             S**2   =   0.7575
 Annihilation of the first spin contaminant:
 S**2 before annihilation     0.7575,   after     0.7500
 Range of M.O.s used for correlation:     1   180
 NBasis=   180 NAE=    29 NBE=    28 NFC=     0 NFV=     0
 NROrb=    180 NOA=    29 NOB=    28 NVA=   151 NVB=   152
 Symmetrizing basis deriv contribution to polar:
 IMax=3 JMax=2 DiffMx= 0.00D+00
 G2DrvN: will do   17 centers at a time, making    1 passes doing MaxLOS=2.
 FoFDir/FoFCou used for L=0 through L=2.
 DoAtom=TTTTTTTTTTTTTTTT
          Differentiating once with respect to electric field.
                with respect to dipole field.
          Differentiating once with respect to nuclear coordinates.
 Symmetry not used in FoFDir.
 MinBra= 0 MaxBra= 2 Meth= 1.
 IRaf=       0 NMat=  51 IRICut=      51 DoRegI=T DoRafI=T ISym2E= 0 JSym2E=0.
          There are  51 degrees of freedom in the 1st order CPHF.
    48 vectors were produced by pass  0.
 AX will form  48 AO Fock derivatives at one time.
    48 vectors were produced by pass  1.
    48 vectors were produced by pass  2.
    48 vectors were produced by pass  3.
    48 vectors were produced by pass  4.
    48 vectors were produced by pass  5.
    30 vectors were produced by pass  6.
     5 vectors were produced by pass  7.
     3 vectors were produced by pass  8.
 Inv2:  IOpt= 1 Iter= 1 AM= 2.54D-15 Conv= 1.00D-12.
 Inverted reduced A of dimension  326 with in-core refinement.
 Isotropic polarizability for W=    0.000000       63.47 Bohr**3.
 End of Minotr Frequency-dependent properties file   721 does not exist.

 **********************************************************************

            Population analysis using the SCF density.

 **********************************************************************

 Alpha  occ. eigenvalues --  -19.18378 -19.17481 -19.15079 -10.28900 -10.21554
 Alpha  occ. eigenvalues --  -10.18584 -10.18489  -1.14176  -1.06278  -0.87190
 Alpha  occ. eigenvalues --   -0.82953  -0.71962  -0.69310  -0.60721  -0.54682
 Alpha  occ. eigenvalues --   -0.51267  -0.50073  -0.47596  -0.44253  -0.42849
 Alpha  occ. eigenvalues --   -0.42100  -0.41130  -0.39616  -0.37745  -0.36983
 Alpha  occ. eigenvalues --   -0.35740  -0.31911  -0.26026  -0.24139
 Alpha virt. eigenvalues --    0.02041   0.03263   0.05400   0.07876   0.08180
 Alpha virt. eigenvalues --    0.09307   0.09725   0.12351   0.13444   0.14153
 Alpha virt. eigenvalues --    0.15089   0.17531   0.20926   0.23050   0.26289
 Alpha virt. eigenvalues --    0.27743   0.29324   0.31224   0.34814   0.37502
 Alpha virt. eigenvalues --    0.38994   0.41588   0.43724   0.45781   0.48356
 Alpha virt. eigenvalues --    0.50498   0.52193   0.53955   0.55497   0.56352
 Alpha virt. eigenvalues --    0.56648   0.57563   0.59077   0.61618   0.62675
 Alpha virt. eigenvalues --    0.63706   0.67610   0.72792   0.78010   0.80480
 Alpha virt. eigenvalues --    0.81102   0.83766   0.88208   0.92085   0.93650
 Alpha virt. eigenvalues --    0.95372   0.96416   0.99004   1.00410   1.07828
 Alpha virt. eigenvalues --    1.11445   1.16140   1.22682   1.26481   1.32999
 Alpha virt. eigenvalues --    1.34959   1.39270   1.40715   1.41744   1.42907
 Alpha virt. eigenvalues --    1.44810   1.46572   1.48741   1.49060   1.49854
 Alpha virt. eigenvalues --    1.52666   1.55307   1.58372   1.58755   1.60945
 Alpha virt. eigenvalues --    1.63100   1.66240   1.68202   1.69953   1.72540
 Alpha virt. eigenvalues --    1.75892   1.76494   1.78629   1.81912   1.90344
 Alpha virt. eigenvalues --    1.91942   1.94464   1.97356   2.00958   2.04764
 Alpha virt. eigenvalues --    2.05442   2.08497   2.10237   2.25170   2.27104
 Alpha virt. eigenvalues --    2.32317   2.34108   2.40151   2.41737   2.42212
 Alpha virt. eigenvalues --    2.46435   2.47435   2.48789   2.49745   2.51638
 Alpha virt. eigenvalues --    2.53467   2.56191   2.57897   2.60012   2.61089
 Alpha virt. eigenvalues --    2.63209   2.67707   2.73028   2.73772   2.81819
 Alpha virt. eigenvalues --    2.85349   2.86053   2.91802   2.96342   3.04765
 Alpha virt. eigenvalues --    3.06950   3.11662   3.13207   3.16831   3.18607
 Alpha virt. eigenvalues --    3.25070   3.38772   3.43542   3.51206   3.63538
 Alpha virt. eigenvalues --    3.70665   3.73249   3.77138   3.79562   3.80252
 Alpha virt. eigenvalues --    3.83739   3.89711   3.95168   4.25114   4.28531
 Alpha virt. eigenvalues --    4.71599   4.77036   4.87276   4.88496   5.01318
 Alpha virt. eigenvalues --    5.21026   5.32516   5.61625   5.71564  23.65412
 Alpha virt. eigenvalues --   23.72310  23.89041  23.92397  49.74860  49.83270
 Alpha virt. eigenvalues --   49.88910
  Beta  occ. eigenvalues --  -19.18236 -19.16211 -19.15007 -10.28905 -10.20713
  Beta  occ. eigenvalues --  -10.18610 -10.18518  -1.13136  -1.05850  -0.85223
  Beta  occ. eigenvalues --   -0.81727  -0.71790  -0.68907  -0.59807  -0.53415
  Beta  occ. eigenvalues --   -0.50915  -0.49121  -0.46258  -0.43743  -0.41743
  Beta  occ. eigenvalues --   -0.41382  -0.40751  -0.39026  -0.37437  -0.36305
  Beta  occ. eigenvalues --   -0.33934  -0.30911  -0.24477
  Beta virt. eigenvalues --   -0.12955   0.02217   0.03765   0.05748   0.07936
  Beta virt. eigenvalues --    0.08339   0.09501   0.09799   0.12511   0.13543
  Beta virt. eigenvalues --    0.15023   0.15755   0.18335   0.21333   0.23797
  Beta virt. eigenvalues --    0.26597   0.28021   0.29636   0.31590   0.34995
  Beta virt. eigenvalues --    0.37693   0.39189   0.41782   0.44089   0.46468
  Beta virt. eigenvalues --    0.48522   0.52284   0.52567   0.54474   0.55819
  Beta virt. eigenvalues --    0.56490   0.56785   0.57848   0.59280   0.61742
  Beta virt. eigenvalues --    0.62961   0.64046   0.67740   0.73753   0.78250
  Beta virt. eigenvalues --    0.81351   0.81801   0.84171   0.88642   0.92554
  Beta virt. eigenvalues --    0.94484   0.95635   0.96803   0.99484   1.01067
  Beta virt. eigenvalues --    1.08439   1.11759   1.16242   1.23053   1.26803
  Beta virt. eigenvalues --    1.33457   1.35157   1.39888   1.41133   1.42219
  Beta virt. eigenvalues --    1.43317   1.45149   1.47314   1.49054   1.49608
  Beta virt. eigenvalues --    1.50699   1.52998   1.55906   1.58686   1.58981
  Beta virt. eigenvalues --    1.61143   1.63587   1.66568   1.68422   1.70194
  Beta virt. eigenvalues --    1.72634   1.76130   1.76598   1.79332   1.82193
  Beta virt. eigenvalues --    1.90575   1.92509   1.95219   1.98064   2.01141
  Beta virt. eigenvalues --    2.05398   2.06344   2.08976   2.10837   2.25438
  Beta virt. eigenvalues --    2.27537   2.32547   2.34387   2.40806   2.42126
  Beta virt. eigenvalues --    2.42735   2.46785   2.47760   2.49024   2.50023
  Beta virt. eigenvalues --    2.52212   2.53933   2.56679   2.58221   2.60343
  Beta virt. eigenvalues --    2.61528   2.63602   2.67930   2.73440   2.74644
  Beta virt. eigenvalues --    2.81740   2.85617   2.86995   2.92334   2.99024
  Beta virt. eigenvalues --    3.05296   3.07473   3.11965   3.14121   3.17487
  Beta virt. eigenvalues --    3.19545   3.25713   3.39054   3.44455   3.53359
  Beta virt. eigenvalues --    3.64319   3.71475   3.73467   3.77265   3.79993
  Beta virt. eigenvalues --    3.80494   3.84806   3.89891   3.95500   4.25775
  Beta virt. eigenvalues --    4.29205   4.72092   4.78124   4.87656   4.89206
  Beta virt. eigenvalues --    5.05228   5.21558   5.32817   5.61968   5.71980
  Beta virt. eigenvalues --   23.65458  23.73207  23.89020  23.92371  49.75981
  Beta virt. eigenvalues --   49.83535  49.89001
          Condensed to atoms (all electrons):
              1          2          3          4          5          6
     1  O    8.132521   0.074607  -0.063080   0.014191   0.002316  -0.000320
     2  O    0.074607   8.096081   0.208706  -0.036087  -0.043397   0.006661
     3  C   -0.063080   0.208706   4.772479   0.399199   0.321485  -0.037605
     4  H    0.014191  -0.036087   0.399199   0.588751  -0.032298   0.010645
     5  O    0.002316  -0.043397   0.321485  -0.032298   7.824784   0.313466
     6  H   -0.000320   0.006661  -0.037605   0.010645   0.313466   0.469131
     7  C   -0.086886  -0.051994   0.260582  -0.080503  -0.051909  -0.016314
     8  H    0.142146  -0.046259  -0.039369  -0.003937   0.001496  -0.000363
     9  C   -0.000259   0.004464  -0.049006   0.001058  -0.000626   0.000138
    10  H    0.000064  -0.000286   0.006206  -0.000001  -0.000252   0.000060
    11  H   -0.000321  -0.000001  -0.005017  -0.001082   0.003121  -0.000325
    12  H    0.002567   0.000144  -0.005169   0.007318  -0.000117   0.000084
    13  C    0.002859  -0.000345  -0.044856   0.008807   0.006409   0.009710
    14  H    0.000282  -0.000367   0.006369  -0.000318   0.000391  -0.000149
    15  H    0.002132   0.011908  -0.002735   0.001047  -0.002195   0.003697
    16  H   -0.000254  -0.000316  -0.008091  -0.000703   0.007614  -0.001992
              7          8          9         10         11         12
     1  O   -0.086886   0.142146  -0.000259   0.000064  -0.000321   0.002567
     2  O   -0.051994  -0.046259   0.004464  -0.000286  -0.000001   0.000144
     3  C    0.260582  -0.039369  -0.049006   0.006206  -0.005017  -0.005169
     4  H   -0.080503  -0.003937   0.001058  -0.000001  -0.001082   0.007318
     5  O   -0.051909   0.001496  -0.000626  -0.000252   0.003121  -0.000117
     6  H   -0.016314  -0.000363   0.000138   0.000060  -0.000325   0.000084
     7  C    5.680442   0.248184   0.315681  -0.034561  -0.033881  -0.037834
     8  H    0.248184   0.523442  -0.021742  -0.002315   0.004337  -0.004961
     9  C    0.315681  -0.021742   4.863942   0.406174   0.388265   0.403769
    10  H   -0.034561  -0.002315   0.406174   0.561115  -0.029629  -0.024697
    11  H   -0.033881   0.004337   0.388265  -0.029629   0.579375  -0.029599
    12  H   -0.037834  -0.004961   0.403769  -0.024697  -0.029599   0.560307
    13  C    0.264828  -0.020757  -0.049699  -0.005084  -0.005967   0.008388
    14  H   -0.028697  -0.002508  -0.006385   0.003255  -0.000384  -0.000012
    15  H   -0.042040  -0.005731   0.008725   0.000125  -0.000523  -0.000311
    16  H   -0.037232   0.005062  -0.005042  -0.001151   0.005819  -0.000480
             13         14         15         16
     1  O    0.002859   0.000282   0.002132  -0.000254
     2  O   -0.000345  -0.000367   0.011908  -0.000316
     3  C   -0.044856   0.006369  -0.002735  -0.008091
     4  H    0.008807  -0.000318   0.001047  -0.000703
     5  O    0.006409   0.000391  -0.002195   0.007614
     6  H    0.009710  -0.000149   0.003697  -0.001992
     7  C    0.264828  -0.028697  -0.042040  -0.037232
     8  H   -0.020757  -0.002508  -0.005731   0.005062
     9  C   -0.049699  -0.006385   0.008725  -0.005042
    10  H   -0.005084   0.003255   0.000125  -0.001151
    11  H   -0.005967  -0.000384  -0.000523   0.005819
    12  H    0.008388  -0.000012  -0.000311  -0.000480
    13  C    4.922910   0.402321   0.401323   0.389176
    14  H    0.402321   0.547167  -0.022648  -0.025956
    15  H    0.401323  -0.022648   0.554065  -0.032360
    16  H    0.389176  -0.025956  -0.032360   0.583309
 Mulliken atomic charges:
              1
     1  O   -0.222566
     2  O   -0.223519
     3  C    0.279903
     4  H    0.123914
     5  O   -0.350289
     6  H    0.243476
     7  C   -0.267866
     8  H    0.223276
     9  C   -0.259455
    10  H    0.120977
    11  H    0.125812
    12  H    0.120603
    13  C   -0.290023
    14  H    0.127640
    15  H    0.125520
    16  H    0.122598
 Sum of Mulliken charges=   0.00000
 Atomic charges with hydrogens summed into heavy atoms:
              1
     1  O    0.000710
     2  O   -0.223519
     3  C    0.403818
     4  H    0.000000
     5  O   -0.106814
     6  H    0.000000
     7  C   -0.267866
     8  H    0.000000
     9  C    0.107936
    10  H    0.000000
    11  H    0.000000
    12  H    0.000000
    13  C    0.085735
    14  H    0.000000
    15  H    0.000000
    16  H    0.000000
 Sum of Mulliken charges=   0.00000
          Atomic-Atomic Spin Densities.
              1          2          3          4          5          6
     1  O    0.537030  -0.028185  -0.004830  -0.002530  -0.000214   0.000095
     2  O   -0.028185   0.063145  -0.000696  -0.002604   0.001509  -0.000362
     3  C   -0.004830  -0.000696  -0.022889   0.002043  -0.000351   0.000320
     4  H   -0.002530  -0.002604   0.002043   0.005978   0.001495  -0.000294
     5  O   -0.000214   0.001509  -0.000351   0.001495   0.031341   0.000336
     6  H    0.000095  -0.000362   0.000320  -0.000294   0.000336  -0.001449
     7  C   -0.064398   0.005323   0.009256  -0.002212  -0.014237   0.000523
     8  H   -0.031708   0.003659   0.014584   0.002387  -0.000263   0.000052
     9  C    0.002265  -0.000203   0.000888  -0.000557  -0.000095   0.000001
    10  H    0.000465  -0.000018  -0.000065  -0.000219  -0.000054   0.000009
    11  H   -0.000471   0.000029  -0.000509   0.001648   0.001022  -0.000061
    12  H    0.000414   0.000015   0.000250  -0.001189  -0.000096   0.000001
    13  C    0.003336  -0.000590  -0.001476  -0.000338   0.000648  -0.000080
    14  H    0.000718  -0.000140  -0.000240  -0.000062  -0.000095   0.000033
    15  H    0.000708  -0.001103  -0.000153  -0.000113  -0.000129  -0.000071
    16  H   -0.000790   0.000490   0.001336   0.000486   0.001674  -0.000167
              7          8          9         10         11         12
     1  O   -0.064398  -0.031708   0.002265   0.000465  -0.000471   0.000414
     2  O    0.005323   0.003659  -0.000203  -0.000018   0.000029   0.000015
     3  C    0.009256   0.014584   0.000888  -0.000065  -0.000509   0.000250
     4  H   -0.002212   0.002387  -0.000557  -0.000219   0.001648  -0.001189
     5  O   -0.014237  -0.000263  -0.000095  -0.000054   0.001022  -0.000096
     6  H    0.000523   0.000052   0.000001   0.000009  -0.000061   0.000001
     7  C    0.626943   0.051459  -0.023894  -0.006482  -0.017715  -0.003047
     8  H    0.051459  -0.061911  -0.003146  -0.000595   0.000515  -0.000286
     9  C   -0.023894  -0.003146  -0.024994   0.006809   0.003315   0.005159
    10  H   -0.006482  -0.000595   0.006809   0.012821  -0.007365   0.001815
    11  H   -0.017715   0.000515   0.003315  -0.007365   0.062853  -0.004897
    12  H   -0.003047  -0.000286   0.005159   0.001815  -0.004897   0.005854
    13  C   -0.023002  -0.000980   0.002136   0.001202  -0.000176   0.000031
    14  H   -0.004682  -0.000602   0.001072   0.000909  -0.000902   0.000111
    15  H   -0.000967  -0.000128  -0.000029   0.000090  -0.000149   0.000015
    16  H   -0.019658   0.000357  -0.000847  -0.001192   0.004653  -0.000227
             13         14         15         16
     1  O    0.003336   0.000718   0.000708  -0.000790
     2  O   -0.000590  -0.000140  -0.001103   0.000490
     3  C   -0.001476  -0.000240  -0.000153   0.001336
     4  H   -0.000338  -0.000062  -0.000113   0.000486
     5  O    0.000648  -0.000095  -0.000129   0.001674
     6  H   -0.000080   0.000033  -0.000071  -0.000167
     7  C   -0.023002  -0.004682  -0.000967  -0.019658
     8  H   -0.000980  -0.000602  -0.000128   0.000357
     9  C    0.002136   0.001072  -0.000029  -0.000847
    10  H    0.001202   0.000909   0.000090  -0.001192
    11  H   -0.000176  -0.000902  -0.000149   0.004653
    12  H    0.000031   0.000111   0.000015  -0.000227
    13  C   -0.023739   0.006028   0.003637   0.005220
    14  H    0.006028   0.009007   0.001084  -0.005888
    15  H    0.003637   0.001084   0.003193  -0.003493
    16  H    0.005220  -0.005888  -0.003493   0.054181
 Mulliken atomic spin densities:
              1
     1  O    0.411904
     2  O    0.040271
     3  C   -0.002532
     4  H    0.003919
     5  O    0.022492
     6  H   -0.001114
     7  C    0.513209
     8  H   -0.026605
     9  C   -0.032122
    10  H    0.008130
    11  H    0.041789
    12  H    0.003923
    13  C   -0.028144
    14  H    0.006353
    15  H    0.002390
    16  H    0.036137
 Sum of Mulliken spin densities=   1.00000
 APT atomic charges:
              1
     1  O   -0.017117
     2  O   -0.342734
     3  C    0.641452
     4  H   -0.042410
     5  O   -0.576133
     6  H    0.262808
     7  C    0.254208
     8  H   -0.144250
     9  C    0.001567
    10  H    0.004060
    11  H   -0.015675
    12  H   -0.001881
    13  C   -0.030871
    14  H    0.012292
    15  H    0.009140
    16  H   -0.014456
 Sum of APT charges=   0.00000
 APT Atomic charges with hydrogens summed into heavy atoms:
              1
     1  O   -0.161367
     2  O   -0.342734
     3  C    0.599043
     4  H    0.000000
     5  O   -0.313325
     6  H    0.000000
     7  C    0.254208
     8  H    0.000000
     9  C   -0.011930
    10  H    0.000000
    11  H    0.000000
    12  H    0.000000
    13  C   -0.023895
    14  H    0.000000
    15  H    0.000000
    16  H    0.000000
 Sum of APT charges=   0.00000
 Electronic spatial extent (au):  <R**2>=   775.7287
 Charge=     0.0000 electrons
 Dipole moment (field-independent basis, Debye):
    X=    -3.1571    Y=     1.0719    Z=     0.5162  Tot=     3.3738
 Quadrupole moment (field-independent basis, Debye-Ang):
   XX=   -45.8535   YY=   -46.5300   ZZ=   -40.7628
   XY=     3.0106   XZ=     0.3620   YZ=     3.3319
 Traceless Quadrupole moment (field-independent basis, Debye-Ang):
   XX=    -1.4714   YY=    -2.1479   ZZ=     3.6193
   XY=     3.0106   XZ=     0.3620   YZ=     3.3319
 Octapole moment (field-independent basis, Debye-Ang**2):
  XXX=    -1.1961  YYY=     3.7324  ZZZ=     5.6533  XYY=    -2.6965
  XXY=     2.8774  XXZ=     3.0902  XZZ=     3.3122  YZZ=     1.4855
  YYZ=     9.4783  XYZ=     3.6181
 Hexadecapole moment (field-independent basis, Debye-Ang**3):
 XXXX=  -465.1666 YYYY=  -292.9524 ZZZZ=  -221.2223 XXXY=     5.8344
 XXXZ=    -3.9410 YYYX=     6.5694 YYYZ=    13.6133 ZZZX=    -3.0864
 ZZZY=    -0.6690 XXYY=  -125.8188 XXZZ=  -112.7974 YYZZ=   -84.7253
 XXYZ=     0.6252 YYXZ=     4.8589 ZZXY=     2.6802
 N-N= 3.378143480886D+02 E-N=-1.574884369830D+03  KE= 3.822009059432D+02
  Exact polarizability:  72.592  -4.698  61.530  -0.063   1.437  56.297
 Approx polarizability: 102.889 -10.327 100.837   1.902  -0.876  75.651
                          Isotropic Fermi Contact Couplings
        Atom                 a.u.       MegaHertz       Gauss      10(-4) cm-1
     1  O(17)              0.03062     -18.56469      -6.62434      -6.19251
     2  O(17)              0.02949     -17.87462      -6.37811      -5.96233
     3  C(13)             -0.01848     -20.77770      -7.41400      -6.93069
     4  H(1)               0.00159       7.12044       2.54075       2.37512
     5  O(17)              0.00298      -1.80660      -0.64464      -0.60262
     6  H(1)              -0.00050      -2.24750      -0.80196      -0.74969
     7  C(13)              0.06027      67.75273      24.17586      22.59988
     8  H(1)              -0.01918     -85.74482     -30.59588     -28.60139
     9  C(13)             -0.01147     -12.89089      -4.59979      -4.29994
    10  H(1)               0.00462      20.63271       7.36226       6.88233
    11  H(1)               0.01864      83.31954      29.73048      27.79241
    12  H(1)               0.00268      11.99182       4.27898       4.00004
    13  C(13)             -0.00882      -9.91232      -3.53696      -3.30639
    14  H(1)               0.00414      18.51557       6.60682       6.17613
    15  H(1)               0.00184       8.24552       2.94221       2.75041
    16  H(1)               0.01559      69.67995      24.86354      23.24273
 --------------------------------------------------------
       Center         ----  Spin Dipole Couplings  ----
                      3XX-RR        3YY-RR        3ZZ-RR
 --------------------------------------------------------
     1   Atom        1.516131     -0.718568     -0.797563
     2   Atom        0.009723     -0.182258      0.172535
     3   Atom        0.042912     -0.011746     -0.031166
     4   Atom       -0.002289     -0.003413      0.005702
     5   Atom        0.108432     -0.043525     -0.064907
     6   Atom       -0.002084      0.001721      0.000363
     7   Atom       -0.297347      0.607379     -0.310032
     8   Atom        0.101805     -0.001252     -0.100553
     9   Atom        0.004578     -0.000204     -0.004374
    10   Atom        0.010285     -0.005012     -0.005273
    11   Atom        0.002153     -0.000689     -0.001464
    12   Atom       -0.002359     -0.005418      0.007777
    13   Atom       -0.008111      0.004604      0.003508
    14   Atom        0.001143     -0.006161      0.005018
    15   Atom       -0.005167     -0.003698      0.008866
    16   Atom       -0.003052      0.001714      0.001338
 --------------------------------------------------------
                        XY            XZ            YZ
 --------------------------------------------------------
     1   Atom       -0.769407     -0.698646      0.221843
     2   Atom       -0.025593     -0.215250      0.005455
     3   Atom       -0.013622     -0.003695     -0.001595
     4   Atom        0.000314     -0.005357     -0.006656
     5   Atom        0.064392     -0.002289     -0.000251
     6   Atom        0.004500      0.001424      0.003354
     7   Atom       -0.199010      0.037239     -0.181570
     8   Atom       -0.114177      0.012688     -0.010917
     9   Atom       -0.009080      0.014575     -0.006539
    10   Atom        0.003445      0.003755      0.000985
    11   Atom       -0.004038      0.006417     -0.002435
    12   Atom        0.000725      0.006886      0.002671
    13   Atom       -0.009245     -0.008495      0.011772
    14   Atom       -0.000790     -0.008791      0.000234
    15   Atom       -0.000587      0.001474      0.006010
    16   Atom       -0.004717     -0.003225      0.004954
 --------------------------------------------------------


 ---------------------------------------------------------------------------------
              Anisotropic Spin Dipole Couplings in Principal Axis System
 ---------------------------------------------------------------------------------

       Atom             a.u.   MegaHertz   Gauss  10(-4) cm-1        Axes

              Baa    -0.9936    71.893    25.653    23.981  0.2095 -0.1879  0.9596
     1 O(17)  Bbb    -0.9574    69.274    24.719    23.107  0.3241  0.9392  0.1131
              Bcc     1.9509  -141.166   -50.372   -47.088  0.9225 -0.2873 -0.2577
 
              Baa    -0.1894    13.703     4.889     4.571  0.2960  0.9414  0.1619
     2 O(17)  Bbb    -0.1326     9.596     3.424     3.201  0.7670 -0.3353  0.5471
              Bcc     0.3220   -23.298    -8.313    -7.771 -0.5692  0.0378  0.8213
 
              Baa    -0.0316    -4.246    -1.515    -1.416  0.0726  0.1290  0.9890
     3 C(13)  Bbb    -0.0146    -1.960    -0.699    -0.654  0.2195  0.9652 -0.1420
              Bcc     0.0463     6.207     2.215     2.070  0.9729 -0.2273 -0.0417
 
              Baa    -0.0080    -4.294    -1.532    -1.432  0.4487  0.7233  0.5249
     4 H(1)   Bbb    -0.0030    -1.596    -0.569    -0.532  0.8222 -0.5643  0.0747
              Bcc     0.0110     5.890     2.102     1.965 -0.3502 -0.3981  0.8479
 
              Baa    -0.0673     4.868     1.737     1.624 -0.3375  0.9128 -0.2299
     5 O(17)  Bbb    -0.0648     4.689     1.673     1.564 -0.0688  0.2196  0.9732
              Bcc     0.1321    -9.557    -3.410    -3.188  0.9388  0.3443 -0.0114
 
              Baa    -0.0052    -2.759    -0.985    -0.920  0.7909 -0.5919  0.1553
     6 H(1)   Bbb    -0.0016    -0.832    -0.297    -0.278 -0.4064 -0.3183  0.8565
              Bcc     0.0067     3.592     1.282     1.198  0.4575  0.7405  0.4923
 
              Baa    -0.3447   -46.262   -16.507   -15.431  0.1192  0.2100  0.9704
     7 C(13)  Bbb    -0.3390   -45.496   -16.234   -15.176  0.9721  0.1743 -0.1571
              Bcc     0.6838    91.758    32.741    30.607 -0.2021  0.9621 -0.1833
 
              Baa    -0.1017   -54.284   -19.370   -18.107 -0.0038  0.1037  0.9946
     8 H(1)   Bbb    -0.0748   -39.907   -14.240   -13.312  0.5453  0.8339 -0.0849
              Bcc     0.1765    94.191    33.610    31.419  0.8382 -0.5420  0.0597
 
              Baa    -0.0151    -2.032    -0.725    -0.678 -0.5980 -0.0127  0.8014
     9 C(13)  Bbb    -0.0061    -0.812    -0.290    -0.271  0.3646  0.8861  0.2861
              Bcc     0.0212     2.845     1.015     0.949  0.7138 -0.4633  0.5253
 
              Baa    -0.0062    -3.314    -1.183    -1.106 -0.1283 -0.3827  0.9149
    10 H(1)   Bbb    -0.0057    -3.035    -1.083    -1.012 -0.2737  0.9004  0.3383
              Bcc     0.0119     6.350     2.266     2.118  0.9532  0.2070  0.2203
 
              Baa    -0.0064    -3.406    -1.215    -1.136 -0.6325 -0.1213  0.7650
    11 H(1)   Bbb    -0.0028    -1.520    -0.542    -0.507  0.2625  0.8957  0.3590
              Bcc     0.0092     4.926     1.758     1.643  0.7288 -0.4278  0.5347
 
              Baa    -0.0064    -3.413    -1.218    -1.138  0.5807  0.7009 -0.4142
    12 H(1)   Bbb    -0.0053    -2.824    -1.008    -0.942 -0.6842  0.6958  0.2183
              Bcc     0.0117     6.237     2.225     2.080  0.4412  0.1567  0.8836
 
              Baa    -0.0135    -1.811    -0.646    -0.604  0.9187  0.3107  0.2439
    13 C(13)  Bbb    -0.0077    -1.036    -0.370    -0.346  0.0337 -0.6770  0.7352
              Bcc     0.0212     2.847     1.016     0.950 -0.3935  0.6672  0.6324
 
              Baa    -0.0065    -3.490    -1.245    -1.164  0.4886  0.7968  0.3555
    14 H(1)   Bbb    -0.0056    -2.970    -1.060    -0.991  0.6070 -0.6031  0.5175
              Bcc     0.0121     6.460     2.305     2.155 -0.6267  0.0371  0.7783
 
              Baa    -0.0069    -3.656    -1.304    -1.219  0.5611  0.7542 -0.3410
    15 H(1)   Bbb    -0.0045    -2.404    -0.858    -0.802  0.8248 -0.5442  0.1537
              Bcc     0.0114     6.060     2.162     2.021  0.0697  0.3675  0.9274
 
              Baa    -0.0060    -3.180    -1.135    -1.061  0.8620  0.5055  0.0378
    16 H(1)   Bbb    -0.0032    -1.681    -0.600    -0.561  0.2805 -0.5377  0.7951
              Bcc     0.0091     4.861     1.734     1.621 -0.4222  0.6747  0.6053
 

 ---------------------------------------------------------------------------------

 Use density number 0.
 Entering OneElI...
 Calculate overlap and kinetic energy integrals
    NBasis = 187  MinDer = 2  MaxDer = 2
 Requested accuracy = 0.1000D-12
 PrsmSu:  NPrtUS=   1 ThrOK=F
 PRISM was handed   130758159 working-precision words and  2555 shell-pairs
 Entering OneElI...
 Calculate potential energy integrals
    NBasis = 187  MinDer = 2  MaxDer = 2
 Requested accuracy = 0.1000D-12
 PrsmSu:  NPrtUS=   8 ThrOK=T
 PRISM was handed    16300481 working-precision words and  2420 shell-pairs
 PRISM was handed    16300481 working-precision words and  2420 shell-pairs
 PRISM was handed    16300481 working-precision words and  2420 shell-pairs
 PRISM was handed    16300481 working-precision words and  2420 shell-pairs
 PRISM was handed    16300481 working-precision words and  2420 shell-pairs
 PRISM was handed    16300481 working-precision words and  2420 shell-pairs
 PRISM was handed    16300481 working-precision words and  2420 shell-pairs
 PRISM was handed    16300481 working-precision words and  2420 shell-pairs
 Polarizability after L701:
                1             2             3
      1  0.725923D+02
      2 -0.469834D+01  0.615296D+02
      3 -0.634900D-01  0.143690D+01  0.562968D+02
 Dipole Derivatives after L701:
               1            2            3            4            5
      1 0.535362D+00 0.559883D+00-0.315425D-01-0.490922D+00-0.653636D+00
      2-0.673590D-01-0.369130D+00-0.189792D-01 0.140354D+00-0.246954D+00
      3-0.109364D+00-0.856965D-02-0.217583D+00-0.915437D-01 0.105495D+00
               6            7            8            9           10
      1 0.526007D-01 0.329183D+00 0.282932D+00-0.143904D+00 0.376300D-01
      2 0.971863D-01 0.148735D+00 0.105326D+01-0.638428D-01-0.519981D-02
      3-0.290326D+00 0.463343D-01-0.594750D-01 0.541913D+00 0.956365D-02
              11           12           13           14           15
      1-0.870725D-02 0.143314D-01-0.428259D+00-0.210874D+00 0.581048D-02
      2-0.853507D-02-0.564693D-02-0.184324D+00-0.103091D+01-0.124431D+00
      3-0.280871D-01-0.156324D+00 0.209595D-01-0.305634D-01-0.269229D+00
              16           17           18           19           20
      1 0.317189D+00 0.739515D-01-0.277922D-02 0.473036D+00-0.763195D+00
      2 0.328100D-01 0.329393D+00 0.286688D-01-0.224959D+00 0.123263D+00
      3-0.261863D-02 0.603064D-01 0.141842D+00 0.622463D-01 0.134172D+00
              21           22           23           24           25
      1 0.271864D+00-0.614455D+00 0.396688D+00-0.814449D-01-0.662205D-01
      2 0.104622D+00 0.201045D+00 0.630840D-01 0.835263D-02-0.452210D-02
      3 0.166325D+00 0.697119D-01-0.747087D-01 0.118621D+00-0.793050D-01
              26           27           28           29           30
      1 0.222109D+00-0.908312D-01-0.368849D-01-0.108474D+00 0.709919D-01
      2 0.934674D-01-0.192413D-01-0.732318D-01 0.260184D-01 0.632094D-01
      3 0.137862D-01-0.225472D-01 0.326654D-01 0.268068D-01 0.230465D-01
              31           32           33           34           35
      1-0.132009D-01 0.524729D-01-0.693674D-01 0.337135D-01-0.517675D-02
      2 0.367985D-01-0.866814D-01 0.121992D-01 0.425774D-01 0.427442D-01
      3-0.305236D-01 0.366457D-01 0.528561D-01 0.607279D-01-0.795281D-01
              36           37           38           39           40
      1 0.172850D-01-0.721770D-01 0.171404D+00-0.608574D-01-0.143792D-01
      2-0.649605D-01-0.886635D-02 0.417482D-01-0.244086D-01-0.795013D-01
      3-0.821006D-01 0.573974D-01-0.118069D+00-0.621853D-01 0.654791D-01
              41           42           43           44           45
      1-0.101561D+00 0.428429D-01-0.331396D-01-0.524632D-02-0.529524D-01
      2 0.104053D-01 0.127538D-01-0.700206D-02 0.636310D-01-0.258646D-01
      3 0.538008D-01 0.408499D-01-0.113399D+00-0.104066D-01-0.307098D-02
              46           47           48
      1 0.435240D-01 0.974295D-01 0.579530D-01
      2 0.526461D-01-0.104803D+00 0.203831D-01
      3 0.166852D-02-0.216049D-01 0.179110D-01
 Hessian after L701:
                1             2             3             4             5
      1  0.466186D+01
      2 -0.120694D+01 -0.651112D+00
      3 -0.396340D+00  0.242659D+00  0.831727D+01
      4 -0.553712D+01  0.297169D+01  0.341438D-01  0.744304D+01
      5  0.303829D+01  0.287955D+01 -0.173120D-01  0.214681D+01  0.203413D+01
      6  0.785924D-01 -0.334025D-01 -0.496794D+01 -0.257019D+01  0.249478D+01
      7  0.184659D+00 -0.345258D+00 -0.677638D-01 -0.296269D+01 -0.381774D+01
      8 -0.297844D+00 -0.111195D+00  0.171878D+00 -0.386556D+01 -0.490257D+01
      9 -0.997325D-01  0.322999D+00  0.277290D-01  0.320047D+01 -0.250727D+01
     10 -0.106870D+00 -0.523863D-01  0.237897D-01 -0.134468D+00  0.137143D+00
     11 -0.598001D-01  0.115334D+00 -0.143399D+00  0.168308D+00  0.389687D-01
     12  0.610178D-01 -0.237723D+00  0.225132D-01 -0.187970D+00  0.765585D-01
     13 -0.245945D+00 -0.746834D-01  0.875790D-02  0.212044D-01 -0.663439D+00
     14 -0.939774D-01  0.554826D+00 -0.106040D+00 -0.632695D+00  0.476613D+00
     15  0.175053D-01 -0.134035D+00 -0.245098D+00  0.925050D-01 -0.237517D+00
     16 -0.184175D-01  0.233404D-02 -0.176501D-02 -0.507272D-01 -0.790486D-01
     17 -0.321893D-02  0.439004D-01  0.185080D-01 -0.995546D-01  0.117582D+00
     18 -0.835905D-02  0.567644D-01 -0.102674D-01 -0.296300D-01  0.763249D-01
     19  0.103901D+00  0.280893D+00  0.361811D+00  0.304216D+00 -0.240663D+00
     20  0.861650D-01 -0.116258D+00 -0.328884D+00 -0.271379D+00 -0.146679D+00
     21  0.348847D+00 -0.368956D+00 -0.357296D-01 -0.250157D+00  0.585025D-01
     22  0.528125D+00 -0.103634D+01  0.120831D+00  0.404352D-01 -0.301941D+00
     23 -0.843962D+00 -0.254559D+01 -0.176283D-01 -0.279301D+00  0.445128D-01
     24  0.677574D-01 -0.251918D-01 -0.289249D+01 -0.124912D+00 -0.636196D-01
     25  0.181953D+00 -0.135485D+00  0.159616D+00  0.340724D+00  0.694032D-02
     26 -0.196455D+00 -0.119929D+00 -0.796391D-01  0.284154D-01 -0.171153D+00
     27  0.136589D+00 -0.530836D-01 -0.127602D+00  0.182974D+00  0.543174D-03
     28  0.609689D-01 -0.101313D-01  0.140610D-01  0.303595D-01  0.306831D-02
     29  0.897799D-02 -0.166480D-01  0.687261D-03  0.170578D-01 -0.104885D-01
     30 -0.601214D-02 -0.137156D-02 -0.177498D-01 -0.709431D-02  0.607100D-03
     31  0.163722D-01 -0.107135D-01  0.960420D-02  0.301508D-01 -0.166665D-01
     32 -0.304630D-01  0.562630D-02 -0.114666D-01 -0.314627D-01 -0.332588D-02
     33  0.136903D-01 -0.436285D-02 -0.722415D-02  0.170816D-01 -0.746692D-02
     34  0.386592D-01 -0.256326D-01  0.496053D-01  0.122624D-01  0.628635D-02
     35 -0.778643D-02 -0.319934D-01 -0.427997D-02  0.221718D-01 -0.196501D-01
     36  0.938232D-01 -0.234161D-01  0.256039D-01  0.569096D-01  0.628321D-02
     37  0.112878D+00 -0.291143D+00 -0.258387D+00  0.363021D+00 -0.156167D+00
     38 -0.316227D+00 -0.173874D-01  0.206422D+00 -0.100712D+00 -0.232603D+00
     39 -0.201728D+00  0.167224D+00 -0.110296D+00 -0.166916D+00  0.447614D-01
     40  0.520157D-01 -0.256083D-01 -0.396100D-01  0.408642D-01 -0.123581D-02
     41  0.141305D-02 -0.188040D-01  0.577422D-03  0.185596D-01 -0.171721D-01
     42 -0.396187D-01  0.141577D-01 -0.446767D-03 -0.304775D-01  0.698939D-03
     43 -0.426789D-01 -0.207497D-01 -0.121169D-01  0.319334D-01 -0.332231D-01
     44 -0.419007D-01  0.136804D-01  0.567678D-01 -0.474843D-01 -0.984160D-01
     45 -0.576184D-01  0.771740D-01  0.339570D-01 -0.200636D+00  0.607412D-01
     46  0.963961D-02 -0.198432D-01 -0.623758D-02  0.267976D-01 -0.284173D-01
     47 -0.362714D-01  0.160029D-01  0.111493D-01 -0.448630D-01  0.107018D-01
     48 -0.841394D-02  0.564067D-03 -0.122363D-01 -0.161003D-01  0.133805D-01
                6             7             8             9            10
      6  0.116472D+02
      7  0.321327D+01  0.183181D+02
      8 -0.244472D+01  0.295946D+00  0.143404D+02
      9 -0.654538D+01 -0.102260D+01  0.510449D+00  0.224624D+02
     10 -0.187011D+00 -0.517062D+01 -0.458426D-01 -0.190585D+00  0.521638D+01
     11  0.115483D+00 -0.322631D-01 -0.508795D+01  0.533335D+00  0.162594D-01
     12  0.400989D+00 -0.155385D+00  0.605285D+00 -0.138783D+01  0.827179D-01
     13  0.694557D-01 -0.992708D+01  0.133609D+01  0.359333D-01  0.805065D-01
     14 -0.150622D+00  0.131406D+01  0.987278D+00  0.203478D+01 -0.375191D-01
     15 -0.325238D+00  0.430006D-01  0.184470D+01 -0.924382D+01 -0.272534D-01
     16  0.172016D-01  0.107982D+00  0.217576D-01 -0.241754D-01 -0.461169D-01
     17 -0.548603D-01  0.207699D-01  0.224758D+00 -0.110850D+00  0.805839D-02
     18 -0.101733D+00  0.190598D-01  0.890582D-01  0.497660D-01  0.106070D-01
     19 -0.315609D+00 -0.107496D+01  0.240109D+01 -0.168813D+01  0.356160D-01
     20  0.487516D-01  0.225363D+01 -0.522623D+01 -0.688548D+00 -0.730294D-01
     21 -0.118653D+00 -0.164461D+01 -0.697935D+00 -0.555916D+01  0.414665D+00
     22 -0.146003D+00  0.124554D+00 -0.550011D-01 -0.535040D-02  0.958839D-02
     23 -0.924334D-01  0.966237D-02 -0.149722D+00  0.462784D-01 -0.104193D-01
     24  0.264382D+00 -0.240849D-01  0.329293D-01  0.161058D+00  0.114436D-01
     25  0.206498D+00  0.142814D+00  0.843704D-01 -0.151038D-01  0.667380D-01
     26  0.422603D-02  0.116692D+00  0.301641D-02  0.209604D-02  0.166359D-01
     27 -0.120209D+00 -0.116721D+00 -0.361279D-01 -0.689056D-01 -0.361401D-01
     28  0.686557D-02  0.156786D+00  0.827876D-01  0.430020D-02  0.794568D-02
     29  0.242260D-02  0.908353D-01 -0.506006D-02  0.310928D-02  0.460259D-02
     30 -0.112248D-01 -0.568191D-02 -0.103059D-02 -0.496453D-01 -0.400055D-02
     31  0.154222D-01 -0.176794D-02 -0.352657D-02 -0.126330D-02 -0.331510D-02
     32 -0.105731D-01 -0.286103D-01 -0.675008D-03 -0.160859D-01 -0.506661D-02
     33 -0.791488D-02 -0.861732D-02 -0.998660D-03 -0.111079D-01  0.108446D-02
     34  0.283616D-01 -0.340964D-01 -0.142037D-01 -0.669704D-02  0.401183D-01
     35  0.165124D-01  0.830424D-02 -0.853893D-02  0.175107D-01  0.421709D-01
     36  0.219877D-01  0.143339D-01  0.476929D-02  0.161595D-01  0.224340D-01
     37 -0.258810D+00  0.100241D+00  0.129447D-01 -0.115266D+00  0.120574D-01
     38  0.539630D-01  0.642900D-01 -0.215211D-01 -0.776405D-01 -0.149589D-02
     39 -0.182632D+00 -0.137032D+00 -0.155567D-01  0.778302D-01 -0.119043D+00
     40 -0.295263D-01  0.726038D-01  0.359317D-01 -0.106164D+00 -0.573034D-03
     41 -0.854379D-02  0.456397D-01 -0.327454D-01 -0.430102D-01  0.170758D-02
     42 -0.552491D-03 -0.112771D+00 -0.378045D-01  0.549367D-01  0.235386D-02
     43 -0.106506D+00 -0.285912D-01  0.490788D-02  0.145436D-01 -0.519096D-02
     44  0.401491D-01  0.609146D-02 -0.184344D-01 -0.191002D-01 -0.458423D-04
     45  0.569498D-01 -0.184090D-01 -0.111207D-01  0.359995D-01 -0.871288D-02
     46 -0.220122D-01 -0.791906D-02  0.615310D-02  0.198211D-01 -0.178917D-02
     47  0.188649D-01 -0.204849D-02  0.918016D-02 -0.805808D-02 -0.772467D-03
     48 -0.100688D-01  0.240098D-01 -0.137710D-01 -0.199979D-01  0.364955D-02
               11            12            13            14            15
     11  0.502360D+01
     12 -0.617582D+00  0.711591D+00
     13 -0.414964D-01 -0.218819D-01  0.164008D+02
     14 -0.308389D+00 -0.836997D-01 -0.191791D+01  0.482971D+01
     15 -0.165628D+00  0.175505D+00 -0.137734D+00 -0.219893D+01  0.113967D+02
     16  0.126761D-01  0.216991D-01 -0.700598D+01  0.125897D+00  0.634147D+00
     17  0.335888D-01  0.141818D+00  0.139360D+00 -0.665633D+01  0.151920D+01
     18  0.118283D+00  0.149770D+00  0.513703D+00  0.104260D+01 -0.154747D+01
     19 -0.890078D-01  0.445881D+00  0.603388D+00  0.610432D+00 -0.262792D+00
     20  0.329509D+00  0.119689D+00  0.594865D+00  0.135081D+00 -0.303230D+00
     21  0.124628D+00 -0.205302D+00 -0.217824D+00 -0.285550D+00  0.360998D-01
     22 -0.121177D-01  0.166018D-01 -0.393895D-01  0.845439D-02  0.617055D-03
     23 -0.144567D-01  0.266744D-01  0.143611D-01  0.123494D+00 -0.254235D-01
     24  0.281341D-01 -0.166909D-01  0.137944D-04 -0.246677D-01 -0.351786D-01
     25  0.694577D-02 -0.807039D-01  0.826367D-01  0.237400D+00  0.640374D-01
     26 -0.529114D-01 -0.198614D-01  0.268600D+00  0.444171D-01  0.533125D-01
     27 -0.407025D-02 -0.180663D-01  0.570100D-01  0.451461D-01 -0.181295D+00
     28  0.233775D-02 -0.142006D-01  0.214758D-01  0.282941D-01 -0.621606D-02
     29 -0.169402D-02 -0.742239D-02  0.253614D-01  0.974225D-02 -0.487271D-02
     30 -0.866125D-03  0.346498D-02 -0.672023D-02 -0.716218D-02 -0.932456D-02
     31 -0.154859D-02 -0.807407D-02  0.918254D-01  0.632616D-01  0.350330D-01
     32  0.140105D-02  0.102195D-01  0.103927D-01 -0.355529D-01  0.892522D-02
     33 -0.703369D-03 -0.276354D-02  0.474534D-01  0.213205D-01 -0.315582D-01
     34  0.338011D-01 -0.419836D-02 -0.456828D-02  0.161731D-01  0.104931D-01
     35 -0.113698D-01 -0.905855D-02  0.333383D-01  0.212534D-01  0.188749D-01
     36  0.889327D-02 -0.416772D-01  0.325114D-01  0.403170D-01 -0.427975D-02
     37 -0.371192D-02 -0.146525D+00 -0.118807D+00  0.215596D+00 -0.313877D+00
     38 -0.605901D-01 -0.743089D-02  0.254593D+00 -0.945762D-01 -0.337020D+00
     39  0.144167D-02  0.168626D+00 -0.227885D+00 -0.234763D+00 -0.605657D-01
     40 -0.113377D-02 -0.701856D-02  0.227838D-01  0.379158D-01 -0.419437D-01
     41 -0.586151D-03 -0.612361D-02  0.330863D-01  0.134990D-01 -0.335864D-01
     42  0.175051D-02  0.302542D-02 -0.302946D-01 -0.280452D-01  0.107638D-01
     43  0.103603D-02  0.159358D-03 -0.360333D-01 -0.152382D-01  0.249629D-01
     44 -0.617120D-02 -0.587565D-04  0.880897D-02 -0.222474D-01 -0.263100D-01
     45  0.120593D-02  0.396039D-01 -0.257482D-01 -0.323934D-01  0.474764D-01
     46 -0.285092D-03 -0.212005D-02  0.531482D-01  0.398628D-01 -0.132485D+00
     47  0.171806D-02  0.871685D-02 -0.213264D-01 -0.788165D-01  0.215392D-01
     48 -0.905303D-03 -0.275662D-02 -0.967503D-01 -0.322945D-01  0.172578D-01
               16            17            18            19            20
     16  0.696661D+01
     17 -0.128950D+00  0.634672D+01
     18 -0.563392D+00 -0.138919D+01  0.151043D+01
     19 -0.131230D-01 -0.141237D+00 -0.128802D-01  0.100429D+02
     20 -0.135829D+00 -0.178807D+00 -0.453749D-01 -0.113662D+01  0.170141D+02
     21 -0.332711D-01 -0.568792D-01  0.544984D-01 -0.265262D+00 -0.226950D+00
     22 -0.407543D-02 -0.119974D-02 -0.650466D-03 -0.178414D+01 -0.152705D+01
     23  0.667718D-03 -0.347455D-02  0.645189D-02 -0.184369D+01 -0.711781D+00
     24 -0.370702D-03 -0.641611D-03 -0.613113D-03  0.245099D+00 -0.290668D+00
     25  0.802593D-02  0.197726D-01  0.284909D-01 -0.309454D+01  0.518982D+00
     26  0.197377D-01  0.379605D-02  0.294031D-01  0.488641D+00 -0.618041D+01
     27  0.115715D-01  0.924129D-02  0.598019D-04  0.268365D+01  0.470259D+00
     28  0.337145D-02  0.524163D-02  0.949733D-02  0.248442D-01  0.171517D-01
     29  0.341298D-02  0.278880D-02  0.691256D-02  0.235647D-01  0.873139D-01
     30  0.102775D-03 -0.244459D-03 -0.293627D-02 -0.658575D-01 -0.320338D-01
     31 -0.439373D-03  0.128971D-02  0.699620D-02  0.620882D-01 -0.288640D-01
     32 -0.298776D-02 -0.348607D-02 -0.774039D-02 -0.775673D-01  0.156584D+00
     33  0.247602D-03  0.922894D-03  0.373411D-02 -0.322310D-02 -0.208711D-01
     34 -0.210245D-03  0.155426D-02  0.108249D-02  0.752784D-01 -0.285227D-01
     35  0.288433D-02  0.299222D-02  0.849806D-02 -0.235310D-03  0.984530D-01
     36  0.375822D-02  0.575044D-02  0.104962D-01 -0.238352D-01  0.154355D-01
     37  0.659273D-01  0.158938D+00  0.161403D-01 -0.556749D+01 -0.260304D+00
     38  0.143132D+00  0.590243D-01  0.182200D-01 -0.244297D+00 -0.560385D+01
     39 -0.468246D-01 -0.484802D-01 -0.907478D-01 -0.108216D+01  0.139408D+01
     40  0.294020D-02  0.594939D-02  0.809173D-02  0.298701D-01  0.272666D-01
     41  0.431987D-02  0.299060D-02  0.702117D-02  0.411420D-01  0.714106D-01
     42 -0.219872D-02 -0.252796D-02 -0.620129D-02  0.480047D-01 -0.606851D-02
     43 -0.106246D-01  0.121823D-01 -0.141011D-01  0.142389D+00 -0.111074D-01
     44  0.166360D-01  0.806048D-02 -0.102609D-01 -0.274094D-01  0.951973D-01
     45 -0.197298D-01 -0.324197D-01 -0.144153D-01 -0.777414D-01 -0.626534D-01
     46 -0.513744D-02  0.104389D-02  0.153441D-01  0.109766D+00 -0.253596D-01
     47 -0.663960D-02 -0.410222D-02 -0.696422D-02 -0.450393D-01  0.176390D+00
     48  0.299987D-02  0.657540D-03 -0.437745D-02  0.130483D-01 -0.429311D-01
               21            22            23            24            25
     21  0.138104D+02
     22  0.200492D+00  0.116759D+01
     23 -0.285608D+00  0.288778D+01  0.311972D+01
     24 -0.289611D+01 -0.156077D+00  0.388787D+00  0.546175D+01
     25  0.275465D+01 -0.583406D-01  0.648791D-01 -0.706498D-01  0.127703D+02
     26  0.467040D+00  0.554199D-01  0.387089D-01  0.303604D-01 -0.660924D+00
     27 -0.377810D+01 -0.573148D-01  0.308642D-01  0.188184D-01 -0.199511D+01
     28 -0.578105D-02 -0.135728D-01 -0.132301D-03 -0.514693D-02 -0.253090D+01
     29 -0.192939D-02  0.596235D-02  0.191531D-02  0.123316D-02  0.110894D+01
     30  0.689662D-01 -0.844733D-02  0.185814D-02  0.169073D-02 -0.694740D+00
     31 -0.327059D-02  0.298149D-01 -0.500374D-01  0.288412D-01 -0.373007D+01
     32 -0.637611D-01 -0.466314D-01  0.282787D-01 -0.274513D-01 -0.892372D+00
     33  0.675532D-01  0.305193D-01 -0.319939D-01 -0.401873D-03  0.274459D+00
     34 -0.106232D+00 -0.835285D-02  0.105266D-01 -0.310991D-01 -0.412193D+01
     35  0.796548D-02  0.674418D-02  0.986272D-02  0.967408D-02 -0.400950D+00
     36 -0.686835D-02 -0.220505D-01  0.784663D-02 -0.224847D-01 -0.795507D+00
     37 -0.121765D+01 -0.914537D-02  0.733502D-01  0.570498D-01 -0.490868D-01
     38  0.141908D+01  0.505730D-01  0.979394D-02 -0.444458D-01  0.166786D-01
     39 -0.143835D+01  0.349092D-01 -0.457599D-01  0.206089D-02  0.487820D-01
     40 -0.510585D-02 -0.409441D-02  0.393683D-02  0.115187D-01 -0.445175D-02
     41 -0.491319D-01  0.965944D-02 -0.887926D-03 -0.785683D-02  0.573819D-02
     42  0.312039D-01  0.902743D-02 -0.401968D-02 -0.702694D-02 -0.651818D-02
     43  0.238800D-01  0.165144D-01  0.118128D-01  0.926842D-02  0.714419D-02
     44 -0.523250D-01  0.206490D-02 -0.161110D-01 -0.388300D-01  0.201914D-01
     45 -0.643156D-01  0.166788D-02 -0.442790D-01 -0.312392D-01  0.120544D+00
     46  0.664099D-02  0.448995D-02 -0.494324D-01 -0.186502D-01 -0.109780D-01
     47  0.118086D-01 -0.463732D-01  0.657326D-01  0.322548D-01 -0.111161D-02
     48  0.338954D-01 -0.187721D-01  0.383842D-01 -0.752784D-02  0.126355D-02
               26            27            28            29            30
     26  0.155911D+02
     27 -0.475842D+00  0.138656D+02
     28  0.116597D+01 -0.847824D+00  0.215294D+01
     29 -0.338000D+01 -0.569260D+00 -0.127720D+01  0.330596D+01
     30 -0.489155D+00 -0.384245D+01  0.711129D+00  0.446407D+00  0.379971D+01
     31 -0.109007D+01  0.278755D+00  0.882484D-01 -0.478626D-01  0.160175D-01
     32 -0.194946D+01 -0.598157D+00 -0.288066D-01 -0.573576D-01  0.470090D-01
     33 -0.720337D+00 -0.396401D+01  0.147542D-01  0.753394D-01  0.543678D-01
     34 -0.284388D+00 -0.559181D+00  0.119668D-01  0.125580D-01  0.686523D-01
     35 -0.374008D+01  0.106639D+01 -0.111264D-01  0.740231D-01  0.259856D-01
     36  0.107742D+01 -0.215882D+01  0.679427D-01 -0.166362D-02 -0.100631D-01
     37  0.463406D-01  0.158322D+00 -0.499703D-02  0.194279D-01 -0.881167D-02
     38 -0.452708D-01  0.791845D-01  0.114299D-01 -0.306021D-03  0.455551D-02
     39  0.829494D-01  0.239097D+00  0.753671D-02  0.210095D-01 -0.115950D-01
     40  0.229581D-02 -0.157783D-01 -0.173558D-01 -0.132231D-02  0.892895D-02
     41 -0.107819D-01 -0.281688D-01 -0.211750D-02 -0.177829D-01  0.633763D-02
     42 -0.681767D-02  0.909154D-03  0.298971D-01  0.206655D-01  0.289836D-01
     43  0.220311D-01  0.115231D+00  0.101747D-01  0.759660D-02  0.322589D-02
     44 -0.468009D-01  0.335921D-01  0.368373D-02 -0.613986D-03  0.178582D-02
     45  0.381276D-01  0.150656D+00  0.123650D-01  0.707398D-02  0.993388D-03
     46  0.105847D-02  0.397350D-02 -0.225181D-02 -0.192214D-02 -0.690357D-03
     47  0.157888D-01  0.294906D-01  0.954159D-02  0.820543D-02 -0.268256D-02
     48  0.671509D-02 -0.156846D-01  0.820538D-03  0.287735D-03 -0.318571D-02
               31            32            33            34            35
     31  0.339056D+01
     32  0.110088D+01  0.191914D+01
     33 -0.437876D+00  0.749938D+00  0.377957D+01
     34  0.525066D-01  0.479171D-01  0.316219D-01  0.399447D+01
     35  0.797821D-01 -0.411056D-01 -0.745576D-01  0.218431D+00  0.366889D+01
     36  0.321759D-01 -0.475413D-01  0.721925D-01  0.502550D+00 -0.117469D+01
     37 -0.641440D-02 -0.185283D-01  0.775471D-02 -0.546500D-01  0.808347D-02
     38 -0.538044D-02  0.145023D-03 -0.887012D-02  0.771522D-02 -0.228583D-01
     39 -0.374940D-02 -0.244095D-01 -0.798148D-02  0.233377D-01  0.846809D-01
     40 -0.468887D-02  0.599545D-02 -0.432338D-02 -0.172755D-03 -0.298718D-02
     41 -0.304614D-02  0.558449D-02 -0.670323D-02  0.142906D-02 -0.414105D-02
     42  0.346816D-02 -0.100573D-01  0.693217D-02 -0.292964D-02  0.384737D-02
     43  0.218949D-02 -0.637629D-02  0.210064D-02 -0.133482D-02  0.298555D-02
     44 -0.196804D-03 -0.695979D-04 -0.144900D-03 -0.101241D-02 -0.296734D-04
     45  0.148605D-02 -0.630718D-02 -0.243390D-03 -0.435716D-02  0.222762D-02
     46 -0.170685D-01  0.368766D-02  0.132728D-01  0.504793D-04 -0.181062D-02
     47  0.127043D-01 -0.257312D-01  0.294886D-01 -0.263275D-02  0.428731D-02
     48  0.264338D-01  0.745919D-02  0.488598D-01 -0.101030D-02  0.419312D-03
               36            37            38            39            40
     36  0.190325D+01
     37  0.207493D-01  0.146493D+02
     38  0.780960D-01  0.292796D-01  0.157301D+02
     39  0.179448D+00  0.125307D+01 -0.769850D+00  0.126331D+02
     40 -0.921858D-02 -0.285898D+01  0.116306D+01 -0.792740D+00  0.261763D+01
     41 -0.509896D-02  0.108822D+01 -0.336654D+01 -0.616781D+00 -0.118352D+01
     42  0.132821D-01 -0.879578D+00 -0.730182D+00 -0.378663D+01  0.102865D+01
     43  0.633546D-02 -0.274471D+01 -0.829374D-03  0.137316D+01 -0.269552D-01
     44 -0.894555D-03  0.329543D-01 -0.452973D+01  0.178703D-01 -0.499803D-01
     45  0.203848D-02  0.172467D+01 -0.109559D-01 -0.330130D+01 -0.250105D-02
     46 -0.291243D-02 -0.388912D+01 -0.107181D+01  0.372707D-01  0.785672D-01
     47  0.849089D-02 -0.955280D+00 -0.180378D+01 -0.584134D-01 -0.165615D-01
     48 -0.271245D-03 -0.388468D-01  0.126874D+00 -0.431006D+01 -0.326105D-02
               41            42            43            44            45
     41  0.339252D+01
     42  0.761134D+00  0.351969D+01
     43 -0.151394D-01 -0.232032D-01  0.270861D+01
     44  0.467753D-01 -0.185574D-01 -0.514456D-01  0.454636D+01
     45 -0.490428D-02  0.664370D-01 -0.136040D+01 -0.490276D-01  0.290378D+01
     46 -0.470898D-01  0.618560D-02 -0.228357D-01  0.129044D+00 -0.848786D-01
     47 -0.633358D-01  0.418268D-01  0.915568D-01  0.285461D-01  0.675109D-01
     48  0.348388D-01  0.646910D-01 -0.565482D-01  0.653442D-01  0.736222D-01
               46            47            48
     46  0.367464D+01
     47  0.106512D+01  0.163921D+01
     48  0.167478D+00 -0.205023D+00  0.414784D+01
 ReadGW:  IGet=0 IStart=         114 Next=        7220 LGW=        7106.
 ICntrl=12127.
 Symmetry not used in FoFDir.
 MinBra= 0 MaxBra= 2 Meth= 1.
 IRaf=       0 NMat=   1 IRICut=       1 DoRegI=T DoRafI=F ISym2E= 0 JSym2E=0.
 PrsmSu:  NPrtUS=   8 ThrOK=T
 PRISM was handed    16286531 working-precision words and  2490 shell-pairs
 PRISM was handed    16286531 working-precision words and  2490 shell-pairs
 PRISM was handed    16286531 working-precision words and  2490 shell-pairs
 PRISM was handed    16286531 working-precision words and  2490 shell-pairs
 PRISM was handed    16286531 working-precision words and  2490 shell-pairs
 PRISM was handed    16286531 working-precision words and  2490 shell-pairs
 PRISM was handed    16286531 working-precision words and  2490 shell-pairs
 PRISM was handed    16286531 working-precision words and  2490 shell-pairs
 Pruned (  75, 302) grid will be used in CalDFT.
 CkSvGd:  ISavGI=        -1 IRadAn=       4 IRASav=       4 ISavGd=        -1.
 CalDSu:  NPrtUS=   8 ThrOK=T
 IPart= 0 IRanGd=          0 ScrnBf=T ScrnGd=T RCrit=4.00D+00 DoMicB=T.
 IPart= 2 IRanGd=          0 ScrnBf=T ScrnGd=T RCrit=4.00D+00 DoMicB=T.
 IPart= 4 IRanGd=          0 ScrnBf=T ScrnGd=T RCrit=4.00D+00 DoMicB=T.
 IPart= 7 IRanGd=          0 ScrnBf=T ScrnGd=T RCrit=4.00D+00 DoMicB=T.
 CutRad = 1000.00    CtRdIn =    0.00    XCrit =  15.00   ICut = 0
 CutRad = 1000.00    CtRdIn =    0.00    XCrit =  15.00   ICut = 0
 CutRad = 1000.00    CtRdIn =    0.00    XCrit =  15.00   ICut = 0
 IPart= 6 IRanGd=          0 ScrnBf=T ScrnGd=T RCrit=4.00D+00 DoMicB=T.
 CutRad = 1000.00    CtRdIn =    0.00    XCrit =  15.00   ICut = 0
 CutRad = 1000.00    CtRdIn =    0.00    XCrit =  15.00   ICut = 0
 IPart= 5 IRanGd=          0 ScrnBf=T ScrnGd=T RCrit=4.00D+00 DoMicB=T.
 IPart= 3 IRanGd=          0 ScrnBf=T ScrnGd=T RCrit=4.00D+00 DoMicB=T.
 CutRad = 1000.00    CtRdIn =    0.00    XCrit =  15.00   ICut = 0
 CutRad = 1000.00    CtRdIn =    0.00    XCrit =  15.00   ICut = 0
 IPart= 1 IRanGd=          0 ScrnBf=T ScrnGd=T RCrit=4.00D+00 DoMicB=T.
 CutRad = 1000.00    CtRdIn =    0.00    XCrit =  15.00   ICut = 0
 IPart= 0        14439 of        16646 points in      35 batches and      110 microbatches, Max-NSigAt=      16 Max-NSgAt2=      16
 IPart= 7        12362 of        14050 points in      29 batches and       92 microbatches, Max-NSigAt=      16 Max-NSgAt2=      16
 IPart= 5        13389 of        15542 points in      32 batches and      100 microbatches, Max-NSigAt=      16 Max-NSgAt2=      16
 IPart= 4        13570 of        15524 points in      30 batches and       83 microbatches, Max-NSigAt=      16 Max-NSgAt2=      16
 IPart= 2        15298 of        17184 points in      34 batches and      110 microbatches, Max-NSigAt=      16 Max-NSgAt2=      16
 IPart= 6        14487 of        15958 points in      33 batches and       95 microbatches, Max-NSigAt=      16 Max-NSgAt2=      16
 IPart= 3        13943 of        16198 points in      34 batches and       91 microbatches, Max-NSigAt=      16 Max-NSgAt2=      16
 IPart= 1        14226 of        16396 points in      33 batches and       85 microbatches, Max-NSigAt=      16 Max-NSgAt2=      16
 Polarizability after L703:
                1             2             3
      1  0.725923D+02
      2 -0.469834D+01  0.615296D+02
      3 -0.634900D-01  0.143690D+01  0.562968D+02
 Dipole Derivatives after L703:
               1            2            3            4            5
      1 0.535362D+00 0.559883D+00-0.315425D-01-0.490922D+00-0.653636D+00
      2-0.673590D-01-0.369130D+00-0.189792D-01 0.140354D+00-0.246954D+00
      3-0.109364D+00-0.856965D-02-0.217583D+00-0.915437D-01 0.105495D+00
               6            7            8            9           10
      1 0.526007D-01 0.329183D+00 0.282932D+00-0.143904D+00 0.376300D-01
      2 0.971863D-01 0.148735D+00 0.105326D+01-0.638428D-01-0.519981D-02
      3-0.290326D+00 0.463343D-01-0.594750D-01 0.541913D+00 0.956365D-02
              11           12           13           14           15
      1-0.870725D-02 0.143314D-01-0.428259D+00-0.210874D+00 0.581048D-02
      2-0.853507D-02-0.564693D-02-0.184324D+00-0.103091D+01-0.124431D+00
      3-0.280871D-01-0.156324D+00 0.209595D-01-0.305634D-01-0.269229D+00
              16           17           18           19           20
      1 0.317189D+00 0.739515D-01-0.277922D-02 0.473036D+00-0.763195D+00
      2 0.328100D-01 0.329393D+00 0.286688D-01-0.224959D+00 0.123263D+00
      3-0.261863D-02 0.603064D-01 0.141842D+00 0.622463D-01 0.134172D+00
              21           22           23           24           25
      1 0.271864D+00-0.614455D+00 0.396688D+00-0.814449D-01-0.662205D-01
      2 0.104622D+00 0.201045D+00 0.630840D-01 0.835263D-02-0.452210D-02
      3 0.166325D+00 0.697119D-01-0.747087D-01 0.118621D+00-0.793050D-01
              26           27           28           29           30
      1 0.222109D+00-0.908312D-01-0.368849D-01-0.108474D+00 0.709919D-01
      2 0.934674D-01-0.192413D-01-0.732318D-01 0.260184D-01 0.632094D-01
      3 0.137862D-01-0.225472D-01 0.326654D-01 0.268068D-01 0.230465D-01
              31           32           33           34           35
      1-0.132009D-01 0.524729D-01-0.693674D-01 0.337135D-01-0.517675D-02
      2 0.367985D-01-0.866814D-01 0.121992D-01 0.425774D-01 0.427442D-01
      3-0.305236D-01 0.366457D-01 0.528561D-01 0.607279D-01-0.795281D-01
              36           37           38           39           40
      1 0.172850D-01-0.721770D-01 0.171404D+00-0.608574D-01-0.143792D-01
      2-0.649605D-01-0.886635D-02 0.417482D-01-0.244086D-01-0.795013D-01
      3-0.821006D-01 0.573974D-01-0.118069D+00-0.621853D-01 0.654791D-01
              41           42           43           44           45
      1-0.101561D+00 0.428429D-01-0.331396D-01-0.524632D-02-0.529524D-01
      2 0.104053D-01 0.127538D-01-0.700206D-02 0.636310D-01-0.258646D-01
      3 0.538008D-01 0.408499D-01-0.113399D+00-0.104066D-01-0.307098D-02
              46           47           48
      1 0.435240D-01 0.974295D-01 0.579530D-01
      2 0.526461D-01-0.104803D+00 0.203831D-01
      3 0.166852D-02-0.216049D-01 0.179110D-01
 Hessian after L703:
                1             2             3             4             5
      1  0.334463D-01
      2 -0.236014D-01  0.306216D+00
      3  0.142042D-01 -0.716393D-02  0.234700D-01
      4 -0.609159D-01 -0.147354D-01 -0.173584D-01  0.288574D+00
      5 -0.313067D-01 -0.188733D+00 -0.132318D-01  0.307234D-01  0.288879D+00
      6 -0.179680D-01 -0.303134D-02 -0.218886D-01  0.945663D-01 -0.252778D-01
      7  0.162999D-01  0.780749D-02  0.792415D-02 -0.126276D+00  0.128250D-01
      8  0.201324D-02 -0.650990D-01  0.187632D-01 -0.122545D-01 -0.497309D-01
      9  0.151768D-01  0.107760D-01  0.315952D-02 -0.500093D-01  0.589646D-02
     10  0.167599D-03 -0.210860D-02  0.171255D-02 -0.798301D-02  0.476692D-02
     11  0.855871D-03  0.325745D-02 -0.276022D-02  0.619174D-02 -0.673977D-05
     12 -0.969266D-03 -0.513612D-03  0.227583D-02 -0.119820D-01  0.625982D-02
     13 -0.749322D-02  0.193263D-02 -0.253447D-02  0.731940D-02  0.350766D-01
     14  0.570275D-02 -0.503092D-02  0.436423D-02  0.555836D-02 -0.530266D-01
     15 -0.286970D-02  0.512828D-02  0.227688D-02  0.518112D-02  0.179718D-01
     16  0.105565D-02  0.160806D-02 -0.815610D-03  0.185851D-02 -0.261359D-02
     17 -0.113462D-02  0.819583D-03  0.106092D-02  0.371717D-03  0.355135D-02
     18 -0.266597D-03  0.179622D-02 -0.833259D-03  0.101462D-02  0.203553D-02
     19 -0.758418D-01  0.799320D-02  0.429317D-03 -0.621367D-01  0.212737D-01
     20  0.136445D+00  0.306638D-02 -0.831041D-03 -0.290778D-02 -0.451038D-01
     21 -0.210619D-01 -0.596294D-02  0.533916D-02 -0.208211D-01  0.117724D-01
     22  0.854658D-01  0.179965D-01 -0.426532D-02 -0.323552D-01 -0.647553D-01
     23 -0.640603D-01 -0.411447D-01  0.607798D-03 -0.155730D-01  0.223321D-01
     24  0.106314D-01 -0.250738D-02 -0.152613D-01 -0.416575D-02 -0.290999D-02
     25  0.348345D-02 -0.687076D-03  0.684402D-04 -0.560996D-02 -0.502442D-03
     26 -0.127623D-01 -0.630111D-02 -0.274452D-03  0.126631D-02  0.114480D-01
     27  0.376679D-02  0.493713D-03  0.796400D-04  0.687496D-02 -0.168742D-02
     28 -0.129515D-02 -0.383763D-03  0.108056D-04 -0.187291D-02  0.721046D-03
     29  0.136063D-03  0.194114D-03  0.282367D-04 -0.831638D-04 -0.344552D-03
     30 -0.977389D-03 -0.393719D-03 -0.190078D-05 -0.910792D-03  0.105366D-02
     31  0.209318D-02  0.207345D-02  0.345137D-03 -0.105021D-02 -0.342486D-02
     32  0.186062D-02  0.311456D-03 -0.784050D-04 -0.781163D-04 -0.100396D-02
     33  0.783597D-03  0.164691D-02  0.176825D-03 -0.693009D-03 -0.215546D-02
     34 -0.288868D-03  0.590421D-04  0.382247D-03  0.915892D-03  0.139011D-03
     35  0.395486D-03  0.532843D-03 -0.138095D-03  0.220574D-03 -0.829243D-03
     36 -0.478391D-03  0.657888D-03  0.348377D-03 -0.360630D-04 -0.686985D-04
     37  0.436365D-02  0.253305D-02 -0.629829D-03 -0.870615D-04 -0.327406D-02
     38 -0.149795D-01 -0.682879D-02 -0.134749D-02  0.774461D-03  0.114885D-01
     39  0.204637D-02  0.321634D-02  0.332094D-03 -0.219871D-02 -0.451902D-02
     40 -0.788426D-03 -0.247151D-03 -0.736372D-04 -0.214038D-03  0.490651D-03
     41  0.445632D-03  0.386279D-03  0.273941D-03 -0.189503D-03 -0.368563D-03
     42  0.148498D-02  0.258273D-03  0.170666D-03 -0.440816D-03 -0.102602D-02
     43 -0.109887D-03 -0.177924D-03  0.345218D-03  0.119633D-03  0.557657D-03
     44  0.159454D-03 -0.614116D-03  0.355843D-03  0.517418D-03 -0.256719D-04
     45 -0.490607D-03 -0.160129D-02  0.393929D-03  0.519808D-03  0.168193D-02
     46  0.357743D-03 -0.621524D-04  0.255192D-03 -0.286757D-03 -0.697034D-03
     47 -0.169008D-03 -0.103235D-02  0.371217D-03  0.197419D-03  0.147495D-02
     48 -0.301227D-02 -0.279947D-02 -0.378718D-04  0.459174D-03  0.420458D-02
                6             7             8             9            10
      6  0.120763D+00
      7 -0.519436D-01  0.356320D+00
      8  0.867340D-04  0.571606D-01  0.496923D+00
      9 -0.105038D+00 -0.113877D-01  0.640382D-01  0.643038D+00
     10 -0.348864D-01 -0.482929D-01  0.157884D-02  0.301019D-01  0.596421D-01
     11  0.217289D-01  0.186726D-02 -0.542366D-01 -0.282976D-01 -0.574654D-03
     12 -0.160758D-01  0.258375D-01 -0.361992D-01 -0.297273D+00 -0.173934D-01
     13  0.202668D-02 -0.613722D-01 -0.457552D-01 -0.322748D-02  0.175403D-02
     14  0.249225D-02 -0.282486D-01 -0.234407D+00 -0.953097D-02 -0.396378D-02
     15  0.759044D-02 -0.100649D-01 -0.531660D-01 -0.115579D+00 -0.625701D-02
     16  0.342674D-02 -0.286753D-02  0.254391D-02 -0.780861D-02  0.162586D-02
     17  0.191436D-03 -0.404322D-02 -0.153690D-01 -0.531696D-01 -0.120445D-02
     18  0.120168D-02 -0.573799D-03 -0.509434D-02 -0.121081D-01 -0.943602D-03
     19 -0.565406D-02 -0.886448D-01 -0.333802D-01  0.329760D-01 -0.572431D-02
     20  0.584703D-02 -0.337856D-01 -0.450234D-01 -0.873327D-02  0.337208D-02
     21  0.723752D-02  0.292582D-01  0.225141D-02 -0.103476D+00  0.261335D-01
     22  0.928444D-02 -0.226133D-01  0.154172D-01 -0.987729D-02  0.209412D-02
     23 -0.107558D-02 -0.911936D-03 -0.336424D-01  0.122755D-01  0.281461D-03
     24  0.334312D-02  0.622692D-03  0.126627D-01  0.383592D-03 -0.335414D-03
     25  0.595846D-03 -0.197257D-01 -0.195645D-03 -0.163081D-01  0.804481D-03
     26 -0.210189D-02 -0.106920D-01 -0.124273D-02 -0.459199D-02  0.858405D-03
     27  0.883551D-03  0.216465D-02 -0.246581D-02  0.914647D-02  0.139859D-02
     28 -0.255963D-03  0.775488D-04  0.775998D-03 -0.388477D-02  0.364739D-03
     29  0.113195D-03  0.497743D-03  0.111243D-02 -0.673310D-03  0.245183D-04
     30  0.294940D-03 -0.128872D-02  0.704702D-03 -0.350328D-02 -0.276201D-03
     31  0.758376D-03  0.875224D-03  0.183166D-02 -0.176945D-02 -0.213130D-03
     32  0.152161D-03 -0.482611D-03 -0.284381D-03  0.298456D-03  0.993489D-04
     33  0.245008D-03  0.360457D-04  0.975389D-03 -0.528600D-03 -0.593526D-04
     34  0.256832D-03  0.611517D-03 -0.504455D-03 -0.155262D-02 -0.354951D-03
     35  0.560417D-03  0.463581D-03  0.678022D-04 -0.168506D-02 -0.522344D-03
     36  0.389059D-03  0.100536D-02  0.621471D-03 -0.161029D-03 -0.630675D-03
     37 -0.510538D-03 -0.717712D-02  0.920272D-02  0.264577D-01 -0.345563D-02
     38  0.831529D-03 -0.281333D-02  0.413646D-02  0.159364D-01 -0.326747D-02
     39 -0.851490D-03  0.114343D-01  0.223781D-02 -0.125762D-01  0.978037D-04
     40  0.200814D-03  0.156512D-02  0.656743D-03  0.145547D-02 -0.462891D-03
     41 -0.179272D-03  0.355012D-03 -0.165176D-02 -0.307656D-02  0.602758D-03
     42  0.666874D-03 -0.110516D-02 -0.286035D-02 -0.565747D-02  0.151107D-02
     43  0.188952D-03 -0.165187D-03 -0.168989D-02 -0.441535D-03  0.184858D-03
     44 -0.179218D-04  0.469734D-03  0.694308D-03  0.224126D-03 -0.333938D-04
     45  0.931832D-03 -0.119917D-02 -0.296126D-03 -0.245450D-03 -0.118877D-03
     46 -0.863214D-04  0.138569D-02  0.259918D-02  0.990090D-04 -0.151017D-03
     47 -0.319820D-03 -0.469060D-03 -0.224621D-02  0.313194D-03  0.903466D-04
     48  0.306445D-03 -0.719847D-03 -0.225976D-02  0.417238D-03 -0.543985D-04
               11            12            13            14            15
     11  0.704136D-01
     12  0.401523D-01  0.323229D+00
     13 -0.142358D-02 -0.111846D-02  0.687111D-01
     14 -0.181888D-01 -0.764102D-02  0.474604D-01  0.389415D+00
     15 -0.410054D-01 -0.431644D-02  0.509810D-01  0.869070D-01  0.594085D+00
     16 -0.446793D-03  0.966748D-03 -0.102322D-01 -0.146861D-01 -0.381471D-01
     17 -0.638516D-02 -0.184115D-03 -0.832341D-02 -0.498333D-01 -0.259606D-01
     18 -0.234176D-02  0.185758D-02 -0.428824D-01 -0.756568D-01 -0.492082D+00
     19 -0.390635D-02  0.203205D-02 -0.678165D-02 -0.992802D-02  0.913367D-03
     20  0.421453D-02 -0.993436D-03 -0.217406D-01 -0.328542D-01  0.679482D-02
     21  0.111498D-01 -0.118073D-01 -0.567646D-02 -0.406685D-03  0.700573D-02
     22 -0.799796D-03  0.145603D-02  0.772885D-02  0.299664D-03 -0.633905D-04
     23  0.117760D-02 -0.108677D-02 -0.589791D-02 -0.743352D-03  0.104375D-02
     24  0.346722D-03 -0.543364D-03  0.185733D-02  0.100029D-03 -0.644555D-03
     25  0.203092D-03 -0.101428D-02  0.121272D-03 -0.499758D-03  0.448772D-03
     26  0.382785D-03 -0.120160D-02 -0.412530D-03  0.576758D-03  0.348761D-03
     27  0.855939D-03  0.882980D-03  0.111400D-02  0.199290D-02 -0.339692D-03
     28  0.147105D-03 -0.138005D-03 -0.621215D-03 -0.101890D-02 -0.393568D-04
     29 -0.616877D-04  0.146965D-03  0.173910D-03  0.105341D-03  0.571910D-04
     30  0.216050D-05  0.369932D-03 -0.148885D-03 -0.623609D-03  0.443286D-03
     31  0.228308D-04  0.475422D-03  0.208251D-03 -0.142722D-02  0.213374D-03
     32 -0.219900D-04 -0.101769D-04  0.221576D-03  0.359181D-03 -0.405527D-04
     33 -0.170038D-03  0.622096D-04  0.194491D-03 -0.820172D-03  0.446050D-04
     34 -0.273712D-04  0.534875D-03  0.120473D-03  0.302372D-03  0.346309D-03
     35 -0.678285D-04  0.513098D-03 -0.141590D-03 -0.938232D-04  0.366661D-03
     36 -0.315671D-03  0.699637D-03  0.611299D-04  0.169034D-03  0.455155D-03
     37 -0.206115D-02  0.120974D-02 -0.415635D-04  0.176622D-02  0.767912D-05
     38 -0.725819D-03  0.103569D-02  0.844119D-03  0.231971D-02  0.203312D-03
     39 -0.179069D-04  0.106780D-02 -0.207273D-03 -0.341136D-02 -0.778750D-03
     40 -0.140986D-03  0.199554D-03  0.256779D-03  0.882986D-04 -0.196617D-03
     41  0.302727D-03 -0.162992D-03 -0.601533D-03  0.704275D-03  0.732234D-03
     42  0.632314D-03 -0.461453D-03 -0.500531D-03 -0.202585D-03  0.643991D-03
     43  0.337188D-03 -0.165972D-03 -0.239369D-03  0.292520D-03  0.497745D-03
     44 -0.145342D-03  0.257409D-05 -0.126425D-03 -0.497696D-03 -0.113235D-03
     45 -0.122612D-03  0.196370D-03  0.285111D-03  0.481903D-03  0.658956D-03
     46 -0.244406D-03  0.694532D-04  0.561187D-03 -0.169821D-02 -0.951253D-03
     47  0.913273D-04 -0.117574D-03 -0.128641D-02  0.119588D-02  0.731995D-03
     48  0.163109D-03 -0.164550D-03 -0.223733D-03  0.178589D-02  0.535197D-03
               16            17            18            19            20
     16  0.102684D-01
     17  0.145628D-01  0.668062D-01
     18  0.432822D-01  0.769211D-01  0.500797D+00
     19  0.191694D-02 -0.868957D-03 -0.179250D-03  0.459554D+00
     20 -0.321484D-02  0.888721D-03  0.188256D-02  0.437058D-01  0.229483D+00
     21 -0.196351D-02 -0.329936D-03  0.113270D-02  0.157732D-01  0.603759D-01
     22 -0.237658D-02  0.888966D-03 -0.355335D-03  0.473060D-01 -0.106834D+00
     23  0.100930D-02 -0.559516D-03  0.256279D-03 -0.230579D-01  0.180812D-01
     24 -0.155988D-03 -0.102802D-03  0.124501D-04 -0.622215D-03 -0.331925D-02
     25 -0.403122D-03  0.131345D-03  0.267590D-03 -0.148732D+00 -0.169126D-01
     26  0.542435D-03 -0.206874D-03 -0.366365D-03 -0.131192D-01 -0.593911D-01
     27 -0.245706D-04 -0.130973D-03 -0.289232D-03 -0.565327D-01 -0.136375D-01
     28  0.307546D-05  0.667159D-05  0.948472D-04 -0.219605D-01 -0.119843D-01
     29 -0.388994D-04  0.678916D-04  0.653003D-04 -0.968628D-04 -0.175010D-02
     30  0.277158D-04  0.964519D-04  0.923218D-04 -0.167640D-01 -0.125045D-01
     31 -0.127392D-03  0.791630D-04  0.250362D-04 -0.144635D-01  0.205012D-01
     32 -0.681618D-04 -0.142880D-04  0.125527D-04  0.239063D-02  0.348305D-02
     33 -0.211102D-03  0.119657D-03  0.292083D-04 -0.995432D-02  0.183187D-01
     34  0.000000D+00  0.761150D-04 -0.467118D-04  0.950723D-02 -0.117115D-01
     35  0.202772D-04  0.948593D-04  0.524503D-04  0.128636D-02 -0.273700D-02
     36  0.242148D-03  0.167613D-03 -0.497373D-04  0.603818D-02 -0.839325D-02
     37  0.506973D-03 -0.120666D-02  0.649561D-03 -0.898799D-01  0.889573D-03
     38  0.831684D-04  0.428572D-03 -0.685619D-03  0.211546D-02 -0.665108D-01
     39 -0.367653D-04 -0.116493D-03  0.121982D-02  0.216201D-01 -0.361399D-01
     40  0.135187D-03  0.504752D-03 -0.338229D-03 -0.819615D-02 -0.230713D-02
     41  0.667530D-03  0.000000D+00  0.122920D-03  0.978926D-02  0.584667D-02
     42  0.274669D-04  0.255317D-03 -0.125092D-03  0.233205D-01  0.172254D-01
     43  0.326626D-03  0.878654D-04 -0.278984D-04  0.958580D-02 -0.942604D-03
     44 -0.579634D-03 -0.280594D-03  0.722504D-03 -0.953167D-02 -0.224466D-02
     45  0.490304D-03  0.103369D-02 -0.819759D-03 -0.256808D-01  0.915988D-03
     46 -0.168955D-02  0.719329D-04  0.280019D-03 -0.550861D-02  0.742735D-02
     47  0.610570D-03 -0.836458D-05  0.277540D-03  0.533479D-02 -0.944815D-02
     48  0.699988D-03  0.148397D-03 -0.364581D-04  0.122846D-01 -0.268081D-01
               21            22            23            24            25
     21  0.479536D+00
     22  0.165098D-01 -0.682195D-01
     23 -0.111584D-01  0.102768D+00  0.497620D-01
     24 -0.253362D-01 -0.792288D-02 -0.132768D-03  0.459130D-01
     25 -0.583338D-01 -0.110276D-01  0.163361D-02 -0.500509D-02  0.508871D+00
     26 -0.104564D-01  0.193307D-01 -0.511635D-02  0.915472D-02  0.104140D-01
     27 -0.134539D+00 -0.794322D-02  0.324461D-02 -0.281569D-02 -0.543730D-01
     28  0.952825D-02  0.140911D-02 -0.100056D-02  0.367693D-03 -0.187624D+00
     29  0.135517D-02 -0.238820D-03  0.409633D-03 -0.241206D-03 -0.107029D+00
     30  0.961547D-02  0.604879D-03 -0.435595D-03  0.253827D-03  0.776102D-01
     31 -0.815757D-02 -0.184380D-02 -0.185941D-04 -0.218488D-02 -0.751143D-01
     32  0.134047D-02 -0.220928D-02  0.201679D-02 -0.201735D-03  0.788358D-01
     33 -0.722877D-02 -0.124780D-02 -0.444773D-03 -0.124130D-02 -0.211407D-01
     34 -0.216764D-01  0.496863D-03 -0.110108D-03 -0.237091D-03 -0.748291D-01
[...]
    X7       -1.35058   0.00001   0.00000   0.00003   0.00004  -1.35054
    Y7       -0.39522  -0.00001   0.00000   0.00002   0.00003  -0.39519
    Z7       -0.07528   0.00000   0.00000  -0.00014  -0.00013  -0.07541
    X8       -0.02359  -0.00001   0.00000  -0.00012  -0.00015  -0.02374
    Y8       -2.53854   0.00002   0.00000   0.00012   0.00010  -2.53843
    Z8        0.19167   0.00000   0.00000  -0.00009  -0.00006   0.19162
    X9       -3.48810   0.00000   0.00000  -0.00008  -0.00005  -3.48815
    Y9       -0.68443   0.00000   0.00000   0.00017   0.00020  -0.68423
    Z9       -1.93053   0.00000   0.00000  -0.00004  -0.00006  -1.93059
   X10       -5.03375   0.00000   0.00000   0.00029   0.00030  -5.03345
   Y10       -1.79792   0.00000   0.00000  -0.00049  -0.00044  -1.79836
   Z10       -1.13121   0.00000   0.00000  -0.00022  -0.00027  -1.13148
   X11       -4.26956   0.00000   0.00000  -0.00064  -0.00057  -4.27014
   Y11        1.17214   0.00000   0.00000   0.00014   0.00018   1.17232
   Z11       -2.43758   0.00000   0.00000   0.00073   0.00069  -2.43689
   X12       -2.86321   0.00000   0.00000  -0.00008  -0.00004  -2.86324
   Y12       -1.59089   0.00000   0.00000   0.00093   0.00095  -1.58994
   Z12       -3.67846   0.00000   0.00000  -0.00043  -0.00044  -3.67890
   X13       -2.05980   0.00001   0.00000   0.00019   0.00017  -2.05963
   Y13        0.47388   0.00000   0.00000  -0.00016  -0.00014   0.47374
   Z13        2.55017   0.00000   0.00000  -0.00003  -0.00003   2.55014
   X14       -3.51599   0.00000   0.00000   0.00010   0.00005  -3.51593
   Y14       -0.74444   0.00000   0.00000  -0.00011  -0.00007  -0.74451
   Z14        3.36100   0.00000   0.00000  -0.00011  -0.00013   3.36087
   X15       -0.42916   0.00000   0.00000   0.00026   0.00022  -0.42894
   Y15        0.45383   0.00000   0.00000  -0.00049  -0.00049   0.45333
   Z15        3.81880   0.00000   0.00000  -0.00013  -0.00011   3.81869
   X16       -2.83042   0.00000   0.00000   0.00038   0.00038  -2.83004
   Y16        2.40036   0.00000   0.00000  -0.00007  -0.00005   2.40031
   Z16        2.50782   0.00000   0.00000   0.00027   0.00026   2.50808
         Item               Value     Threshold  Converged?
 Maximum Force            0.000017     0.000450     YES
 RMS     Force            0.000006     0.000300     YES
 Maximum Displacement     0.000952     0.001800     YES
 RMS     Displacement     0.000312     0.001200     YES
 Predicted change in Energy=-5.340368D-09
 Optimization completed.
    -- Stationary point found.
 GradGradGradGradGradGradGradGradGradGradGradGradGradGradGradGradGradGrad


 Test job not archived.
 1\1\GINC-NODE28\Freq\UB3LYP\CBSB7\C4H9O3(2)\NYEE\15-Jul-2014\0\\# freq
  nosymm b3lyp/cbsb7 iop(7/33=1)\\Title Card Required\\0,2\O,1.183411,-
 1.653804,0.068556\O,1.63991,-0.30786,0.078316\C,0.594826,0.407417,-0.5
 98082\H,0.658363,0.248551,-1.678846\O,0.78058,1.760963,-0.377347\H,0.8
 65859,1.899919,0.574314\C,-0.714697,-0.209141,-0.039836\H,-0.012483,-1
 .343337,0.10143\C,-1.845824,-0.362183,-1.02159\H,-2.663747,-0.951418,-
 0.598611\H,-2.259356,0.620269,-1.289913\H,-1.515143,-0.841863,-1.94655
 9\C,-1.089998,0.250767,1.349492\H,-1.860581,-0.39394,1.778567\H,-0.227
 104,0.240156,2.020821\H,-1.497794,1.270216,1.327083\\Version=AM64L-G03
 RevD.01\HF=-383.4461089\S2=0.757506\S2-1=0.\S2A=0.750029\RMSD=6.042e-0
 9\RMSF=5.630e-06\ZeroPoint=0.1260954\Thermal=0.1341746\Dipole=-1.24209
 94,0.4217234,0.2030985\DipoleDeriv=0.5353622,-0.067359,-0.1093637,0.55
 98832,-0.3691299,-0.0085696,-0.0315425,-0.0189792,-0.2175826,-0.490922
 3,0.1403535,-0.0915437,-0.6536361,-0.2469542,0.1054953,0.0526007,0.097
 1863,-0.2903262,0.3291833,0.1487353,0.0463343,0.2829318,1.0532606,-0.0
 59475,-0.143904,-0.0638428,0.5419134,0.03763,-0.0051998,0.0095637,-0.0
 087072,-0.0085351,-0.0280871,0.0143314,-0.0056469,-0.1563236,-0.428258
 7,-0.1843244,0.0209595,-0.2108739,-1.0309117,-0.0305634,0.0058105,-0.1
 244306,-0.2692287,0.3171894,0.03281,-0.0026186,0.0739515,0.3293933,0.0
 603064,-0.0027792,0.0286688,0.141842,0.4730355,-0.224959,0.0622463,-0.
 7631953,0.1232627,0.1341715,0.2718637,0.1046215,0.1663251,-0.6144547,0
 .201045,0.0697119,0.3966885,0.063084,-0.0747087,-0.0814449,0.0083526,0
 .1186209,-0.0662205,-0.0045221,-0.079305,0.2221087,0.0934674,0.0137862
 ,-0.0908312,-0.0192413,-0.0225472,-0.0368849,-0.0732318,0.0326654,-0.1
 084742,0.0260184,0.0268068,0.0709919,0.0632094,0.0230465,-0.0132009,0.
 0367985,-0.0305236,0.0524729,-0.0866814,0.0366457,-0.0693674,0.0121992
 ,0.0528561,0.0337135,0.0425774,0.0607279,-0.0051768,0.0427442,-0.07952
 81,0.017285,-0.0649605,-0.0821006,-0.072177,-0.0088663,0.0573974,0.171
 4043,0.0417482,-0.1180694,-0.0608574,-0.0244086,-0.0621853,-0.0143792,
 -0.0795013,0.0654791,-0.1015605,0.0104053,0.0538008,0.0428429,0.012753
 8,0.0408499,-0.0331396,-0.0070021,-0.1133994,-0.0052463,0.063631,-0.01
 04066,-0.0529524,-0.0258646,-0.003071,0.043524,0.0526461,0.0016685,0.0
 974295,-0.1048027,-0.0216049,0.057953,0.0203831,0.017911\Polar=72.5923
 041,-4.698336,61.5295868,-0.06349,1.4369013,56.2967577\PG=C01 [X(C4H9O
 3)]\NImag=1\\0.03344627,-0.02360140,0.30621619,0.01420422,-0.00716393,
 0.02347000,-0.06091590,-0.01473538,-0.01735841,0.28857436,-0.03130672,
 -0.18873333,-0.01323177,0.03072345,0.28887858,-0.01796801,-0.00303134,
 -0.02188856,0.09456627,-0.02527781,0.12076319,0.01629993,0.00780749,0.
 00792415,-0.12627606,0.01282496,-0.05194361,0.35631967,0.00201324,-0.0
 6509900,0.01876322,-0.01225454,-0.04973089,0.00008673,0.05716056,0.496
 92270,0.01517681,0.01077605,0.00315952,-0.05000932,0.00589646,-0.10503
 778,-0.01138772,0.06403815,0.64303849,0.00016760,-0.00210860,0.0017125
 5,-0.00798301,0.00476692,-0.03488645,-0.04829289,0.00157884,0.03010186
 ,0.05964214,0.00085587,0.00325745,-0.00276022,0.00619174,-0.00000674,0
 .02172889,0.00186726,-0.05423663,-0.02829763,-0.00057465,0.07041359,-0
 .00096927,-0.00051361,0.00227583,-0.01198200,0.00625982,-0.01607583,0.
 02583753,-0.03619916,-0.29727291,-0.01739343,0.04015231,0.32322948,-0.
 00749322,0.00193263,-0.00253447,0.00731940,0.03507657,0.00202668,-0.06
 137218,-0.04575523,-0.00322748,0.00175403,-0.00142358,-0.00111846,0.06
 871111,0.00570275,-0.00503092,0.00436423,0.00555836,-0.05302664,0.0024
 9225,-0.02824856,-0.23440720,-0.00953097,-0.00396378,-0.01818881,-0.00
 764102,0.04746037,0.38941470,-0.00286970,0.00512828,0.00227688,0.00518
 112,0.01797180,0.00759044,-0.01006489,-0.05316599,-0.11557866,-0.00625
 701,-0.04100539,-0.00431644,0.05098097,0.08690700,0.59408549,0.0010556
 5,0.00160806,-0.00081561,0.00185851,-0.00261359,0.00342674,-0.00286753
 ,0.00254391,-0.00780861,0.00162586,-0.00044679,0.00096675,-0.01023216,
 -0.01468611,-0.03814712,0.01026844,-0.00113462,0.00081958,0.00106092,0
 .00037172,0.00355135,0.00019144,-0.00404322,-0.01536904,-0.05316959,-0
 .00120445,-0.00638516,-0.00018411,-0.00832341,-0.04983325,-0.02596063,
 0.01456278,0.06680619,-0.00026660,0.00179622,-0.00083326,0.00101462,0.
 00203553,0.00120168,-0.00057380,-0.00509434,-0.01210806,-0.00094360,-0
 .00234176,0.00185758,-0.04288241,-0.07565683,-0.49208163,0.04328216,0.
 07692106,0.50079747,-0.07584184,0.00799320,0.00042932,-0.06213673,0.02
 127370,-0.00565406,-0.08864478,-0.03338024,0.03297604,-0.00572431,-0.0
 0390635,0.00203205,-0.00678165,-0.00992802,0.00091337,0.00191694,-0.00
 086896,-0.00017925,0.45955404,0.13644471,0.00306638,-0.00083104,-0.002
 90778,-0.04510383,0.00584703,-0.03378559,-0.04502345,-0.00873327,0.003
 37208,0.00421453,-0.00099344,-0.02174055,-0.03285416,0.00679482,-0.003
 21484,0.00088872,0.00188256,0.04370581,0.22948272,-0.02106193,-0.00596
 294,0.00533916,-0.02082109,0.01177241,0.00723752,0.02925816,0.00225141
 ,-0.10347589,0.02613354,0.01114979,-0.01180728,-0.00567646,-0.00040669
 ,0.00700573,-0.00196351,-0.00032994,0.00113270,0.01577319,0.06037588,0
 .47953637,0.08546582,0.01799652,-0.00426532,-0.03235517,-0.06475525,0.
 00928444,-0.02261328,0.01541715,-0.00987729,0.00209412,-0.00079980,0.0
 0145603,0.00772885,0.00029966,-0.00006339,-0.00237658,0.00088897,-0.00
 035534,0.04730598,-0.10683388,0.01650982,-0.06821948,-0.06406031,-0.04
 114466,0.00060780,-0.01557297,0.02233209,-0.00107558,-0.00091194,-0.03
 364241,0.01227554,0.00028146,0.00117760,-0.00108677,-0.00589791,-0.000
 74335,0.00104375,0.00100930,-0.00055952,0.00025628,-0.02305791,0.01808
 122,-0.01115843,0.10276773,0.04976197,0.01063138,-0.00250738,-0.015261
 34,-0.00416575,-0.00290999,0.00334312,0.00062269,0.01266265,0.00038359
 ,-0.00033541,0.00034672,-0.00054336,0.00185733,0.00010003,-0.00064456,
 -0.00015599,-0.00010280,0.00001245,-0.00062222,-0.00331925,-0.02533624
 ,-0.00792288,-0.00013277,0.04591301,0.00348345,-0.00068708,0.00006844,
 -0.00560996,-0.00050244,0.00059585,-0.01972566,-0.00019565,-0.01630809
 ,0.00080448,0.00020309,-0.00101428,0.00012127,-0.00049976,0.00044877,-
 0.00040312,0.00013135,0.00026759,-0.14873206,-0.01691258,-0.05833376,-
 0.01102759,0.00163361,-0.00500509,0.50887111,-0.01276229,-0.00630111,-
 0.00027445,0.00126631,0.01144799,-0.00210189,-0.01069204,-0.00124273,-
 0.00459199,0.00085841,0.00038279,-0.00120160,-0.00041253,0.00057676,0.
 00034876,0.00054243,-0.00020687,-0.00036636,-0.01311921,-0.05939108,-0
 .01045645,0.01933065,-0.00511635,0.00915472,0.01041403,0.52117932,0.00
 376679,0.00049371,0.00007964,0.00687496,-0.00168742,0.00088355,0.00216
 465,-0.00246581,0.00914647,0.00139859,0.00085594,0.00088298,0.00111400
 ,0.00199290,-0.00033969,-0.00002457,-0.00013097,-0.00028923,-0.0565327
 4,-0.01363755,-0.13453898,-0.00794322,0.00324461,-0.00281569,-0.054372
 99,0.00874560,0.52925729,-0.00129515,-0.00038376,0.00001081,-0.0018729
 1,0.00072105,-0.00025596,0.00007755,0.00077600,-0.00388477,0.00036474,
 0.00014710,-0.00013801,-0.00062121,-0.00101890,-0.00003936,0.00000308,
 0.00000667,0.00009485,-0.02196051,-0.01198429,0.00952825,0.00140911,-0
 .00100056,0.00036769,-0.18762432,-0.10614383,0.07762084,0.20735940,0.0
 0013606,0.00019411,0.00002824,-0.00008316,-0.00034455,0.00011320,0.000
 49774,0.00111243,-0.00067331,0.00002452,-0.00006169,0.00014697,0.00017
 391,0.00010534,0.00005719,-0.00003890,0.00006789,0.00006530,-0.0000968
 6,-0.00175010,0.00135517,-0.00023882,0.00040963,-0.00024121,-0.1070293
 6,-0.12176993,0.05410204,0.11638644,0.12949506,-0.00097739,-0.00039372
 ,-0.00000190,-0.00091079,0.00105366,0.00029494,-0.00128872,0.00070470,
 -0.00350328,-0.00027620,0.00000216,0.00036993,-0.00014889,-0.00062361,
 0.00044329,0.00002772,0.00009645,0.00009232,-0.01676398,-0.01250455,0.
 00961547,0.00060488,-0.00043560,0.00025383,0.07761023,0.05427979,-0.08
 973374,-0.08215192,-0.06149552,0.09440700,0.00209318,0.00207345,0.0003
 4514,-0.00105021,-0.00342486,0.00075838,0.00087522,0.00183166,-0.00176
 945,-0.00021313,0.00002283,0.00047542,0.00020825,-0.00142722,0.0002133
 7,-0.00012739,0.00007916,0.00002504,-0.01446348,0.02050121,-0.00815757
 ,-0.00184380,-0.00001859,-0.00218488,-0.07511430,0.08483762,-0.0207170
 2,0.00949486,-0.02186029,0.00573331,0.08377131,0.00186062,0.00031146,-
 0.00007840,-0.00007812,-0.00100396,0.00015216,-0.00048261,-0.00028438,
 0.00029846,0.00009935,-0.00002199,-0.00001018,0.00022158,0.00035918,-0
 .00004055,-0.00006816,-0.00001429,0.00001255,0.00239063,0.00348305,0.0
 0134047,-0.00220928,0.00201679,-0.00020174,0.07883584,-0.24347437,0.04
 981083,0.00633360,-0.01618526,0.00369123,-0.09144138,0.26705115,0.0007
 8360,0.00164691,0.00017683,-0.00069301,-0.00215546,0.00024501,0.000036
 05,0.00097539,-0.00052860,-0.00005935,-0.00017004,0.00006221,0.0001944
 9,-0.00082017,0.00004461,-0.00021110,0.00011966,0.00002921,-0.00995432
 ,0.01831870,-0.00722877,-0.00124780,-0.00044477,-0.00124130,-0.0211407
 0,0.05479866,-0.05763419,-0.00475812,0.01189046,-0.00353992,0.02667842
 ,-0.05860292,0.06159021,-0.00028887,0.00005904,0.00038225,0.00091589,0
 .00013901,0.00025683,0.00061152,-0.00050445,-0.00155262,-0.00035495,-0
 .00002737,0.00053487,0.00012047,0.00030237,0.00034631,-0.00000094,0.00
 007611,-0.00004671,0.00950723,-0.01171148,-0.02167637,0.00049686,-0.00
 011011,-0.00023709,-0.07482909,0.03473719,0.07057665,-0.00709754,0.011
 95683,0.01849558,-0.00432386,0.00445281,0.01008000,0.07893000,0.000395
 49,0.00053284,-0.00013810,0.00022057,-0.00082924,0.00056042,0.00046358
 ,0.00006780,-0.00168506,-0.00052234,-0.00006783,0.00051310,-0.00014159
 ,-0.00009382,0.00036666,0.00002028,0.00009486,0.00005245,0.00128636,-0
 .00273700,0.00009123,-0.00057575,0.00077123,0.00027026,0.03369858,-0.0
 9694907,-0.09821059,-0.00464536,0.00867096,0.01579800,0.00922730,-0.01
 281161,-0.02478340,-0.03909667,0.10169084,-0.00047839,0.00065789,0.000
 34838,-0.00003606,-0.00006870,0.00038906,0.00100536,0.00062147,-0.0001
 6103,-0.00063067,-0.00031567,0.00069964,0.00006113,0.00016903,0.000455
 15,0.00024215,0.00016761,-0.00004974,0.00603818,-0.00839325,-0.0200612
 1,0.00083095,-0.00047867,-0.00034948,0.06961559,-0.09709796,-0.2294222
 5,0.00322244,-0.00501130,-0.00963622,-0.00233770,0.00324563,0.00706089
 ,-0.07328599,0.10727018,0.25246843,0.00436365,0.00253305,-0.00062983,-
 0.00008706,-0.00327406,-0.00051054,-0.00717712,0.00920272,0.02645770,-
 0.00345563,-0.00206115,0.00120974,-0.00004156,0.00176622,0.00000768,0.
 00050697,-0.00120666,0.00064956,-0.08987986,0.00088957,0.02853481,-0.0
 0738587,0.00528932,0.00620837,0.00960973,-0.01011458,-0.02418976,0.000
 84768,0.00016591,-0.00011501,0.00036384,0.00017100,0.00042991,-0.00400
 332,-0.00069724,-0.00466431,0.56328675,-0.01497948,-0.00682879,-0.0013
 4749,0.00077446,0.01148847,0.00083153,-0.00281333,0.00413646,0.0159364
 0,-0.00326747,-0.00072582,0.00103569,0.00084412,0.00231971,0.00020331,
 0.00008317,0.00042857,-0.00068562,0.00211546,-0.06651085,-0.04232935,0
 .02043817,-0.01514342,-0.01118656,-0.00061975,-0.00032126,-0.00206135,
 0.00031047,-0.00015904,-0.00059079,0.00046531,0.00033499,0.00022756,-0
 .00010727,0.00094367,-0.00002585,0.02219585,0.51310561,0.00204637,0.00
 321634,0.00033209,-0.00219871,-0.00451902,-0.00085149,0.01143431,0.002
 23781,-0.01257619,0.00009780,-0.00001791,0.00106780,-0.00020727,-0.003
 41136,-0.00077875,-0.00003677,-0.00011649,0.00121982,0.02162010,-0.036
 13994,-0.17376876,0.00154019,-0.00105678,-0.00187926,0.00306232,-0.010
 14396,-0.02382975,0.00123406,0.00031093,0.00122406,0.00116933,0.000034
 96,0.00131978,-0.00247014,-0.00009859,-0.00125129,0.02434535,-0.027150
 89,0.48166506,-0.00078843,-0.00024715,-0.00007364,-0.00021404,0.000490
 65,0.00020081,0.00156512,0.00065674,0.00145547,-0.00046289,-0.00014099
 ,0.00019955,0.00025678,0.00008830,-0.00019662,0.00013519,0.00050475,-0
 .00033823,-0.00819615,-0.00230713,0.00505576,0.00096870,-0.00081637,0.
 00015735,0.00022320,0.00041307,-0.00088820,0.00057218,-0.00009604,-0.0
 0003395,0.00008403,-0.00002410,-0.00016706,0.00001981,0.00016618,-0.00
 006020,-0.17626918,-0.11300369,0.06920079,0.19016834,0.00044563,0.0003
 8628,0.00027394,-0.00018950,-0.00036856,-0.00017927,0.00035501,-0.0016
 5176,-0.00307656,0.00060276,0.00030273,-0.00016299,-0.00060153,0.00070
 428,0.00073223,0.00066753,-0.00000008,0.00012292,0.00978926,0.00584667
 ,-0.00556558,-0.00036523,0.00087893,-0.00008596,0.00028672,0.00018235,
 0.00033123,-0.00001718,0.00019859,0.00018559,-0.00012537,-0.00005974,0
 .00007740,0.00020755,0.00005414,0.00006772,-0.11301704,-0.13776080,0.0
 6157596,0.12212709,0.14950163,0.00148498,0.00025827,0.00017067,-0.0004
 4082,-0.00102602,0.00066687,-0.00110516,-0.00286035,-0.00565747,0.0015
 1107,0.00063231,-0.00046145,-0.00050053,-0.00020259,0.00064399,0.00002
 747,0.00025532,-0.00012509,0.02332046,0.01722538,-0.01222412,-0.001079
 94,0.00095088,0.00017010,0.00059526,0.00099043,0.00110894,-0.00085133,
 -0.00052692,-0.00035024,-0.00006080,-0.00009994,-0.00000032,-0.0001655
 6,-0.00030284,0.00049493,0.06961902,0.06099482,-0.08482627,-0.07945399
 ,-0.06442047,0.09267618,-0.00010989,-0.00017792,0.00034522,0.00011963,
 0.00055766,0.00018895,-0.00016519,-0.00168989,-0.00044154,0.00018486,0
 .00033719,-0.00016597,-0.00023937,0.00029252,0.00049775,0.00032663,0.0
 0008787,-0.00002790,0.00958580,-0.00094260,0.00379520,-0.00000183,0.00
 023463,-0.00007376,-0.00004230,0.00074394,0.00156478,0.00022174,0.0002
 5432,0.00016054,-0.00009192,0.00001636,0.00000861,0.00036468,0.0002626
 9,0.00035947,-0.21270082,0.00199480,-0.12457792,-0.01698342,0.00154788
 ,-0.01316569,0.22854725,0.00015945,-0.00061412,0.00035584,0.00051742,-
 0.00002567,-0.00001792,0.00046973,0.00069431,0.00022413,-0.00003339,-0
 .00014534,0.00000257,-0.00012643,-0.00049770,-0.00011323,-0.00057963,-
 0.00028059,0.00072250,-0.00953167,-0.00224466,-0.00704710,-0.00086846,
 0.00041982,-0.00048902,0.00112242,0.00023412,-0.00193045,0.00045571,0.
 00014870,0.00023980,-0.00029280,0.00016429,-0.00042442,-0.00029523,0.0
 0037034,-0.00066639,0.00323437,-0.04698604,0.00458236,-0.01518065,0.00
 029531,-0.01294605,-0.00309291,0.04770618,-0.00049061,-0.00160129,0.00
 039393,0.00051981,0.00168193,0.00093183,-0.00119917,-0.00029613,-0.000
 24545,-0.00011888,-0.00012261,0.00019637,0.00028511,0.00048190,0.00065
 896,0.00049030,0.00103369,-0.00081976,-0.02568077,0.00091599,-0.018328
 23,-0.00018046,-0.00018615,0.00004917,0.00369164,-0.00249244,-0.004522
 92,0.00006295,-0.00006671,0.00021633,0.00021569,0.00020572,0.00024746,
 -0.00138113,-0.00018176,-0.00115352,-0.12350397,0.00224592,-0.14330462
 ,0.01011368,-0.00121247,0.00840055,0.13724078,-0.00099387,0.15799504,0
 .00035774,-0.00006215,0.00025519,-0.00028676,-0.00069703,-0.00008632,0
 .00138569,0.00259918,0.00009901,-0.00015102,-0.00024441,0.00006945,0.0
 0056119,-0.00169821,-0.00095125,-0.00168955,0.00007193,0.00028002,-0.0
 0550861,0.00742735,0.00310196,0.00035417,0.00023062,0.00085825,-0.0000
 0485,0.00010082,-0.00041277,0.00012131,-0.00015232,0.00003460,0.000337
 42,-0.00007813,0.00002039,-0.00006791,-0.00006209,0.00011805,-0.077978
 19,0.08556916,-0.00625982,0.00892076,-0.02171358,0.00026556,-0.0090158
 5,0.02404207,-0.00006497,0.08266445,-0.00016901,-0.00103235,0.00037122
 ,0.00019742,0.00147495,-0.00031982,-0.00046906,-0.00224621,0.00031319,
 0.00009035,0.00009133,-0.00011757,-0.00128641,0.00119588,0.00073199,0.
 00061057,-0.00000836,0.00027754,0.00533479,-0.00944815,-0.00507989,-0.
 00049238,0.00050045,-0.00135770,0.00012097,0.00076945,0.00054727,0.000
 05684,-0.00013215,-0.00000759,-0.00044804,0.00013470,-0.00065358,-0.00
 007834,0.00029188,-0.00014174,0.08492273,-0.25832147,0.01069659,0.0073
 6933,-0.01850995,0.00107776,-0.00042653,0.00076104,0.00058827,-0.09533
 322,0.28447898,-0.00301227,-0.00279947,-0.00003787,0.00045917,0.004204
 58,0.00030644,-0.00071985,-0.00225976,0.00041724,-0.00005440,0.0001631
 1,-0.00016455,-0.00022373,0.00178589,0.00053520,0.00069999,0.00014840,
 -0.00003646,0.01228464,-0.02680807,-0.00309746,0.00270932,-0.00232334,
 -0.00205404,0.00021922,0.00040915,0.00176757,-0.00006242,-0.00005454,-
 0.00015187,-0.00038667,0.00024172,-0.00060310,0.00014312,0.00047804,0.
 00016825,-0.00384874,0.00390265,-0.04376225,-0.00517153,0.01133633,-0.
 00068725,-0.00570851,0.01850126,-0.00071513,0.00267265,-0.00692594,0.0
 4811528\\-0.00000155,0.00000034,0.00000744,-0.00000025,-0.00000111,0.0
 0000494,0.00000115,0.00000071,0.00000232,0.00000442,0.00000072,0.00000
 285,-0.00000561,-0.00000480,-0.00001679,0.00000468,0.00000223,0.000017
 06,-0.00000779,0.00001186,-0.00000080,0.00001057,-0.00001586,0.0000015
 6,0.00000120,0.00000246,-0.00000217,0.00000017,-0.00000037,-0.00000291
 ,0.00000296,-0.00000064,-0.00000499,0.00000404,-0.00000276,-0.00000174
 ,-0.00000514,0.00000369,-0.00000308,-0.00000293,0.00000099,-0.00000147
 ,-0.00000283,0.00000159,0.00000150,-0.00000307,0.00000097,-0.00000373\
 \\@


 MICHAEL FARADAY, ASKED BY A POLITICIAN WHAT GOOD
 HIS ELECTRICAL DISCOVERIES WERE, REPLIED 
 "AT PRESENT I DO NOT KNOW, BUT ONE DAY YOU WILL BE
 ABLE TO TAX THEM."
 Job cpu time:  0 days  1 hours  9 minutes 31.4 seconds.
 File lengths (MBytes):  RWF=    125 Int=      0 D2E=      0 Chk=      8 Scr=      1
 Normal termination of Gaussian 03 at Tue Jul 15 22:54:12 2014.
