
 Primary working directories    : /scratch/nyee/390344
 Secondary working directories  : /scratch/nyee/390344
 Wavefunction directory         : /home/nyee/wfu/
 Main file repository           : /scratch/nyee/390344/

 ARCHNAME  : Linux/x86_64
 FC        : /opt/intel/Compiler/11.0/074/bin/intel64/ifort
 FCVERSION : 11.0
 BLASLIB   : -L/opt/intel/Compiler/11.0/074/mkl/lib/em64t -lmkl_intel_ilp64 -lmkl_sequential -lmkl_core
 id        : mitsand

 Nodes     nprocs
 node03       2
 ga_uses_ma=false, calling ma_init with nominal heap.
 GA-space will be limited to   8.0 MW (determined by -G option)

 Using customized tuning parameters: mindgm=16; mindgv=16; mindgc=16; mindgr=1; noblas=0; mincuda=1000; minvec=7
 default implementation of scratch files=sf  

 geometry = {angstrom
  O
  H                  1              B1
  O                  1              B2    2              A1
 }
  
       B1 =           0.96000000
       B2 =           1.32000000
       A1 =         109.50000006
  
 memory,3000,M
 basis = vtz-f12
 hf
 uccsd(t)-f12,scale_trip=1

 Variables initialized (665), CPU time= 0.01 sec
 Commands  initialized (462), CPU time= 0.01 sec, 486 directives.
 Default parameters read. Elapsed time= 0.12 sec

 Checking input...
 Passed
1


                                         ***  PROGRAM SYSTEM MOLPRO  ***
                         Copyright, University College Cardiff Consultants Limited, 2008

                                    Version 2010.1 linked 7 Mar 2011 15:11:57 


 **********************************************************************************************************************************
 LABEL *                                                                                 
 Linux-3.2.0-72-generic/node03(x86_64) 64 bit mpp version                                DATE: 15-Jun-15          TIME: 18:39:30  
 **********************************************************************************************************************************

 Patch level:      19
 **********************************************************************************************************************************
 SETTING B1             =         0.96000000                                  
 SETTING B2             =         1.32000000                                  
 SETTING A1             =       109.50000006                                  

 Variable memory set to 3000000000 words,  buffer space   230000 words

 SETTING BASIS          =    VTZ-F12


 Recomputing integrals since basis changed


 Using spherical harmonics

 Library entry O      S cc-pVTZ-F12          selected for orbital group  1
 Library entry O      P cc-pVTZ-F12          selected for orbital group  1
 Library entry O      D cc-pVTZ-F12          selected for orbital group  1
 Library entry O      F cc-pVTZ-F12          selected for orbital group  1
 Library entry H      S cc-pVTZ-F12          selected for orbital group  2
 Library entry H      P cc-pVTZ-F12          selected for orbital group  2
 Library entry H      D cc-pVTZ-F12          selected for orbital group  2

1PROGRAM * SEWARD (Integral evaluation for generally contracted gaussian basis sets)     Author: Roland Lindh, 1990

 Geometry written to block  1 of record 700

 Orientation using atomic masses  
 Molecule type: Asymmetric top
 Symmetry elements: Y
 Rotational constants:      33.8471672     32.2344669    676.5332928 GHz  (calculated with average atomic masses)

 Point group  Cs  



 ATOMIC COORDINATES

 NR  ATOM    CHARGE       X              Y              Z

   1  O       8.00   -0.125036026    0.000000000   -1.185207279
   2  H       1.00    1.544751261    0.000000000   -1.894364373
   3  O       8.00    0.027718840    0.000000000    1.304549606

 Bond lengths in Bohr (Angstrom)

 1-2  1.814137086  1-3  2.494438493
     (0.960000000)     (1.320000000)

 Bond angles

  2-1-3  109.50000006

 NUCLEAR CHARGE:                   17
 NUMBER OF PRIMITIVE AOS:         165
 NUMBER OF SYMMETRY AOS:          146
 NUMBER OF CONTRACTIONS:          124   (  83A'  +  41A"  )
 NUMBER OF CORE ORBITALS:           2   (   2A'  +   0A"  )
 NUMBER OF VALENCE ORBITALS:        9   (   7A'  +   2A"  )


 NUCLEAR REPULSION ENERGY   32.32651803


 Eigenvalues of metric

         1 0.263E-03 0.451E-03 0.563E-03 0.629E-03 0.694E-03 0.701E-03 0.742E-03 0.124E-02
         2 0.691E-03 0.709E-03 0.878E-02 0.120E-01 0.380E-01 0.608E-01 0.768E-01 0.104E+00


 Contracted 2-electron integrals neglected if value below      1.0D-11
 AO integral compression algorithm  1   Integral accuracy      1.0D-11

     85.197 MB (compressed) written to integral file ( 53.1%)

     Node minimum: 42.467 MB, node maximum: 42.729 MB


 NUMBER OF SORTED TWO-ELECTRON INTEGRALS:    7722062.     BUFFER LENGTH:  32768
 NUMBER OF SEGMENTS:   1  SEGMENT LENGTH:    7722062      RECORD LENGTH: 524288

 Memory used in sort:       8.28 MW

 SORT1 READ    20035258. AND WROTE     7294479. INTEGRALS IN     21 RECORDS. CPU TIME:     0.52 SEC, REAL TIME:     0.70 SEC
 SORT2 READ    14597400. AND WROTE    15453270. INTEGRALS IN    326 RECORDS. CPU TIME:     0.31 SEC, REAL TIME:     0.52 SEC

 Node minimum:     7722062.  Node maximum:     7731208. integrals

 OPERATOR DM      FOR CENTER  0  COORDINATES:    0.000000    0.000000    0.000000


 **********************************************************************************************************************************
 DATASETS  * FILE   NREC   LENGTH (MB)   RECORD NAMES
              1      18        2.91       500      610      700      900      950      970     1000      129      960     1100   
                                          VAR    BASINP    GEOM    SYMINP    ZMAT    AOBASIS   BASIS     P2S    ABASIS      S 
                                         1400     1410     1200     1210     1080     1600     1650     1700   
                                           T        V       H0       H01     AOSYM     SMH    MOLCAS    OPER   

 PROGRAMS   *        TOTAL       INT
 CPU TIMES  *         2.25      2.15
 REAL TIME  *         2.88 SEC
 DISK USED  *       253.39 MB      
 GA USED    *         0.00 MB       (max)       0.00 MB       (current)
 **********************************************************************************************************************************

1PROGRAM * RHF-SCF (OPEN SHELL)       Authors: W. Meyer, H.-J. Werner


 NUMBER OF ELECTRONS:       9+    8-
 CONVERGENCE THRESHOLDS:    1.00E-05 (Density)    1.00E-07 (Energy)
 MAX. NUMBER OF ITERATIONS:       60
 INTERPOLATION TYPE:            DIIS
 INTERPOLATION STEPS:              2 (START)      1 (STEP)
 LEVEL SHIFTS:                 -0.30 (CLOSED)  0.00 (OPEN) 



 Orbital guess generated from atomic densities. Full valence occupancy:    9   2

 Molecular orbital dump at record        2100.2

 Initial alpha occupancy:   7   2
 Initial beta  occupancy:   7   1
 Wave function symmetry:    2

 ITERATION    DDIFF          GRAD             ENERGY        2-EL.EN.            DIPOLE MOMENTS         DIIS
    1      0.000D+00      0.000D+00      -150.18125187    175.969662    0.81037    0.00000   -1.24433    0
    2      0.000D+00      0.659D-02      -150.21944477    177.865637    0.71138    0.00000   -0.46792    1
    3      0.789D-02      0.444D-02      -150.23341010    177.509655    0.66433    0.00000   -0.63031    2
    4      0.380D-02      0.879D-03      -150.23834234    177.491361    0.66186    0.00000   -0.45781    3
    5      0.171D-02      0.104D-02      -150.24101702    177.546518    0.65533    0.00000   -0.41937    4
    6      0.111D-02      0.544D-03      -150.24196671    177.539037    0.65131    0.00000   -0.40871    5
    7      0.924D-03      0.159D-03      -150.24203953    177.553401    0.65087    0.00000   -0.41885    6
    8      0.322D-03      0.447D-04      -150.24204898    177.548175    0.65052    0.00000   -0.41510    7
    9      0.133D-03      0.325D-04      -150.24205086    177.550060    0.65029    0.00000   -0.42039    8
   10      0.568D-04      0.102D-04      -150.24205123    177.549932    0.65026    0.00000   -0.41954    9
   11      0.266D-04      0.243D-05      -150.24205125    177.549982    0.65023    0.00000   -0.41987    9
   12      0.489D-05      0.124D-05      -150.24205126    177.549976    0.65023    0.00000   -0.41982    0

 Final alpha occupancy:   7   2
 Final beta  occupancy:   7   1

 !RHF STATE 1.2 Energy               -150.242051257237
 Nuclear energy                        32.32651803
 One-electron energy                 -271.34355742
 Two-electron energy                   88.77498813
 Virial quotient                       -1.00057268
 !RHF STATE 1.2 Dipole moment           0.65022719     0.00000000    -0.41982443
 Dipole moment /Debye                   1.65260443     0.00000000    -1.06701736

 Orbital energies:

         1.1          2.1          3.1          4.1          5.1          6.1          7.1          8.1          9.1
    -20.670283   -20.662611    -1.545861    -1.160798    -0.766384    -0.665875    -0.503954     0.082562     0.111571

         1.2          2.2          3.2          4.2
     -0.626387    -0.589274     0.133964     0.176878


 **********************************************************************************************************************************
 DATASETS  * FILE   NREC   LENGTH (MB)   RECORD NAMES
              1      18        2.91       500      610      700      900      950      970     1000      129      960     1100   
                                          VAR    BASINP    GEOM    SYMINP    ZMAT    AOBASIS   BASIS     P2S    ABASIS      S 
                                         1400     1410     1200     1210     1080     1600     1650     1700   
                                           T        V       H0       H01     AOSYM     SMH    MOLCAS    OPER   

              2       3        0.53       700     1000     2100   
                                         GEOM     BASIS     RHF  

 PROGRAMS   *        TOTAL        HF       INT
 CPU TIMES  *         3.53      1.29      2.15
 REAL TIME  *         4.39 SEC
 DISK USED  *       262.59 MB      
 SF USED    *         0.03 MB      
 GA USED    *         0.00 MB       (max)       0.00 MB       (current)
 **********************************************************************************************************************************


1PROGRAM * CCSD (Unrestricted open-shell coupled cluster)     Authors: C. Hampel, H.-J. Werner, 1991, M. Deegan, P.J. Knowles, 1992

                           UCCSD-F12 implementation by G. Knizia and H.-J. Werner, 2008

                   Density fitting integral evaluation by F.R. Manby, 2003,2007, G. Knizia, 2010

 Basis set CC-PVTZ/JKFIT generated.      Number of basis functions:   188 
 Basis set CC-PVTZ-F12/OPTRI generated.  Number of basis functions:   191 
 Basis set AUG-CC-PVTZ/MP2FIT generated. Number of basis functions:   258 

 Convergence thresholds:  THRVAR = 1.00D-08  THRDEN = 1.00D-06

 CCSD(T)     terms to be evaluated (factor= 1.000)


 Number of core orbitals:           2 (   2   0 )
 Number of closed-shell orbitals:   6 (   5   1 )
 Number of active  orbitals:        1 (   0   1 )
 Number of external orbitals:     115 (  76  39 )

 Memory could be reduced to 12.42 Mwords without degradation in triples

 Number of N-1 electron functions:              13
 Number of N-2 electron functions:              78
 Number of singly external CSFs:               880
 Number of doubly external CSFs:            412182
 Total number of CSFs:                      413062

 Molecular orbitals read from record     2100.2  Type=RHF/CANONICAL (state 1.2)

 Integral transformation finished. Total CPU:   0.82 sec, npass=  1  Memory used:   2.50 MW
 
 Geminal basis:    OPTFULL  GEM_TYPE=SLATER  BETA=1.0  NGEM=6

 Optimizing Gaussian exponents for each gem_beta

 Geminal optimization for beta= 1.0000
 Weight function:   m=0, omega= 1.4646

 Augmented Hessian optimization of geminal fit. Trust ratio= 0.40000
 Convergence reached after   2 iterations. Final gradient= 8.43D-16, Step= 4.27D-06, Delta= 1.28D-09
 
 Alpha:                 0.19532     0.81920     2.85917     9.50073    35.69989   197.79328
 Coeff:                 0.27070     0.30552     0.18297     0.10986     0.06810     0.04224
 
 
 WFN_F12=FIX,EG    DECOUPLE_EXPL=F   HYBRID=0    NOX=F   SEMIINT_F12=T   CORE_SINGLES=F
 
 AO(A)-basis ORBITAL           loaded. Number of functions:     124
 RI(R)-basis CC-PVTZ-F12/OPTRI loaded. Number of functions:     191
 DF-basis CC-PVTZ/JKFIT        loaded. Number of functions:     188

 Screening thresholds:   THRAO=  1.00D-10  THRMO=  1.00D-09  THRPROD=  1.00D-09
                         THRSW=  1.00D-05  THROV=  1.00D-12  THRF12=   1.00D-08

 CPU time for one-electron matrices               0.60 sec
 
 Construction of ABS:
 Pseudo-inverse stability          1.71E-11
 Smallest eigenvalue of S          7.42E-04  (threshold= 1.00E-08)
 Ratio eigmin/eigmax               4.10E-06  (threshold= 1.00E-09)
 Smallest eigenvalue of S kept     7.42E-04  (threshold= 7.42E-04, 0 functions deleted, 191 kept)
 
 Construction of CABS:
 Pseudo-inverse stability          3.23E-10
 Smallest eigenvalue of S          2.15E-06  (threshold= 1.00E-08)
 Ratio eigmin/eigmax               2.15E-06  (threshold= 1.00E-09)
 Smallest eigenvalue of S kept     2.15E-06  (threshold= 2.15E-06, 0 functions deleted, 191 kept)
 
 CPU time for basis constructions                 0.07 sec
 Fock operators(MO) rebuilt from dump record.
 CPU time for fock operators                      0.09 sec
 
                                      TOTAL          ALPHA          BETA    
  Singles Contributions MO        -0.004466360   -0.002228111   -0.002238249
  Singles Contributions CABS      -0.001497784   -0.000817140   -0.000680644
  Pure DF-RHF relaxation          -0.001475112
 
 CPU time for singles                             0.27 sec
 
 AO(A)-basis ORBITAL           loaded. Number of functions:     124
 RI(R)-basis CC-PVTZ-F12/OPTRI loaded. Number of functions:     191
 DF-basis AUG-CC-PVTZ/MP2FIT   loaded. Number of functions:     258

 Screening thresholds:   THRAO=  1.00D-10  THRMO=  1.00D-09  THRPROD=  1.00D-09
                         THRSW=  1.00D-05  THROV=  1.00D-12  THRF12=   1.00D-08

 CPU time for transformed integrals               3.76 sec
 CPU time for F12 matrices                        0.48 sec

 Diagonal F12 ansatz with fixed amplitudes:   TS= 0.5000  TT= 0.2500  TN= 0.3750
 
 ITER.     SQ.NORM      CORR.ENERGY   TOTAL ENERGY  ENERGY CHANGE      VAR         CPU   MICRO    DIIS
   1      1.10983068    -0.51563676  -150.75916313    -5.1711E-01   1.08E-01      0.02  1  1  1   0  0
   2      1.10944136    -0.51478113  -150.75830750     8.5562E-04   1.15E-04      0.07  0  0  0   1  1
   3      1.10970718    -0.51511732  -150.75864369    -3.3619E-04   9.40E-07      0.16  0  0  0   2  2
   4      1.10971058    -0.51511936  -150.75864573    -2.0439E-06   5.02E-09      0.24  0  0  0   3  3
   5      1.10971128    -0.51511938  -150.75864575    -1.1377E-08   4.85E-11      0.34  0  0  0   4  4
 
 --- Continuing with F12/conv. amplitude coupling turned on.
 
   6      1.10967332    -0.51523973  -150.75876610    -1.2036E-04   4.41E-05      0.42  1  1  1   1  1
   7      1.10967224    -0.51524012  -150.75876649    -3.9114E-07   3.08E-09      0.51  1  1  1   2  2
 
 CPU time for iterative RMP2-F12                  0.51 sec
 
 
 DF-RMP2-F12 doubles corrections:
 --------------------------------
  Approx.                             TOTAL           A-B            A-A            B-B    
  RMP2-F12/3C(FIX)                -0.044835504   -0.041174237   -0.002180726   -0.001480541
  RMP2-F12/3*C(FIX)               -0.044714761   -0.041206201   -0.002095916   -0.001412644
  RMP2-F12/3*C(DX)                -0.045036539   -0.041490767   -0.002119114   -0.001426658
  RMP2-F12/3*C(FIX,DX)            -0.048805527   -0.044906323   -0.002334787   -0.001564417
 
 DF-RMP2-F12 doubles energies:
 -----------------------------
  Approx.                             TOTAL           A-B            A-A            B-B    
  RMP2                            -0.465938255   -0.348699078   -0.063544008   -0.053695170
  RMP2-F12/3C(FIX)                -0.510773759   -0.389873315   -0.065724734   -0.055175710
  RMP2-F12/3*C(FIX)               -0.510653016   -0.389905279   -0.065639924   -0.055107813
  RMP2-F12/3*C(DX)                -0.510974794   -0.390189845   -0.065663121   -0.055121828
  RMP2-F12/3*C(FIX,DX)            -0.514743782   -0.393605401   -0.065878794   -0.055259586
 
 
  Reference energy                   -150.242051257237
  CABS relaxation correction to RHF    -0.001475112290
  New reference energy               -150.243526369526
 
  RMP2-F12 singles (MO) energy         -0.004466359978
  RMP2-F12 pair energy                 -0.510773758718
  RMP2-F12 correlation energy          -0.515240118696
 
  RMP2-F12/3C(FIX) energy            -150.758766488222

 Starting RMP2 calculation

 ITER.      SQ.NORM     CORR.ENERGY   TOTAL ENERGY   ENERGY CHANGE        DEN1      VAR(S)    VAR(P)  DIIS     TIME
   1      1.10870642    -0.46921644  -150.71126770    -0.46921644    -0.00113506  0.26D-04  0.37D-03  1  1     6.94
   2      1.10966952    -0.47043663  -150.71248788    -0.00122018    -0.00000402  0.79D-06  0.13D-05  2  2     7.01
   3      1.10971173    -0.47046420  -150.71251546    -0.00002758    -0.00000005  0.33D-07  0.78D-08  3  3     7.10
   4      1.10971398    -0.47046488  -150.71251614    -0.00000068     0.00000000  0.78D-09  0.97D-10  4  4     7.20

 Norm of t1 vector:      0.04599434      S-energy:    -0.00446622      T1 diagnostic:  0.00108004
 Norm of t2 vector:      0.32802210      P-energy:    -0.46599866
                                         Alpha-Beta:  -0.34883654
                                         Alpha-Alpha: -0.06349869
                                         Beta-Beta:   -0.05366343

 Spin contamination <S**2-Sz**2-Sz>     0.00382747
  Reference energy                   -150.243526369526
  RHF-RMP2 correlation energy          -0.470464883406
 !RHF-RMP2 energy                    -150.713991252932

 Starting UCCSD calculation

 ITER.      SQ.NORM     CORR.ENERGY   TOTAL ENERGY   ENERGY CHANGE        DEN1      VAR(S)    VAR(P)  DIIS     TIME
   1      1.10731695    -0.45890465  -150.70095590    -0.45890465    -0.01431275  0.44D-02  0.17D-02  1  1     8.63
   2      1.11835346    -0.47033445  -150.71238570    -0.01142980    -0.00209236  0.53D-03  0.48D-03  2  2    10.05
   3      1.12731943    -0.47285510  -150.71490636    -0.00252066    -0.00072089  0.61D-03  0.55D-04  3  3    11.52
   4      1.13722228    -0.47531894  -150.71737019    -0.00246383    -0.00026755  0.21D-03  0.22D-04  4  4    12.99
   5      1.14874791    -0.47687627  -150.71892752    -0.00155733    -0.00006050  0.48D-04  0.48D-05  5  5    14.43
   6      1.15589322    -0.47750825  -150.71955950    -0.00063198    -0.00000633  0.26D-05  0.13D-05  6  6    15.88
   7      1.15724396    -0.47761422  -150.71966547    -0.00010597    -0.00000079  0.23D-06  0.21D-06  6  1    17.35
   8      1.15745435    -0.47763663  -150.71968788    -0.00002241    -0.00000012  0.30D-07  0.38D-07  6  3    18.80
   9      1.15747135    -0.47762975  -150.71968101     0.00000687    -0.00000002  0.45D-08  0.54D-08  6  2    20.31
  10      1.15749795    -0.47763393  -150.71968519    -0.00000418     0.00000000  0.76D-09  0.86D-09  6  4    21.80
  11      1.15748936    -0.47763219  -150.71968344     0.00000175     0.00000000  0.19D-09  0.12D-09  6  5    23.25
  12      1.15748910    -0.47763216  -150.71968341     0.00000003     0.00000000  0.36D-10  0.18D-10  6  6    24.75

 Norm of t1 vector:      0.19432649      S-energy:    -0.00494657      T1 diagnostic:  0.03654129
                                                                       D1 diagnostic:  0.12547268
 Norm of t2 vector:      0.34601491      P-energy:    -0.47268559
                                         Alpha-Beta:  -0.36568082
                                         Alpha-Alpha: -0.05699652
                                         Beta-Beta:   -0.05000825

 Singles amplitudes (print threshold =  0.500E-01):

         I         SYM. A    A   T(IA) [Beta-Beta]

         6         2         1      0.17744517

 Spin contamination <S**2-Sz**2-Sz>     0.00354205

 Memory could be reduced to 13.16 Mwords without degradation in triples
 

  Ecorr(MP2)                           -0.470464883406
  Ecorr(MP2-F12)                       -0.515300387028
  Scale factor for triples energy       1.095300425607

 RESULTS
 =======

  Reference energy                   -150.242051257237
  CABS relaxation correction to RHF    -0.001475112290
  New reference energy               -150.243526369526
 
  F12 corrections for ansatz 3C(FIX) added to UCCSD energy. Coupling mode: 15
 
  UCCSD-F12a singles energy            -0.004946566364
  UCCSD-F12a pair energy               -0.516817504820
  UCCSD-F12a correlation energy        -0.521764071184
  Triples (T) contribution (scaled)    -0.020690667975
  Total correlation energy             -0.542454739159
 
  RHF-UCCSD-F12a energy              -150.765290440710
  RHF-UCCSD[T]-F12a energy           -150.788305768412
  RHF-UCCSD-T-F12a energy            -150.785711333442
 !RHF-UCCSD(T)-F12a energy           -150.785981108685
 
  F12 corrections for ansatz 3C(FIX) added to UCCSD energy. Coupling mode: 15
 
  UCCSD-F12b singles energy            -0.004946566364
  UCCSD-F12b pair energy               -0.509595579336
  UCCSD-F12b correlation energy        -0.514542145700
  Triples (T) contribution (scaled)    -0.020690667975
  Total correlation energy             -0.535232813675
 
  RHF-UCCSD-F12b energy              -150.758068515226
  RHF-UCCSD[T]-F12b energy           -150.781083842928
  RHF-UCCSD-T-F12b energy            -150.778489407958
 !RHF-UCCSD(T)-F12b energy           -150.778759183201

 Program statistics:

 Available memory in ccsd:              2999999438
 Min. memory needed in ccsd:               1344440
 Max. memory used in ccsd:                 1825346
 Max. memory used in cckext:               1692111 (13 integral passes)
 Max. memory used in cckint:               2498548 ( 1 integral passes)



 **********************************************************************************************************************************
 DATASETS  * FILE   NREC   LENGTH (MB)   RECORD NAMES
              1      19        2.93       500      610      700      900      950      970     1000      129      960     1100   
                                          VAR    BASINP    GEOM    SYMINP    ZMAT    AOBASIS   BASIS     P2S    ABASIS      S 
                                         1400     1410     1200     1210     1080     1600     1650     1700      960(1)
                                           T        V       H0       H01     AOSYM     SMH    MOLCAS    OPER    ABASIS    

              2       4        0.63       700     1000     2100     7360   
                                         GEOM     BASIS     RHF    F12ABS    

 PROGRAMS   *        TOTALUCCSD(T)-F        HF       INT
 CPU TIMES  *        47.89     44.35      1.29      2.15
 REAL TIME  *        53.44 SEC
 DISK USED  *       364.20 MB      
 SF USED    *       508.78 MB      
 GA USED    *         2.40 MB       (max)       0.00 MB       (current)
 **********************************************************************************************************************************

    UCCSD(T)-F12        HF-SCF  
   -150.77875918   -150.24205126
 **********************************************************************************************************************************
 Variable memory released
