 Entering Gaussian System, Link 0=g03
 Input=HO2-freq.com
 Output=HO2-freq.log
 Initial command:
 /home/g03/l1.exe /scratch/mrharper/Gau-30927.inp -scrdir=/scratch/mrharper/
 Entering Link 1 = /home/g03/l1.exe PID=     30929.
  
 Copyright (c) 1988,1990,1992,1993,1995,1998,2003,2004, Gaussian, Inc.
                  All Rights Reserved.
  
 This is the Gaussian(R) 03 program.  It is based on the
 the Gaussian(R) 98 system (copyright 1998, Gaussian, Inc.),
 the Gaussian(R) 94 system (copyright 1995, Gaussian, Inc.),
 the Gaussian 92(TM) system (copyright 1992, Gaussian, Inc.),
 the Gaussian 90(TM) system (copyright 1990, Gaussian, Inc.),
 the Gaussian 88(TM) system (copyright 1988, Gaussian, Inc.),
 the Gaussian 86(TM) system (copyright 1986, Carnegie Mellon
 University), and the Gaussian 82(TM) system (copyright 1983,
 Carnegie Mellon University). Gaussian is a federally registered
 trademark of Gaussian, Inc.
  
 This software contains proprietary and confidential information,
 including trade secrets, belonging to Gaussian, Inc.
  
 This software is provided under written license and may be
 used, copied, transmitted, or stored only in accord with that
 written license.
  
 The following legend is applicable only to US Government
 contracts under FAR:
  
                    RESTRICTED RIGHTS LEGEND
  
 Use, reproduction and disclosure by the US Government is
 subject to restrictions as set forth in subparagraphs (a)
 and (c) of the Commercial Computer Software - Restricted
 Rights clause in FAR 52.227-19.
  
 Gaussian, Inc.
 340 Quinnipiac St., Bldg. 40, Wallingford CT 06492
  
  
 ---------------------------------------------------------------
 Warning -- This program may not be used in any manner that
 competes with the business of Gaussian, Inc. or will provide
 assistance to any competitor of Gaussian, Inc.  The licensee
 of this program is prohibited from giving any competitor of
 Gaussian, Inc. access to this program.  By using this program,
 the user acknowledges that Gaussian, Inc. is engaged in the
 business of creating and licensing software in the field of
 computational chemistry and represents and warrants to the
 licensee that it is not a competitor of Gaussian, Inc. and that
 it will not use this program in any manner prohibited above.
 ---------------------------------------------------------------
  

 Cite this work as:
 Gaussian 03, Revision D.01,
 M. J. Frisch, G. W. Trucks, H. B. Schlegel, G. E. Scuseria, 
 M. A. Robb, J. R. Cheeseman, J. A. Montgomery, Jr., T. Vreven, 
 K. N. Kudin, J. C. Burant, J. M. Millam, S. S. Iyengar, J. Tomasi, 
 V. Barone, B. Mennucci, M. Cossi, G. Scalmani, N. Rega, 
 G. A. Petersson, H. Nakatsuji, M. Hada, M. Ehara, K. Toyota, 
 R. Fukuda, J. Hasegawa, M. Ishida, T. Nakajima, Y. Honda, O. Kitao, 
 H. Nakai, M. Klene, X. Li, J. E. Knox, H. P. Hratchian, J. B. Cross, 
 V. Bakken, C. Adamo, J. Jaramillo, R. Gomperts, R. E. Stratmann, 
 O. Yazyev, A. J. Austin, R. Cammi, C. Pomelli, J. W. Ochterski, 
 P. Y. Ayala, K. Morokuma, G. A. Voth, P. Salvador, J. J. Dannenberg, 
 V. G. Zakrzewski, S. Dapprich, A. D. Daniels, M. C. Strain, 
 O. Farkas, D. K. Malick, A. D. Rabuck, K. Raghavachari, 
 J. B. Foresman, J. V. Ortiz, Q. Cui, A. G. Baboul, S. Clifford, 
 J. Cioslowski, B. B. Stefanov, G. Liu, A. Liashenko, P. Piskorz, 
 I. Komaromi, R. L. Martin, D. J. Fox, T. Keith, M. A. Al-Laham, 
 C. Y. Peng, A. Nanayakkara, M. Challacombe, P. M. W. Gill, 
 B. Johnson, W. Chen, M. W. Wong, C. Gonzalez, and J. A. Pople, 
 Gaussian, Inc., Wallingford CT, 2004.
 
 ******************************************
 Gaussian 03:  AM64L-G03RevD.01 13-Oct-2005
                 9-Apr-2010 
 ******************************************
 %chk=HO2-freq.chk
 %mem=1000mb
 %nproc=8
 Will use up to    8 processors via shared memory.
 -------------------------------------
 # freq nosymm b3lyp/cbsb7 iop(7/33=1)
 -------------------------------------
 1/10=4,30=1,38=1/1,3;
 2/15=1,17=6,18=5,40=1/2;
 3/5=4,6=6,7=700,11=2,16=1,25=1,30=1,74=-5/1,2,3;
 4//1;
 5/5=2,38=5/2;
 8/6=4,10=90,11=11/1;
 11/6=1,8=1,9=11,15=111,16=1,31=1/1,2,10;
 10/6=1,31=1/2;
 6/7=2,8=2,9=2,10=2,18=1,28=1/1;
 7/8=1,10=1,25=1,30=1,33=1/1,2,3,16;
 1/10=4,30=1/3;
 99//99;
 ----------
 HO2 : freq
 ----------
 Symbolic Z-matrix:
 Charge =  0 Multiplicity = 2
 O
 H                    1    B1
 O                    1    B2       2    A1
       Variables:
  B1                    0.97544                  
  B2                    1.32811                  
  A1                  105.52327                  
 

 GradGradGradGradGradGradGradGradGradGradGradGradGradGradGradGradGradGrad
 Berny optimization.
 Initialization pass.
                       ----------------------------
                       !    Initial Parameters    !
                       ! (Angstroms and Degrees)  !
 ----------------------                            ----------------------
 !      Name          Value   Derivative information (Atomic Units)     !
 ------------------------------------------------------------------------
 !       B1          0.9754   calculate D2E/DX2 analytically            !
 !       B2          1.3281   calculate D2E/DX2 analytically            !
 !       A1        105.5233   calculate D2E/DX2 analytically            !
 ------------------------------------------------------------------------
 Trust Radius=3.00D-01 FncErr=1.00D-07 GrdErr=1.00D-07
 Number of steps in this run=   2 maximum allowed number of steps=   2.
 GradGradGradGradGradGradGradGradGradGradGradGradGradGradGradGradGradGrad

                          Input orientation:                          
 ---------------------------------------------------------------------
 Center     Atomic     Atomic              Coordinates (Angstroms)
 Number     Number      Type              X           Y           Z
 ---------------------------------------------------------------------
    1          8             0        0.000000    0.000000    0.000000
    2          1             0        0.000000    0.000000    0.975441
    3          8             0        1.279664    0.000000   -0.355442
 ---------------------------------------------------------------------
                    Distance matrix (angstroms):
                    1          2          3
     1  O    0.000000
     2  H    0.975441   0.000000
     3  O    1.328111   1.846290   0.000000
 Symmetry turned off by external request.
 Stoichiometry    HO2(2)
 Framework group  CS[SG(HO2)]
 Deg. of freedom     3
 Full point group                 CS
 Rotational constants (GHZ):    622.3996552     33.7058769     31.9743168
 Standard basis: CBSB7 (5D, 7F)
 Integral buffers will be    131072 words long.
 Raffenetti 2 integral format.
 Two-electron integral symmetry is turned off.
    42 basis functions,    72 primitive gaussians,    44 cartesian basis functions
     9 alpha electrons        8 beta electrons
       nuclear repulsion energy        32.1333283008 Hartrees.
 NAtoms=    3 NActive=    3 NUniq=    3 SFac= 7.50D-01 NAtFMM=   80 NAOKFM=F Big=F
 One-electron integrals computed using PRISM.
 NBasis=    42 RedAO= T  NBF=    42
 NBsUse=    42 1.00D-06 NBFU=    42
 Harris functional with IExCor=  402 diagonalized for initial guess.
 ExpMin= 1.03D-01 ExpMax= 8.59D+03 ExpMxC= 1.30D+03 IAcc=1 IRadAn=         1 AccDes= 1.00D-06
 HarFok:  IExCor= 402 AccDes= 1.00D-06 IRadAn=         1 IDoV=1
 ScaDFX=  1.000000  1.000000  1.000000  1.000000
 <S**2> of initial guess= 0.7500
 Requested convergence on RMS density matrix=1.00D-08 within 128 cycles.
 Requested convergence on MAX density matrix=1.00D-06.
 Requested convergence on             energy=1.00D-06.
 No special actions if energy rises.
 Keep R1 and R2 integrals in memory in canonical form, NReq=     2713627.
 Integral accuracy reduced to 1.0D-05 until final iterations.
 Initial convergence to 1.0D-05 achieved.  Increase integral accuracy.
 SCF Done:  E(UB+HF-LYP) =  -150.950410881     A.U. after   15 cycles
             Convg  =    0.3785D-08             -V/T =  2.0017
             S**2   =   0.7528
 Annihilation of the first spin contaminant:
 S**2 before annihilation     0.7528,   after     0.7500
 Range of M.O.s used for correlation:     1    42
 NBasis=    42 NAE=     9 NBE=     8 NFC=     0 NFV=     0
 NROrb=     42 NOA=     9 NOB=     8 NVA=    33 NVB=    34
 Symmetrizing basis deriv contribution to polar:
 IMax=3 JMax=2 DiffMx= 0.00D+00
 G2DrvN: will do    4 centers at a time, making    1 passes doing MaxLOS=2.
 FoFDir/FoFCou used for L=0 through L=2.
 DoAtom=TTT
          Differentiating once with respect to electric field.
                with respect to dipole field.
          Differentiating once with respect to nuclear coordinates.
          Store integrals in memory, NReq=     1802109.
          There are  12 degrees of freedom in the 1st order CPHF.
     9 vectors were produced by pass  0.
 AX will form   9 AO Fock derivatives at one time.
     9 vectors were produced by pass  1.
     9 vectors were produced by pass  2.
     9 vectors were produced by pass  3.
     9 vectors were produced by pass  4.
     9 vectors were produced by pass  5.
     9 vectors were produced by pass  6.
     4 vectors were produced by pass  7.
     1 vectors were produced by pass  8.
 Inv2:  IOpt= 1 Iter= 1 AM= 1.14D-15 Conv= 1.00D-12.
 Inverted reduced A of dimension   68 with in-core refinement.
 Isotropic polarizability for W=    0.000000        8.64 Bohr**3.
 End of Minotr Frequency-dependent properties file   721 does not exist.

 **********************************************************************

            Population analysis using the SCF density.

 **********************************************************************

 Alpha  occ. eigenvalues --  -19.24368 -19.20182  -1.20324  -0.87610  -0.56746
 Alpha  occ. eigenvalues --   -0.49707  -0.48196  -0.30596  -0.29980
 Alpha virt. eigenvalues --    0.01138   0.10556   0.35883   0.68499   0.69995
 Alpha virt. eigenvalues --    0.74640   0.74809   0.79344   0.81853   0.99137
 Alpha virt. eigenvalues --    1.22801   1.29773   1.43072   1.87344   2.29348
 Alpha virt. eigenvalues --    2.35184   2.56842   2.63326   2.73371   2.78773
 Alpha virt. eigenvalues --    3.02595   3.24333   3.34707   3.57213   3.74755
 Alpha virt. eigenvalues --    4.56017   4.56829   4.72583   4.77664   5.21771
 Alpha virt. eigenvalues --    5.83405  49.61079  49.67828
  Beta  occ. eigenvalues --  -19.23498 -19.18093  -1.17618  -0.83469  -0.55202
  Beta  occ. eigenvalues --   -0.46644  -0.41809  -0.28056
  Beta virt. eigenvalues --   -0.12158   0.01485   0.12631   0.36112   0.70657
  Beta virt. eigenvalues --    0.72165   0.75080   0.75893   0.82690   0.84422
  Beta virt. eigenvalues --    1.00303   1.24622   1.30243   1.43091   1.87585
  Beta virt. eigenvalues --    2.30076   2.39233   2.57549   2.65841   2.79352
  Beta virt. eigenvalues --    2.85184   3.05320   3.29205   3.35708   3.59060
  Beta virt. eigenvalues --    3.75999   4.57859   4.61966   4.74236   4.84718
  Beta virt. eigenvalues --    5.22675   5.84823  49.62918  49.68947
          Condensed to atoms (all electrons):
              1          2          3
     1  O    7.803356   0.276955   0.055148
     2  H    0.276955   0.486605  -0.042400
     3  O    0.055148  -0.042400   8.130633
 Mulliken atomic charges:
              1
     1  O   -0.135459
     2  H    0.278840
     3  O   -0.143381
 Sum of Mulliken charges=   0.00000
 Atomic charges with hydrogens summed into heavy atoms:
              1
     1  O    0.143381
     2  H    0.000000
     3  O   -0.143381
 Sum of Mulliken charges=   0.00000
          Atomic-Atomic Spin Densities.
              1          2          3
     1  O    0.388726   0.002337  -0.129110
     2  H    0.002337  -0.012416   0.000370
     3  O   -0.129110   0.000370   0.876494
 Mulliken atomic spin densities:
              1
     1  O    0.261954
     2  H   -0.009708
     3  O    0.747754
 Sum of Mulliken spin densities=   1.00000
 APT atomic charges:
              1
     1  O   -0.243691
     2  H    0.260705
     3  O   -0.017014
 Sum of APT charges=   0.00000
 APT Atomic charges with hydrogens summed into heavy atoms:
              1
     1  O    0.017014
     2  H    0.000000
     3  O   -0.017014
 Sum of APT charges=   0.00000
 Electronic spatial extent (au):  <R**2>=    78.2483
 Charge=     0.0000 electrons
 Dipole moment (field-independent basis, Debye):
    X=    -0.8783    Y=     0.0000    Z=     2.1335  Tot=     2.3072
 Quadrupole moment (field-independent basis, Debye-Ang):
   XX=   -12.7049   YY=   -10.7618   ZZ=    -9.4317
   XY=     0.0000   XZ=     0.2360   YZ=     0.0000
 Traceless Quadrupole moment (field-independent basis, Debye-Ang):
   XX=    -1.7388   YY=     0.2043   ZZ=     1.5344
   XY=     0.0000   XZ=     0.2360   YZ=     0.0000
 Octapole moment (field-independent basis, Debye-Ang**2):
  XXX=   -22.4945  YYY=     0.0000  ZZZ=     6.8095  XYY=    -6.3347
  XXY=     0.0000  XXZ=     1.7661  XZZ=    -7.3321  YZZ=     0.0000
  YYZ=     1.3725  XYZ=     0.0000
 Hexadecapole moment (field-independent basis, Debye-Ang**3):
 XXXX=   -61.3423 YYYY=    -7.3681 ZZZZ=   -12.5267 XXXY=     0.0000
 XXXZ=     6.6399 YYYX=     0.0000 YYYZ=     0.0000 ZZZX=     7.8613
 ZZZY=     0.0000 XXYY=   -10.7966 XXZZ=   -12.9752 YYZZ=    -3.5739
 XXYZ=     0.0000 YYXZ=     2.2644 ZZXY=     0.0000
 N-N= 3.213332830080D+01 E-N=-4.218909818771D+02  KE= 1.506892834465D+02
  Exact polarizability:  12.986   0.000   4.639  -3.474   0.000   8.302
 Approx polarizability:  21.067   0.000   5.389  -5.497   0.000  10.549
                          Isotropic Fermi Contact Couplings
        Atom                 a.u.       MegaHertz       Gauss      10(-4) cm-1
     1  O(17)              0.03323     -20.14458      -7.18809      -6.71951
     2  H(1)              -0.00569     -25.41798      -9.06977      -8.47853
     3  O(17)              0.05271     -31.95071     -11.40081     -10.65761
 --------------------------------------------------------
       Center         ----  Spin Dipole Couplings  ----
                      3XX-RR        3YY-RR        3ZZ-RR
 --------------------------------------------------------
     1   Atom       -0.765071      1.466885     -0.701813
     2   Atom       -0.036588     -0.026365      0.062953
     3   Atom       -1.642224      3.290469     -1.648246
 --------------------------------------------------------
                        XY            XZ            YZ
 --------------------------------------------------------
     1   Atom        0.000000     -0.012975      0.000000
     2   Atom        0.000000     -0.017430      0.000000
     3   Atom        0.000000      0.007597      0.000000
 --------------------------------------------------------


 ---------------------------------------------------------------------------------
              Anisotropic Spin Dipole Couplings in Principal Axis System
 ---------------------------------------------------------------------------------

       Atom             a.u.   MegaHertz   Gauss  10(-4) cm-1        Axes

              Baa    -0.7676    55.545    19.820    18.528  0.9811  0.0000  0.1934
     1 O(17)  Bbb    -0.6993    50.598    18.054    16.878 -0.1934  0.0000  0.9811
              Bcc     1.4669  -106.143   -37.874   -35.405  0.0000  1.0000  0.0000
 
              Baa    -0.0396   -21.103    -7.530    -7.039  0.9858  0.0000  0.1676
     2 H(1)   Bbb    -0.0264   -14.067    -5.019    -4.692  0.0000  1.0000  0.0000
              Bcc     0.0659    35.170    12.550    11.731 -0.1676  0.0000  0.9858
 
              Baa    -1.6534   119.639    42.690    39.907 -0.5619  0.0000  0.8272
     3 O(17)  Bbb    -1.6371   118.457    42.268    39.513  0.8272  0.0000  0.5619
              Bcc     3.2905  -238.096   -84.959   -79.420  0.0000  1.0000  0.0000
 

 ---------------------------------------------------------------------------------

 Use density number 0.
 Entering OneElI...
 Calculate overlap and kinetic energy integrals
    NBasis =  44  MinDer = 2  MaxDer = 2
 Requested accuracy = 0.1000D-12
 PrsmSu:  NPrtUS=   1 ThrOK=F
 PRISM was handed   131050254 working-precision words and   105 shell-pairs
 Entering OneElI...
 Calculate potential energy integrals
    NBasis =  44  MinDer = 2  MaxDer = 2
 Requested accuracy = 0.1000D-12
 PrsmSu:  NPrtUS=   8 ThrOK=T
 PRISM was handed    16378090 working-precision words and   105 shell-pairs
 PRISM was handed    16378090 working-precision words and   105 shell-pairs
 PRISM was handed    16378090 working-precision words and   105 shell-pairs
 PRISM was handed    16378090 working-precision words and   105 shell-pairs
 PRISM was handed    16378090 working-precision words and   105 shell-pairs
 PRISM was handed    16378090 working-precision words and   105 shell-pairs
 PRISM was handed    16378090 working-precision words and   105 shell-pairs
 PRISM was handed    16378090 working-precision words and   105 shell-pairs
 Polarizability after L701:
                1             2             3
      1  0.129860D+02
      2  0.000000D+00  0.463859D+01
      3 -0.347438D+01  0.000000D+00  0.830151D+01
 Dipole Derivatives after L701:
               1            2            3            4            5
      1-0.455757D+00 0.000000D+00 0.256941D+00 0.226734D+00 0.000000D+00
      2 0.000000D+00-0.260364D+00 0.000000D+00 0.000000D+00 0.403275D+00
      3 0.876209D-01 0.000000D+00-0.149518D-01-0.177869D-01 0.000000D+00
               6            7            8            9
      1-0.190027D-01 0.229022D+00 0.000000D+00-0.237938D+00
      2 0.000000D+00 0.000000D+00-0.142910D+00 0.000000D+00
      3 0.152106D+00-0.698340D-01 0.000000D+00-0.137154D+00
 Hessian after L701:
                1             2             3             4             5
      1 -0.166385D+01
      2  0.000000D+00  0.102224D+02
      3  0.331454D+01  0.000000D+00  0.541369D+01
      4 -0.379757D+01  0.000000D+00 -0.416542D+00  0.405513D+01
      5  0.000000D+00 -0.389715D+01  0.000000D+00  0.000000D+00  0.383490D+01
      6 -0.376913D+00  0.000000D+00 -0.566244D+00  0.341923D+00  0.000000D+00
      7  0.546142D+01  0.000000D+00 -0.289800D+01 -0.257562D+00  0.000000D+00
      8  0.000000D+00 -0.632521D+01  0.000000D+00  0.000000D+00  0.622462D-01
      9 -0.293763D+01  0.000000D+00 -0.484744D+01  0.746188D-01  0.000000D+00
                6             7             8             9
      6  0.125293D+00
      7  0.349899D-01 -0.520386D+01
      8  0.000000D+00  0.000000D+00  0.626297D+01
      9  0.440951D+00  0.286301D+01  0.000000D+00  0.440649D+01
 ReadGW:  IGet=0 IStart=          36 Next=        1350 LGW=        1314.
 ICntrl=12127.
 Symmetry not used in FoFDir.
 MinBra= 0 MaxBra= 2 Meth= 1.
 IRaf=       0 NMat=   1 IRICut=       1 DoRegI=T DoRafI=F ISym2E= 0 JSym2E=0.
 PrsmSu:  NPrtUS=   8 ThrOK=T
 PRISM was handed    16377258 working-precision words and   105 shell-pairs
 PRISM was handed    16377258 working-precision words and   105 shell-pairs
 PRISM was handed    16377258 working-precision words and   105 shell-pairs
 PRISM was handed    16377258 working-precision words and   105 shell-pairs
 PRISM was handed    16377258 working-precision words and   105 shell-pairs
 PRISM was handed    16377258 working-precision words and   105 shell-pairs
 PRISM was handed    16377258 working-precision words and   105 shell-pairs
 PRISM was handed    16377258 working-precision words and   105 shell-pairs
 Pruned (  75, 302) grid will be used in CalDFT.
 CkSvGd:  ISavGI=        -1 IRadAn=       4 IRASav=       4 ISavGd=        -1.
 CalDSu:  NPrtUS=   8 ThrOK=T
 IPart= 0 IRanGd=          0 ScrnBf=T ScrnGd=T RCrit=4.00D+00 DoMicB=T.
 IPart= 1 IRanGd=          0 ScrnBf=T ScrnGd=T RCrit=4.00D+00 DoMicB=T.
 IPart= 4 IRanGd=          0 ScrnBf=T ScrnGd=T RCrit=4.00D+00 DoMicB=T.
 IPart= 7 IRanGd=          0 ScrnBf=T ScrnGd=T RCrit=4.00D+00 DoMicB=T.
 CutRad = 1000.00    CtRdIn =    0.00    XCrit =  15.00   ICut = 0
 IPart= 3 IRanGd=          0 ScrnBf=T ScrnGd=T RCrit=4.00D+00 DoMicB=T.
 IPart= 5 IRanGd=          0 ScrnBf=T ScrnGd=T RCrit=4.00D+00 DoMicB=T.
 CutRad = 1000.00    CtRdIn =    0.00    XCrit =  15.00   ICut = 0
 CutRad = 1000.00    CtRdIn =    0.00    XCrit =  15.00   ICut = 0
 IPart= 2 IRanGd=          0 ScrnBf=T ScrnGd=T RCrit=4.00D+00 DoMicB=T.
 CutRad = 1000.00    CtRdIn =    0.00    XCrit =  15.00   ICut = 0
 CutRad = 1000.00    CtRdIn =    0.00    XCrit =  15.00   ICut = 0
 CutRad = 1000.00    CtRdIn =    0.00    XCrit =  15.00   ICut = 0
 CutRad = 1000.00    CtRdIn =    0.00    XCrit =  15.00   ICut = 0
 IPart= 6 IRanGd=          0 ScrnBf=T ScrnGd=T RCrit=4.00D+00 DoMicB=T.
 CutRad = 1000.00    CtRdIn =    0.00    XCrit =  15.00   ICut = 0
 IPart= 2         2914 of         3160 points in       7 batches and       24 microbatches, Max-NSigAt=       3 Max-NSgAt2=       3
 IPart= 4         2592 of         2668 points in       5 batches and       26 microbatches, Max-NSigAt=       3 Max-NSgAt2=       3
 IPart= 3         3047 of         3184 points in       7 batches and       17 microbatches, Max-NSigAt=       3 Max-NSgAt2=       3
 IPart= 6         2890 of         2990 points in       7 batches and       30 microbatches, Max-NSigAt=       3 Max-NSgAt2=       3
 IPart= 1         2770 of         2834 points in       5 batches and       14 microbatches, Max-NSigAt=       3 Max-NSgAt2=       3
 IPart= 5         2604 of         2688 points in       6 batches and       34 microbatches, Max-NSigAt=       3 Max-NSgAt2=       3
 IPart= 7         2830 of         2924 points in       5 batches and       14 microbatches, Max-NSigAt=       3 Max-NSgAt2=       3
 IPart= 0         3122 of         3228 points in       7 batches and       16 microbatches, Max-NSigAt=       3 Max-NSgAt2=       3
 Polarizability after L703:
                1             2             3
      1  0.129860D+02
      2  0.000000D+00  0.463859D+01
      3 -0.347438D+01  0.000000D+00  0.830151D+01
 Dipole Derivatives after L703:
               1            2            3            4            5
      1-0.455757D+00 0.000000D+00 0.256941D+00 0.226734D+00 0.000000D+00
      2 0.000000D+00-0.260364D+00 0.000000D+00 0.000000D+00 0.403275D+00
      3 0.876209D-01 0.000000D+00-0.149518D-01-0.177869D-01 0.000000D+00
               6            7            8            9
      1-0.190027D-01 0.229022D+00 0.000000D+00-0.237938D+00
      2 0.000000D+00 0.000000D+00-0.142910D+00 0.000000D+00
      3 0.152106D+00-0.698340D-01 0.000000D+00-0.137154D+00
 Hessian after L703:
                1             2             3             4             5
      1  0.408638D+00
      2  0.000000D+00  0.133169D-03
      3 -0.418741D-01  0.000000D+00  0.551693D+00
      4 -0.400408D-01  0.000000D+00 -0.694747D-01  0.690030D-01
      5  0.000000D+00 -0.455246D-04  0.000000D+00  0.000000D+00  0.343541D-04
      6 -0.300593D-01  0.000000D+00 -0.467649D+00  0.884804D-02  0.000000D+00
      7 -0.368597D+00  0.000000D+00  0.111349D+00 -0.289622D-01  0.000000D+00
      8  0.000000D+00 -0.876441D-04  0.000000D+00  0.000000D+00  0.111705D-04
      9  0.719334D-01  0.000000D+00 -0.840440D-01  0.606266D-01  0.000000D+00
                6             7             8             9
      6  0.466772D+00
      7  0.212112D-01  0.397559D+00
      8  0.000000D+00  0.000000D+00  0.764737D-04
      9  0.876678D-03 -0.132560D+00  0.000000D+00  0.831673D-01
 FrcOut:
 IF    =    46 IFX   =    55 IFXYZ =    64
 IFFX  =    73 IFFFX =   118 IFLen =     9
 IFFLen=    45 IFFFLn=     0 IEDerv=   118
 LEDerv=   485 IFroze=   607 ICStrt=  4258
 DipoleDeriv   =-4.55756775D-01-3.33589144D-11 8.76209130D-02
                -4.56476069D-11-2.60364471D-01 2.54524971D-10
                 2.56940858D-01 5.62193856D-11-1.49518239D-02
                 2.26734338D-01-2.61368603D-12-1.77868748D-02
                 6.72617086D-11 4.03274669D-01-2.87523666D-10
                -1.90027280D-02-1.74505736D-11 1.52106100D-01
                 2.29022437D-01 3.63361728D-11-6.98340382D-02
                -2.21662903D-11-1.42910197D-01 3.37629296D-11
                -2.37938130D-01-4.04960630D-11-1.37154276D-01
 Full mass-weighted force constant matrix:
 Low frequencies ---   -0.0009   -0.0008    0.0007   14.7347   18.9032   32.0933
 Low frequencies --- 1163.7270 1428.0376 3610.3379
 Dipole derivatives wrt mode   1: -5.31911D+00 -4.63603D-10  6.88731D-01
 Vibrational polarizability contributions from mode   1       0.5622227       0.0000000       0.0094261
 Vibrational hyperpolarizability contributions from mode   1       0.0000000       0.0000000       0.0000000
 Dipole derivatives wrt mode   2:  5.68461D+00 -2.26191D-10 -1.06854D+00
 Vibrational polarizability contributions from mode   2       0.4264376       0.0000000       0.0150674
 Vibrational hyperpolarizability contributions from mode   2       0.0000000       0.0000000       0.0000000
 Dipole derivatives wrt mode   3:  7.92792D-01  6.31558D-10 -4.57493D+00
 Vibrational polarizability contributions from mode   3       0.0012976       0.0000000       0.0432123
 Vibrational hyperpolarizability contributions from mode   3       0.0000000       0.0000000       0.0000000
 Diagonal vibrational polarizability:
        0.9899579       0.0000000       0.0677057
 Harmonic frequencies (cm**-1), IR intensities (KM/Mole), Raman scattering
 activities (A**4/AMU), depolarization ratios for plane and unpolarized
 incident light, reduced masses (AMU), force constants (mDyne/A),
 and normal coordinates:
                           1         2         3
                          A"        A"        A"
       Frequencies ---  1163.7270 1428.0376 3610.3379
    Reduced masses ---    11.9217    1.1440    1.0692
   Force constants ---     9.5124    1.3746    8.2109
    IR Intensities ---    28.7673   33.4566   21.5585
 Coord Atom Element:
   1     1     8          0.60485  -0.01617   0.00390
   2     1     8          0.00000   0.00000   0.00000
   3     1     8         -0.13013  -0.05498   0.06382
   1     2     1         -0.51753   0.99159  -0.03135
   2     2     1          0.00000   0.00000   0.00000
   3     2     1         -0.06283  -0.08751  -0.99746
   1     3     8         -0.57224  -0.04631  -0.00193
   2     3     8          0.00000   0.00000   0.00000
   3     3     8          0.13409   0.06049  -0.00097
 Harmonic frequencies (cm**-1), IR intensities (KM/Mole), Raman scattering
 activities (A**4/AMU), depolarization ratios for plane and unpolarized
 incident light, reduced masses (AMU), force constants (mDyne/A),
 and normal coordinates:
                     1                      2                      3
                    A"                     A"                     A"
 Frequencies --  1163.7270              1428.0376              3610.3379
 Red. masses --    11.9217                 1.1440                 1.0692
 Frc consts  --     9.5124                 1.3746                 8.2109
 IR Inten    --    28.7673                33.4566                21.5585
 Atom AN      X      Y      Z        X      Y      Z        X      Y      Z
   1   8     0.60   0.00  -0.13    -0.02   0.00  -0.05     0.00   0.00   0.06
   2   1    -0.52   0.00  -0.06     0.99   0.00  -0.09    -0.03   0.00  -1.00
   3   8    -0.57   0.00   0.13    -0.05   0.00   0.06     0.00   0.00   0.00

 -------------------
 - Thermochemistry -
 -------------------
 Temperature   298.150 Kelvin.  Pressure   1.00000 Atm.
 Atom  1 has atomic number  8 and mass  15.99491
 Atom  2 has atomic number  1 and mass   1.00783
 Atom  3 has atomic number  8 and mass  15.99491
 Molecular mass:    32.99765 amu.
 Principal axes and moments of inertia in atomic units:
                           1         2         3
     EIGENVALUES --     2.89965  53.54381  56.44346
           X            0.94572   0.32497   0.00000
           Y            0.00000   0.00000   1.00000
           Z           -0.32497   0.94572   0.00000
 This molecule is an asymmetric top.
 Rotational symmetry number  1.
 Rotational temperatures (Kelvin)     29.87044     1.61763     1.53452
 Rotational constants (GHZ):         622.39966    33.70588    31.97432
 Zero-point vibrational energy      37096.8 (Joules/Mol)
                                    8.86635 (Kcal/Mol)
 Vibrational temperatures:   1674.34  2054.63  5194.46
          (Kelvin)
 
 Zero-point correction=                           0.014129 (Hartree/Particle)
 Thermal correction to Energy=                    0.016988
 Thermal correction to Enthalpy=                  0.017932
 Thermal correction to Gibbs Free Energy=        -0.008047
 Sum of electronic and zero-point Energies=           -150.936281
 Sum of electronic and thermal Energies=              -150.933423
 Sum of electronic and thermal Enthalpies=            -150.932479
 Sum of electronic and thermal Free Energies=         -150.958458
 
                     E (Thermal)             CV                S
                      KCal/Mol        Cal/Mol-Kelvin    Cal/Mol-Kelvin
 Total                   10.660              6.288             54.678
 Electronic               0.000              0.000              1.377
 Translational            0.889              2.981             36.413
 Rotational               0.889              2.981             16.823
 Vibrational              8.883              0.326              0.064
                       Q            Log10(Q)             Ln(Q)
 Total Bot       0.502740D+04          3.701343          8.522658
 Total V=0       0.158641D+11         10.200416         23.487326
 Vib (Bot)       0.318385D-06         -6.497047        -14.960004
 Vib (V=0)       0.100467D+01          0.002025          0.004664
 Electronic      0.200000D+01          0.301030          0.693147
 Translational   0.745040D+07          6.872180         15.823779
 Rotational      0.105969D+04          3.025181          6.965736
 -------------------------------------------------------------------
 Center     Atomic                   Forces (Hartrees/Bohr)
 Number     Number              X              Y              Z
 -------------------------------------------------------------------
    1          8          -0.000006964    0.000000000    0.000000540
    2          1          -0.000010965    0.000000000    0.000004170
    3          8           0.000017929    0.000000000   -0.000004709
 -------------------------------------------------------------------
 Cartesian Forces:  Max     0.000017929 RMS     0.000007674
 From PutF, contents of force:
   1    0.4169633628D-05
   2    0.1853562145D-04
   3   -0.6552225162D-06
 ------------------------------------------------------------------------
           Internal Coordinate Forces (Hartree/Bohr or radian)
 Cent Atom N1     Length/X     N2     Alpha/Y      N3      Beta/Z       J
 ------------------------------------------------------------------------
   1  O 
   2  H     1   0.000004(   1)
   3  O     1   0.000019(   2)  2  -0.000001(   3)
 ------------------------------------------------------------------------
 Internal  Forces:  Max     0.000018536 RMS     0.000010975
 Force constants in Cartesian coordinates: 
                1             2             3             4             5
      1  0.408638D+00
      2  0.000000D+00  0.133169D-03
      3 -0.418741D-01  0.000000D+00  0.551693D+00
      4 -0.400408D-01  0.000000D+00 -0.694747D-01  0.690030D-01
      5  0.000000D+00 -0.455246D-04  0.000000D+00  0.000000D+00  0.343541D-04
      6 -0.300593D-01  0.000000D+00 -0.467649D+00  0.884804D-02  0.000000D+00
      7 -0.368597D+00  0.000000D+00  0.111349D+00 -0.289622D-01  0.000000D+00
      8  0.000000D+00 -0.876441D-04  0.000000D+00  0.000000D+00  0.111705D-04
      9  0.719334D-01  0.000000D+00 -0.840440D-01  0.606266D-01  0.000000D+00
                6             7             8             9
      6  0.466772D+00
      7  0.212112D-01  0.397559D+00
      8  0.000000D+00  0.000000D+00  0.764737D-04
      9  0.876678D-03 -0.132560D+00  0.000000D+00  0.831673D-01
 FCInt: Cartesian first derivatives: 
               1            2            3
      1-0.696441D-05-0.109649D-04 0.179293D-04
      2 0.000000D+00 0.000000D+00 0.000000D+00
      3 0.000000D+00 0.416963D-05-0.470914D-05
 FCInt: Cartesian force constants: 
                1             2             3             4             5
      1  0.408638D+00
      2  0.000000D+00  0.133169D-03
      3 -0.418741D-01  0.000000D+00  0.551693D+00
      4 -0.400408D-01  0.000000D+00 -0.694747D-01  0.690030D-01
      5  0.000000D+00 -0.455246D-04  0.000000D+00  0.000000D+00  0.343541D-04
      6 -0.300593D-01  0.000000D+00 -0.467649D+00  0.884804D-02  0.000000D+00
      7 -0.368597D+00  0.000000D+00  0.111349D+00 -0.289622D-01  0.000000D+00
      8  0.000000D+00 -0.876441D-04  0.000000D+00  0.000000D+00  0.111705D-04
      9  0.719334D-01  0.000000D+00 -0.840440D-01  0.606266D-01  0.000000D+00
                6             7             8             9
      6  0.466772D+00
      7  0.212112D-01  0.397559D+00
      8  0.000000D+00  0.000000D+00  0.764737D-04
      9  0.876678D-03 -0.132560D+00  0.000000D+00  0.831673D-01
 Internal force constants: 
                1             2             3
      1  0.466772D+00
      2  0.202029D-01  0.443407D+00
      3 -0.163673D-01  0.815658D-01  0.235123D+00
 Frcnst in PutFF: 
                1             2             3
      1  0.466772D+00
      2  0.202029D-01  0.443407D+00
      3 -0.163673D-01  0.815658D-01  0.235123D+00
 Force constants in internal coordinates: 
                1             2             3
      1  0.466772D+00
      2  0.202029D-01  0.443407D+00
      3 -0.163673D-01  0.815658D-01  0.235123D+00
 Final forces over variables, Energy=-1.50950411D+02:
  4.16963363D-06 1.85356214D-05-6.55222516D-07

 GradGradGradGradGradGradGradGradGradGradGradGradGradGradGradGradGradGrad
 Berny optimization.
 Search for a local minimum.
 Step number   1 out of a maximum of   2
 All quantities printed in internal units (Hartrees-Bohrs-Radians)
 Second derivative matrix not updated -- analytic derivatives used.
 The second derivative matrix:
                          B1        B2        A1
           B1           0.46677
           B2           0.02020   0.44341
           A1          -0.01637   0.08157   0.23512
     Eigenvalues ---    0.20512   0.45630   0.48388
 Angle between quadratic step and forces=  20.09 degrees.
 Linear search not attempted -- first point.
 Variable       Old X    -DE/DX   Delta X   Delta X   Delta X     New X
                                 (Linear)    (Quad)   (Total)
    B1        1.84332   0.00000   0.00000   0.00001   0.00001   1.84332
    B2        2.50977   0.00002   0.00000   0.00004   0.00004   2.50981
    A1        1.84173   0.00000   0.00000  -0.00002  -0.00002   1.84171
         Item               Value     Threshold  Converged?
 Maximum Force            0.000019     0.000450     YES
 RMS     Force            0.000011     0.000300     YES
 Maximum Displacement     0.000045     0.001800     YES
 RMS     Displacement     0.000028     0.001200     YES
 Predicted change in Energy=-4.343571D-10
 Optimization completed.
    -- Stationary point found.
                       ----------------------------
                       !   Optimized Parameters   !
                       ! (Angstroms and Degrees)  !
 ----------------------                            ----------------------
 !      Name          Value   Derivative information (Atomic Units)     !
 ------------------------------------------------------------------------
 !       B1          0.9754   -DE/DX =    0.0                           !
 !       B2          1.3281   -DE/DX =    0.0                           !
 !       A1        105.5233   -DE/DX =    0.0                           !
 ------------------------------------------------------------------------
 GradGradGradGradGradGradGradGradGradGradGradGradGradGradGradGradGradGrad


 Test job not archived.
 1\1\GINC-NODE04\Freq\UB3LYP\CBSB7\H1O2(2)\MRHARPER\09-Apr-2010\1\\# fr
 eq nosymm b3lyp/cbsb7 iop(7/33=1)\\HO2 : freq\\0,2\O\H,1,B1\O,1,B2,2,A
 1\\B1=0.97544081\B2=1.32811063\A1=105.52326555\\Version=AM64L-G03RevD.
 01\HF=-150.9504109\S2=0.752817\S2-1=0.\S2A=0.750005\RMSD=3.785e-09\RMS
 F=7.674e-06\ZeroPoint=0.0141294\Thermal=0.016988\Dipole=-0.345534,0.,0
 .839375\DipoleDeriv=-0.4557568,0.,0.0876209,0.,-0.2603645,0.,0.2569409
 ,0.,-0.0149518,0.2267343,0.,-0.0177869,0.,0.4032747,0.,-0.0190027,0.,0
 .1521061,0.2290224,0.,-0.069834,0.,-0.1429102,0.,-0.2379381,0.,-0.1371
 543\Polar=12.9859584,0.,4.638589,-3.4743819,0.,8.3015132\PG=CS [SG(H1O
 2)]\NImag=0\\0.40863801,0.,0.00013317,-0.04187410,0.,0.55169304,-0.040
 04078,0.,-0.06947468,0.06900299,0.,-0.00004552,0.,0.,0.00003435,-0.030
 05928,0.,-0.46764908,0.00884804,0.,0.46677240,-0.36859723,0.,0.1113487
 9,-0.02896221,0.,0.02121123,0.39755944,0.,-0.00008764,0.,0.,0.00001117
 ,0.,0.,0.00007647,0.07193338,0.,-0.08404396,0.06062664,0.,0.00087668,-
 0.13256002,0.,0.08316728\\0.00000696,0.,-0.00000054,0.00001096,0.,-0.0
 0000417,-0.00001793,0.,0.00000471\\\@


 IF YOU GET CONFUSED, LOGIC OUT YOUR DILEMMA

           --  PICKER X-RAY CORP.    DIGITAL PRINTER MANUAL CA. 1964
 Job cpu time:  0 days  0 hours  1 minutes 53.2 seconds.
 File lengths (MBytes):  RWF=     13 Int=      0 D2E=      0 Chk=     10 Scr=      1
 Normal termination of Gaussian 03 at Fri Apr  9 11:22:13 2010.
