 Entering Gaussian System, Link 0=g03
 Input=HO2-geom.com
 Output=HO2-geom.log
 Initial command:
 /home/g03/l1.exe /scratch/mrharper/Gau-29961.inp -scrdir=/scratch/mrharper/
 Entering Link 1 = /home/g03/l1.exe PID=     29963.
  
 Copyright (c) 1988,1990,1992,1993,1995,1998,2003,2004, Gaussian, Inc.
                  All Rights Reserved.
  
 This is the Gaussian(R) 03 program.  It is based on the
 the Gaussian(R) 98 system (copyright 1998, Gaussian, Inc.),
 the Gaussian(R) 94 system (copyright 1995, Gaussian, Inc.),
 the Gaussian 92(TM) system (copyright 1992, Gaussian, Inc.),
 the Gaussian 90(TM) system (copyright 1990, Gaussian, Inc.),
 the Gaussian 88(TM) system (copyright 1988, Gaussian, Inc.),
 the Gaussian 86(TM) system (copyright 1986, Carnegie Mellon
 University), and the Gaussian 82(TM) system (copyright 1983,
 Carnegie Mellon University). Gaussian is a federally registered
 trademark of Gaussian, Inc.
  
 This software contains proprietary and confidential information,
 including trade secrets, belonging to Gaussian, Inc.
  
 This software is provided under written license and may be
 used, copied, transmitted, or stored only in accord with that
 written license.
  
 The following legend is applicable only to US Government
 contracts under FAR:
  
                    RESTRICTED RIGHTS LEGEND
  
 Use, reproduction and disclosure by the US Government is
 subject to restrictions as set forth in subparagraphs (a)
 and (c) of the Commercial Computer Software - Restricted
 Rights clause in FAR 52.227-19.
  
 Gaussian, Inc.
 340 Quinnipiac St., Bldg. 40, Wallingford CT 06492
  
  
 ---------------------------------------------------------------
 Warning -- This program may not be used in any manner that
 competes with the business of Gaussian, Inc. or will provide
 assistance to any competitor of Gaussian, Inc.  The licensee
 of this program is prohibited from giving any competitor of
 Gaussian, Inc. access to this program.  By using this program,
 the user acknowledges that Gaussian, Inc. is engaged in the
 business of creating and licensing software in the field of
 computational chemistry and represents and warrants to the
 licensee that it is not a competitor of Gaussian, Inc. and that
 it will not use this program in any manner prohibited above.
 ---------------------------------------------------------------
  

 Cite this work as:
 Gaussian 03, Revision D.01,
 M. J. Frisch, G. W. Trucks, H. B. Schlegel, G. E. Scuseria, 
 M. A. Robb, J. R. Cheeseman, J. A. Montgomery, Jr., T. Vreven, 
 K. N. Kudin, J. C. Burant, J. M. Millam, S. S. Iyengar, J. Tomasi, 
 V. Barone, B. Mennucci, M. Cossi, G. Scalmani, N. Rega, 
 G. A. Petersson, H. Nakatsuji, M. Hada, M. Ehara, K. Toyota, 
 R. Fukuda, J. Hasegawa, M. Ishida, T. Nakajima, Y. Honda, O. Kitao, 
 H. Nakai, M. Klene, X. Li, J. E. Knox, H. P. Hratchian, J. B. Cross, 
 V. Bakken, C. Adamo, J. Jaramillo, R. Gomperts, R. E. Stratmann, 
 O. Yazyev, A. J. Austin, R. Cammi, C. Pomelli, J. W. Ochterski, 
 P. Y. Ayala, K. Morokuma, G. A. Voth, P. Salvador, J. J. Dannenberg, 
 V. G. Zakrzewski, S. Dapprich, A. D. Daniels, M. C. Strain, 
 O. Farkas, D. K. Malick, A. D. Rabuck, K. Raghavachari, 
 J. B. Foresman, J. V. Ortiz, Q. Cui, A. G. Baboul, S. Clifford, 
 J. Cioslowski, B. B. Stefanov, G. Liu, A. Liashenko, P. Piskorz, 
 I. Komaromi, R. L. Martin, D. J. Fox, T. Keith, M. A. Al-Laham, 
 C. Y. Peng, A. Nanayakkara, M. Challacombe, P. M. W. Gill, 
 B. Johnson, W. Chen, M. W. Wong, C. Gonzalez, and J. A. Pople, 
 Gaussian, Inc., Wallingford CT, 2004.
 
 ******************************************
 Gaussian 03:  AM64L-G03RevD.01 13-Oct-2005
                 9-Apr-2010 
 ******************************************
 %chk=HO2-geom.chk
 %mem=1000mb
 %nproc=8
 Will use up to    8 processors via shared memory.
 ----------------------------
 # opt=calcall nosymm cbs-qb3
 ----------------------------
 1/10=4,14=-1,18=20,26=3,38=1/1,3;
 2/9=110,15=1,17=6,18=5,40=1/2;
 3/5=4,6=6,7=700,11=2,16=1,25=1,30=1,74=-5/1,2,3;
 4//1;
 5/5=2,38=5/2;
 8/6=4,10=90,11=11/1;
 11/6=1,8=1,9=11,15=111,16=1,31=1/1,2,10;
 10/6=1,31=1/2;
 6/7=2,8=2,9=2,10=2,18=1,28=1/1;
 7/10=1,25=1,30=1/1,2,3,16;
 1/10=4,14=-1,18=20/3(3);
 2/9=110,15=1/2;
 7/8=1,9=1,25=1,30=1,44=-1/16;
 99//99;
 2/9=110,15=1/2;
 3/5=4,6=6,7=700,11=2,16=1,25=1,30=1,74=-5/1,2,3;
 4/5=5,16=3/1;
 5/5=2,38=5/2;
 8/6=4,10=90,11=11/1;
 11/6=1,8=1,9=11,15=111,16=1,31=1/1,2,10;
 10/6=1,31=1/2;
 7/10=1,25=1,30=1/1,2,3,16;
 1/10=4,14=-1,18=20/3(-8);
 2/9=110,15=1/2;
 6/7=2,8=2,9=2,10=2,18=1,19=2,28=1/1;
 7/8=1,9=1,25=1,30=1,44=-1/16;
 99//99;
 ---------
 HO2: geom
 ---------
 Symbolic Z-matrix:
 Charge =  0 Multiplicity = 2
 O
 H                    1    B1
 O                    1    B2       2    A1
       Variables:
  B1                    0.96                     
  B2                    1.32                     
  A1                  109.5                      
 

 GradGradGradGradGradGradGradGradGradGradGradGradGradGradGradGradGradGrad
 Berny optimization.
 Initialization pass.
                           ----------------------------
                           !    Initial Parameters    !
                           ! (Angstroms and Degrees)  !
 --------------------------                            --------------------------
 ! Name  Definition              Value          Derivative Info.                !
 --------------------------------------------------------------------------------
 ! R1    R(1,2)                  0.96           calculate D2E/DX2 analytically  !
 ! R2    R(1,3)                  1.32           calculate D2E/DX2 analytically  !
 ! A1    A(2,1,3)              109.5            calculate D2E/DX2 analytically  !
 --------------------------------------------------------------------------------
 Trust Radius=3.00D-01 FncErr=1.00D-07 GrdErr=1.00D-06
 Number of steps in this run=  20 maximum allowed number of steps= 100.
 GradGradGradGradGradGradGradGradGradGradGradGradGradGradGradGradGradGrad

                          Input orientation:                          
 ---------------------------------------------------------------------
 Center     Atomic     Atomic              Coordinates (Angstroms)
 Number     Number      Type              X           Y           Z
 ---------------------------------------------------------------------
    1          8             0        0.000000    0.000000    0.000000
    2          1             0        0.000000    0.000000    0.960000
    3          8             0        1.244287    0.000000   -0.440625
 ---------------------------------------------------------------------
                    Distance matrix (angstroms):
                    1          2          3
     1  O    0.000000
     2  H    0.960000   0.000000
     3  O    1.320000   1.873499   0.000000
 Symmetry turned off by external request.
 Stoichiometry    HO2(2)
 Framework group  CS[SG(HO2)]
 Deg. of freedom     3
 Full point group                 CS
 Rotational constants (GHZ):    676.6215531     33.8562775     32.2429302
 Standard basis: CBSB7 (5D, 7F)
 Integral buffers will be    131072 words long.
 Raffenetti 2 integral format.
 Two-electron integral symmetry is turned off.
    42 basis functions,    72 primitive gaussians,    44 cartesian basis functions
     9 alpha electrons        8 beta electrons
       nuclear repulsion energy        32.3265179850 Hartrees.
 NAtoms=    3 NActive=    3 NUniq=    3 SFac= 7.50D-01 NAtFMM=   80 NAOKFM=F Big=F
 One-electron integrals computed using PRISM.
 NBasis=    42 RedAO= T  NBF=    42
 NBsUse=    42 1.00D-06 NBFU=    42
 Harris functional with IExCor=  402 diagonalized for initial guess.
 ExpMin= 1.03D-01 ExpMax= 8.59D+03 ExpMxC= 1.30D+03 IAcc=1 IRadAn=         1 AccDes= 1.00D-06
 HarFok:  IExCor= 402 AccDes= 1.00D-06 IRadAn=         1 IDoV=1
 ScaDFX=  1.000000  1.000000  1.000000  1.000000
 <S**2> of initial guess= 0.7500
 Requested convergence on RMS density matrix=1.00D-08 within 128 cycles.
 Requested convergence on MAX density matrix=1.00D-06.
 Requested convergence on             energy=1.00D-06.
 No special actions if energy rises.
 Keep R1 and R2 integrals in memory in canonical form, NReq=     2713627.
 Integral accuracy reduced to 1.0D-05 until final iterations.
 Initial convergence to 1.0D-05 achieved.  Increase integral accuracy.
 SCF Done:  E(UB+HF-LYP) =  -150.949631688     A.U. after   15 cycles
             Convg  =    0.3928D-08             -V/T =  2.0015
             S**2   =   0.7528
 Annihilation of the first spin contaminant:
 S**2 before annihilation     0.7528,   after     0.7500
 Range of M.O.s used for correlation:     1    42
 NBasis=    42 NAE=     9 NBE=     8 NFC=     0 NFV=     0
 NROrb=     42 NOA=     9 NOB=     8 NVA=    33 NVB=    34
 Symmetrizing basis deriv contribution to polar:
 IMax=3 JMax=2 DiffMx= 0.00D+00
 G2DrvN: will do    4 centers at a time, making    1 passes doing MaxLOS=2.
 FoFDir/FoFCou used for L=0 through L=2.
 DoAtom=TTT
          Differentiating once with respect to electric field.
                with respect to dipole field.
          Differentiating once with respect to nuclear coordinates.
          Store integrals in memory, NReq=     1802109.
          There are  12 degrees of freedom in the 1st order CPHF.
     9 vectors were produced by pass  0.
 AX will form   9 AO Fock derivatives at one time.
     9 vectors were produced by pass  1.
     9 vectors were produced by pass  2.
     9 vectors were produced by pass  3.
     9 vectors were produced by pass  4.
     9 vectors were produced by pass  5.
     9 vectors were produced by pass  6.
     4 vectors were produced by pass  7.
     1 vectors were produced by pass  8.
 Inv2:  IOpt= 1 Iter= 1 AM= 1.11D-15 Conv= 1.00D-12.
 Inverted reduced A of dimension   68 with in-core refinement.
 Isotropic polarizability for W=    0.000000        8.55 Bohr**3.
 End of Minotr Frequency-dependent properties file   721 does not exist.

 **********************************************************************

            Population analysis using the SCF density.

 **********************************************************************

 Alpha  occ. eigenvalues --  -19.24138 -19.20191  -1.20701  -0.88091  -0.57058
 Alpha  occ. eigenvalues --   -0.49891  -0.48095  -0.30450  -0.29811
 Alpha virt. eigenvalues --    0.01354   0.11429   0.36804   0.68561   0.69938
 Alpha virt. eigenvalues --    0.74578   0.75133   0.79302   0.82384   0.98495
 Alpha virt. eigenvalues --    1.21957   1.30322   1.46240   1.88533   2.30043
 Alpha virt. eigenvalues --    2.35083   2.56691   2.64452   2.73186   2.78327
 Alpha virt. eigenvalues --    3.03392   3.25701   3.34986   3.61651   3.74119
 Alpha virt. eigenvalues --    4.56009   4.57264   4.73077   4.78078   5.21750
 Alpha virt. eigenvalues --    5.88689  49.61293  49.68741
  Beta  occ. eigenvalues --  -19.23260 -19.18108  -1.17993  -0.84047  -0.55380
  Beta  occ. eigenvalues --   -0.46584  -0.41982  -0.27899
  Beta virt. eigenvalues --   -0.12024   0.01726   0.13501   0.37042   0.70571
  Beta virt. eigenvalues --    0.72201   0.75461   0.75792   0.83210   0.84391
  Beta virt. eigenvalues --    0.99638   1.23765   1.30859   1.46319   1.88761
  Beta virt. eigenvalues --    2.30710   2.39117   2.57595   2.66971   2.79127
  Beta virt. eigenvalues --    2.84654   3.06174   3.30543   3.36128   3.63317
  Beta virt. eigenvalues --    3.75368   4.58292   4.61984   4.74728   4.85107
  Beta virt. eigenvalues --    5.22680   5.90085  49.63179  49.69815
          Condensed to atoms (all electrons):
              1          2          3
     1  O    7.806740   0.274527   0.057088
     2  H    0.274527   0.488356  -0.040491
     3  O    0.057088  -0.040491   8.122656
 Mulliken atomic charges:
              1
     1  O   -0.138355
     2  H    0.277609
     3  O   -0.139253
 Sum of Mulliken charges=   0.00000
 Atomic charges with hydrogens summed into heavy atoms:
              1
     1  O    0.139253
     2  H    0.000000
     3  O   -0.139253
 Sum of Mulliken charges=   0.00000
          Atomic-Atomic Spin Densities.
              1          2          3
     1  O    0.393599   0.002888  -0.132092
     2  H    0.002888  -0.012408   0.000400
     3  O   -0.132092   0.000400   0.876414
 Mulliken atomic spin densities:
              1
     1  O    0.264396
     2  H   -0.009119
     3  O    0.744723
 Sum of Mulliken spin densities=   1.00000
 APT atomic charges:
              1
     1  O   -0.249437
     2  H    0.263245
     3  O   -0.013808
 Sum of APT charges=   0.00000
 APT Atomic charges with hydrogens summed into heavy atoms:
              1
     1  O    0.013808
     2  H    0.000000
     3  O   -0.013808
 Sum of APT charges=   0.00000
 Electronic spatial extent (au):  <R**2>=    77.4985
 Charge=     0.0000 electrons
 Dipole moment (field-independent basis, Debye):
    X=    -0.8111    Y=     0.0000    Z=     2.1880  Tot=     2.3335
 Quadrupole moment (field-independent basis, Debye-Ang):
   XX=   -12.6165   YY=   -10.7355   ZZ=    -9.5066
   XY=     0.0000   XZ=     0.2887   YZ=     0.0000
 Traceless Quadrupole moment (field-independent basis, Debye-Ang):
   XX=    -1.6636   YY=     0.2174   ZZ=     1.4463
   XY=     0.0000   XZ=     0.2887   YZ=     0.0000
 Octapole moment (field-independent basis, Debye-Ang**2):
  XXX=   -21.7871  YYY=     0.0000  ZZZ=     8.2166  XYY=    -6.1472
  XXY=     0.0000  XXZ=     2.2770  XZZ=    -7.1242  YZZ=     0.0000
  YYZ=     1.8127  XYZ=     0.0000
 Hexadecapole moment (field-independent basis, Debye-Ang**3):
 XXXX=   -58.5611 YYYY=    -7.3365 ZZZZ=   -14.8325 XXXY=     0.0000
 XXXZ=     8.0558 YYYX=     0.0000 YYYZ=     0.0000 ZZZX=     9.3459
 ZZZY=     0.0000 XXYY=   -10.3369 XXZZ=   -12.6075 YYZZ=    -3.8813
 XXYZ=     0.0000 YYXZ=     2.7278 ZZXY=     0.0000
 N-N= 3.232651798495D+01 E-N=-4.222868083575D+02  KE= 1.507217028101D+02
  Exact polarizability:  12.423   0.000   4.626  -3.904   0.000   8.595
 Approx polarizability:  19.908   0.000   5.371  -6.434   0.000  11.090
                          Isotropic Fermi Contact Couplings
        Atom                 a.u.       MegaHertz       Gauss      10(-4) cm-1
     1  O(17)              0.03361     -20.37226      -7.26933      -6.79545
     2  H(1)              -0.00577     -25.79331      -9.20369      -8.60372
     3  O(17)              0.05350     -32.42890     -11.57144     -10.81712
 --------------------------------------------------------
       Center         ----  Spin Dipole Couplings  ----
                      3XX-RR        3YY-RR        3ZZ-RR
 --------------------------------------------------------
     1   Atom       -0.768594      1.475428     -0.706835
     2   Atom       -0.041066     -0.025147      0.066212
     3   Atom       -1.640074      3.283985     -1.643911
 --------------------------------------------------------
                        XY            XZ            YZ
 --------------------------------------------------------
     1   Atom        0.000000     -0.013355      0.000000
     2   Atom        0.000000     -0.016556      0.000000
     3   Atom        0.000000      0.008197      0.000000
 --------------------------------------------------------


 ---------------------------------------------------------------------------------
              Anisotropic Spin Dipole Couplings in Principal Axis System
 ---------------------------------------------------------------------------------

       Atom             a.u.   MegaHertz   Gauss  10(-4) cm-1        Axes

              Baa    -0.7714    55.815    19.916    18.618  0.9792  0.0000  0.2027
     1 O(17)  Bbb    -0.7041    50.946    18.179    16.994 -0.2027  0.0000  0.9792
              Bcc     1.4754  -106.761   -38.095   -35.612  0.0000  1.0000  0.0000
 
              Baa    -0.0436   -23.243    -8.294    -7.753  0.9888  0.0000  0.1491
     2 H(1)   Bbb    -0.0251   -13.417    -4.788    -4.475  0.0000  1.0000  0.0000
              Bcc     0.0687    36.660    13.081    12.228 -0.1491  0.0000  0.9888
 
              Baa    -1.6504   119.423    42.613    39.835 -0.6213  0.0000  0.7836
     3 O(17)  Bbb    -1.6336   118.204    42.178    39.429  0.7836  0.0000  0.6213
              Bcc     3.2840  -237.627   -84.791   -79.264  0.0000  1.0000  0.0000
 

 ---------------------------------------------------------------------------------

 -------------------------------------------------------------------
 Center     Atomic                   Forces (Hartrees/Bohr)
 Number     Number              X              Y              Z
 -------------------------------------------------------------------
    1          8          -0.012714760    0.000000000   -0.020799620
    2          1           0.008451398    0.000000000    0.015768148
    3          8           0.004263362    0.000000000    0.005031473
 -------------------------------------------------------------------
 Cartesian Forces:  Max     0.020799620 RMS     0.010316340

 GradGradGradGradGradGradGradGradGradGradGradGradGradGradGradGradGradGrad
 Berny optimization.
 Internal  Forces:  Max     0.015773347 RMS     0.012778525
 Search for a local minimum.
 Step number   1 out of a maximum of  20
 All quantities printed in internal units (Hartrees-Bohrs-Radians)
 Second derivative matrix not updated -- analytic derivatives used.
 The second derivative matrix:
                          R1        R2        A1
           R1           0.52001
           R2           0.02070   0.45966
           A1          -0.01424   0.06812   0.22754
     Eigenvalues ---    0.20784   0.47275   0.52662
 RFO step:  Lambda=-1.53746622D-03.
 Linear search not attempted -- first point.
 Iteration  1 RMS(Cart)=  0.03955801 RMS(Int)=  0.00115890
 Iteration  2 RMS(Cart)=  0.00125612 RMS(Int)=  0.00000043
 Iteration  3 RMS(Cart)=  0.00000038 RMS(Int)=  0.00000000
 Variable       Old X    -DE/DX   Delta X   Delta X   Delta X     New X
                                 (Linear)    (Quad)   (Total)
    R1        1.81414   0.01577   0.00000   0.02779   0.02779   1.84192
    R2        2.49444   0.00234   0.00000   0.01408   0.01408   2.50852
    A1        1.91114  -0.01535   0.00000  -0.06947  -0.06947   1.84167
         Item               Value     Threshold  Converged?
 Maximum Force            0.015773     0.000450     NO 
 RMS     Force            0.012779     0.000300     NO 
 Maximum Displacement     0.039850     0.001800     NO 
 RMS     Displacement     0.040177     0.001200     NO 
 Predicted change in Energy=-7.731884D-04
 GradGradGradGradGradGradGradGradGradGradGradGradGradGradGradGradGradGrad

                          Input orientation:                          
 ---------------------------------------------------------------------
 Center     Atomic     Atomic              Coordinates (Angstroms)
 Number     Number      Type              X           Y           Z
 ---------------------------------------------------------------------
    1          8             0       -0.019892    0.000000   -0.015272
    2          1             0        0.021087    0.000000    0.958570
    3          8             0        1.243091    0.000000   -0.423923
 ---------------------------------------------------------------------
                    Distance matrix (angstroms):
                    1          2          3
     1  O    0.000000
     2  H    0.974704   0.000000
     3  O    1.327449   1.845150   0.000000
 Symmetry turned off by external request.
 Stoichiometry    HO2(2)
 Framework group  CS[SG(HO2)]
 Deg. of freedom     3
 Full point group                 CS
 Rotational constants (GHZ):    623.3093907     33.7400608     32.0074793
 Standard basis: CBSB7 (5D, 7F)
 Integral buffers will be    131072 words long.
 Raffenetti 2 integral format.
 Two-electron integral symmetry is turned off.
    42 basis functions,    72 primitive gaussians,    44 cartesian basis functions
     9 alpha electrons        8 beta electrons
       nuclear repulsion energy        32.1507305117 Hartrees.
 NAtoms=    3 NActive=    3 NUniq=    3 SFac= 7.50D-01 NAtFMM=   80 NAOKFM=F Big=F
 One-electron integrals computed using PRISM.
 NBasis=    42 RedAO= T  NBF=    42
 NBsUse=    42 1.00D-06 NBFU=    42
 Initial guess read from the read-write file:
 <S**2> of initial guess= 0.7528
 Harris functional with IExCor=  402 diagonalized for initial guess.
 ExpMin= 1.03D-01 ExpMax= 8.59D+03 ExpMxC= 1.30D+03 IAcc=1 IRadAn=         1 AccDes= 1.00D-06
 HarFok:  IExCor= 402 AccDes= 1.00D-06 IRadAn=         1 IDoV=1
 ScaDFX=  1.000000  1.000000  1.000000  1.000000
 Requested convergence on RMS density matrix=1.00D-08 within 128 cycles.
 Requested convergence on MAX density matrix=1.00D-06.
 Requested convergence on             energy=1.00D-06.
 No special actions if energy rises.
 Keep R1 and R2 integrals in memory in canonical form, NReq=     2713627.
 Integral accuracy reduced to 1.0D-05 until final iterations.
 Initial convergence to 1.0D-05 achieved.  Increase integral accuracy.
 SCF Done:  E(UB+HF-LYP) =  -150.950408601     A.U. after   12 cycles
             Convg  =    0.8287D-08             -V/T =  2.0017
             S**2   =   0.7528
 Annihilation of the first spin contaminant:
 S**2 before annihilation     0.7528,   after     0.7500
 Range of M.O.s used for correlation:     1    42
 NBasis=    42 NAE=     9 NBE=     8 NFC=     0 NFV=     0
 NROrb=     42 NOA=     9 NOB=     8 NVA=    33 NVB=    34
 Symmetrizing basis deriv contribution to polar:
 IMax=3 JMax=2 DiffMx= 0.00D+00
 G2DrvN: will do    4 centers at a time, making    1 passes doing MaxLOS=2.
 FoFDir/FoFCou used for L=0 through L=2.
 DoAtom=TTT
          Differentiating once with respect to electric field.
                with respect to dipole field.
          Differentiating once with respect to nuclear coordinates.
          Store integrals in memory, NReq=     1802109.
          There are  12 degrees of freedom in the 1st order CPHF.
     9 vectors were produced by pass  0.
 AX will form   9 AO Fock derivatives at one time.
     9 vectors were produced by pass  1.
     9 vectors were produced by pass  2.
     9 vectors were produced by pass  3.
     9 vectors were produced by pass  4.
     9 vectors were produced by pass  5.
     9 vectors were produced by pass  6.
     4 vectors were produced by pass  7.
     1 vectors were produced by pass  8.
 Inv2:  IOpt= 1 Iter= 1 AM= 1.46D-15 Conv= 1.00D-12.
 Inverted reduced A of dimension   68 with in-core refinement.
 Isotropic polarizability for W=    0.000000        8.63 Bohr**3.
 End of Minotr Frequency-dependent properties file   721 does not exist.
 -------------------------------------------------------------------
 Center     Atomic                   Forces (Hartrees/Bohr)
 Number     Number              X              Y              Z
 -------------------------------------------------------------------
    1          8          -0.000529627    0.000000000   -0.000471489
    2          1          -0.000032718    0.000000000    0.000683021
    3          8           0.000562345    0.000000000   -0.000211532
 -------------------------------------------------------------------
 Cartesian Forces:  Max     0.000683021 RMS     0.000384617

 GradGradGradGradGradGradGradGradGradGradGradGradGradGradGradGradGradGrad
 Berny optimization.
 Internal  Forces:  Max     0.000685745 RMS     0.000527827
 Search for a local minimum.
 Step number   2 out of a maximum of  20
 All quantities printed in internal units (Hartrees-Bohrs-Radians)
 Second derivative matrix not updated -- analytic derivatives used.
 Trust test= 1.00D+00 RLast= 7.61D-02 DXMaxT set to 3.00D-01
 The second derivative matrix:
                          R1        R2        A1
           R1           0.46927
           R2           0.02022   0.44539
           A1          -0.01633   0.08157   0.23473
     Eigenvalues ---    0.20500   0.45835   0.48604
 RFO step:  Lambda=-1.40132194D-06.
 Quintic linear search produced a step of  0.01377.
 Iteration  1 RMS(Cart)=  0.00095418 RMS(Int)=  0.00000003
 Iteration  2 RMS(Cart)=  0.00000003 RMS(Int)=  0.00000000
 Variable       Old X    -DE/DX   Delta X   Delta X   Delta X     New X
                                 (Linear)    (Quad)   (Total)
    R1        1.84192   0.00069   0.00038   0.00101   0.00139   1.84332
    R2        2.50852   0.00060   0.00019   0.00106   0.00125   2.50976
    A1        1.84167   0.00010  -0.00096   0.00101   0.00006   1.84173
         Item               Value     Threshold  Converged?
 Maximum Force            0.000686     0.000450     NO 
 RMS     Force            0.000528     0.000300     NO 
 Maximum Displacement     0.001036     0.001800     YES
 RMS     Displacement     0.000954     0.001200     YES
 Predicted change in Energy=-8.633057D-07
 GradGradGradGradGradGradGradGradGradGradGradGradGradGradGradGradGradGrad

                          Input orientation:                          
 ---------------------------------------------------------------------
 Center     Atomic     Atomic              Coordinates (Angstroms)
 Number     Number      Type              X           Y           Z
 ---------------------------------------------------------------------
    1          8             0       -0.020087    0.000000   -0.015464
    2          1             0        0.020836    0.000000    0.959118
    3          8             0        1.243538    0.000000   -0.424279
 ---------------------------------------------------------------------
                    Distance matrix (angstroms):
                    1          2          3
     1  O    0.000000
     2  H    0.975442   0.000000
     3  O    1.328110   1.846290   0.000000
 Symmetry turned off by external request.
 Stoichiometry    HO2(2)
 Framework group  CS[SG(HO2)]
 Deg. of freedom     3
 Full point group                 CS
 Rotational constants (GHZ):    622.3986130     33.7059002     31.9743350
 Standard basis: CBSB7 (5D, 7F)
 Integral buffers will be    131072 words long.
 Raffenetti 2 integral format.
 Two-electron integral symmetry is turned off.
    42 basis functions,    72 primitive gaussians,    44 cartesian basis functions
     9 alpha electrons        8 beta electrons
       nuclear repulsion energy        32.1333338276 Hartrees.
 NAtoms=    3 NActive=    3 NUniq=    3 SFac= 7.50D-01 NAtFMM=   80 NAOKFM=F Big=F
 One-electron integrals computed using PRISM.
 NBasis=    42 RedAO= T  NBF=    42
 NBsUse=    42 1.00D-06 NBFU=    42
 Initial guess read from the read-write file:
 <S**2> of initial guess= 0.7528
 Requested convergence on RMS density matrix=1.00D-08 within 128 cycles.
 Requested convergence on MAX density matrix=1.00D-06.
 Requested convergence on             energy=1.00D-06.
 No special actions if energy rises.
 Keep R1 and R2 integrals in memory in canonical form, NReq=     2713627.
 SCF Done:  E(UB+HF-LYP) =  -150.950409466     A.U. after    8 cycles
             Convg  =    0.6817D-08             -V/T =  2.0017
             S**2   =   0.7528
 Annihilation of the first spin contaminant:
 S**2 before annihilation     0.7528,   after     0.7500
 Range of M.O.s used for correlation:     1    42
 NBasis=    42 NAE=     9 NBE=     8 NFC=     0 NFV=     0
 NROrb=     42 NOA=     9 NOB=     8 NVA=    33 NVB=    34
 Symmetrizing basis deriv contribution to polar:
 IMax=3 JMax=2 DiffMx= 0.00D+00
 G2DrvN: will do    4 centers at a time, making    1 passes doing MaxLOS=2.
 FoFDir/FoFCou used for L=0 through L=2.
 DoAtom=TTT
          Differentiating once with respect to electric field.
                with respect to dipole field.
          Differentiating once with respect to nuclear coordinates.
          Store integrals in memory, NReq=     1802109.
          There are  12 degrees of freedom in the 1st order CPHF.
     9 vectors were produced by pass  0.
 AX will form   9 AO Fock derivatives at one time.
     9 vectors were produced by pass  1.
     9 vectors were produced by pass  2.
     9 vectors were produced by pass  3.
     9 vectors were produced by pass  4.
     9 vectors were produced by pass  5.
     9 vectors were produced by pass  6.
     4 vectors were produced by pass  7.
     1 vectors were produced by pass  8.
 Inv2:  IOpt= 1 Iter= 1 AM= 8.15D-16 Conv= 1.00D-12.
 Inverted reduced A of dimension   68 with in-core refinement.
 Isotropic polarizability for W=    0.000000        8.64 Bohr**3.
 End of Minotr Frequency-dependent properties file   721 does not exist.
 -------------------------------------------------------------------
 Center     Atomic                   Forces (Hartrees/Bohr)
 Number     Number              X              Y              Z
 -------------------------------------------------------------------
    1          8          -0.000003425    0.000000000   -0.000009862
    2          1          -0.000010859    0.000000000    0.000005199
    3          8           0.000014285    0.000000000    0.000004663
 -------------------------------------------------------------------
 Cartesian Forces:  Max     0.000014285 RMS     0.000007301

 GradGradGradGradGradGradGradGradGradGradGradGradGradGradGradGradGradGrad
 Berny optimization.
 Internal  Forces:  Max     0.000009446 RMS     0.000007907
 Search for a local minimum.
 Step number   3 out of a maximum of  20
 All quantities printed in internal units (Hartrees-Bohrs-Radians)
 Second derivative matrix not updated -- analytic derivatives used.
 Trust test= 1.00D+00 RLast= 1.87D-03 DXMaxT set to 3.00D-01
 The second derivative matrix:
                          R1        R2        A1
           R1           0.46681
           R2           0.02020   0.44339
           A1          -0.01634   0.08139   0.23448
     Eigenvalues ---    0.20466   0.45620   0.48382
 RFO step:  Lambda= 0.00000000D+00.
 Quintic linear search produced a step of  0.01448.
 Iteration  1 RMS(Cart)=  0.00002007 RMS(Int)=  0.00000000
 Iteration  2 RMS(Cart)=  0.00000000 RMS(Int)=  0.00000000
 Variable       Old X    -DE/DX   Delta X   Delta X   Delta X     New X
                                 (Linear)    (Quad)   (Total)
    R1        1.84332   0.00001   0.00002   0.00000   0.00002   1.84334
    R2        2.50976   0.00001   0.00002   0.00000   0.00002   2.50978
    A1        1.84173   0.00000   0.00000   0.00002   0.00002   1.84174
         Item               Value     Threshold  Converged?
 Maximum Force            0.000009     0.000450     YES
 RMS     Force            0.000008     0.000300     YES
 Maximum Displacement     0.000020     0.001800     YES
 RMS     Displacement     0.000020     0.001200     YES
 Predicted change in Energy=-2.021186D-10
 Optimization completed.
    -- Stationary point found.
                           ----------------------------
                           !   Optimized Parameters   !
                           ! (Angstroms and Degrees)  !
 --------------------------                            --------------------------
 ! Name  Definition              Value          Derivative Info.                !
 --------------------------------------------------------------------------------
 ! R1    R(1,2)                  0.9754         -DE/DX =    0.0                 !
 ! R2    R(1,3)                  1.3281         -DE/DX =    0.0                 !
 ! A1    A(2,1,3)              105.5233         -DE/DX =    0.0                 !
 --------------------------------------------------------------------------------
 GradGradGradGradGradGradGradGradGradGradGradGradGradGradGradGradGradGrad

                          Input orientation:                          
 ---------------------------------------------------------------------
 Center     Atomic     Atomic              Coordinates (Angstroms)
 Number     Number      Type              X           Y           Z
 ---------------------------------------------------------------------
    1          8             0       -0.020087    0.000000   -0.015464
    2          1             0        0.020836    0.000000    0.959118
    3          8             0        1.243538    0.000000   -0.424279
 ---------------------------------------------------------------------
                    Distance matrix (angstroms):
                    1          2          3
     1  O    0.000000
     2  H    0.975442   0.000000
     3  O    1.328110   1.846290   0.000000
 Symmetry turned off by external request.
 Stoichiometry    HO2(2)
 Framework group  CS[SG(HO2)]
 Deg. of freedom     3
 Full point group                 CS
 Rotational constants (GHZ):    622.3986130     33.7059002     31.9743350

 **********************************************************************

            Population analysis using the SCF density.

 **********************************************************************

 Alpha  occ. eigenvalues --  -19.24368 -19.20182  -1.20324  -0.87610  -0.56746
 Alpha  occ. eigenvalues --   -0.49707  -0.48196  -0.30596  -0.29980
 Alpha virt. eigenvalues --    0.01137   0.10556   0.35883   0.68499   0.69995
 Alpha virt. eigenvalues --    0.74639   0.74809   0.79344   0.81853   0.99137
 Alpha virt. eigenvalues --    1.22801   1.29773   1.43071   1.87344   2.29348
 Alpha virt. eigenvalues --    2.35184   2.56842   2.63326   2.73371   2.78773
 Alpha virt. eigenvalues --    3.02596   3.24333   3.34707   3.57213   3.74755
 Alpha virt. eigenvalues --    4.56017   4.56829   4.72583   4.77663   5.21771
 Alpha virt. eigenvalues --    5.83405  49.61079  49.67827
  Beta  occ. eigenvalues --  -19.23498 -19.18093  -1.17618  -0.83469  -0.55202
  Beta  occ. eigenvalues --   -0.46644  -0.41809  -0.28056
  Beta virt. eigenvalues --   -0.12158   0.01485   0.12631   0.36112   0.70657
  Beta virt. eigenvalues --    0.72164   0.75079   0.75892   0.82690   0.84422
  Beta virt. eigenvalues --    1.00303   1.24622   1.30243   1.43091   1.87585
  Beta virt. eigenvalues --    2.30076   2.39233   2.57549   2.65841   2.79352
  Beta virt. eigenvalues --    2.85184   3.05320   3.29205   3.35707   3.59059
  Beta virt. eigenvalues --    3.75998   4.57859   4.61966   4.74237   4.84718
  Beta virt. eigenvalues --    5.22675   5.84823  49.62918  49.68947
          Condensed to atoms (all electrons):
              1          2          3
     1  O    7.803358   0.276960   0.055150
     2  H    0.276960   0.486594  -0.042399
     3  O    0.055150  -0.042399   8.130624
 Mulliken atomic charges:
              1
     1  O   -0.135469
     2  H    0.278844
     3  O   -0.143375
 Sum of Mulliken charges=   0.00000
 Atomic charges with hydrogens summed into heavy atoms:
              1
     1  O    0.143375
     2  H    0.000000
     3  O   -0.143375
 Sum of Mulliken charges=   0.00000
          Atomic-Atomic Spin Densities.
              1          2          3
     1  O    0.388724   0.002338  -0.129110
     2  H    0.002338  -0.012416   0.000370
     3  O   -0.129110   0.000370   0.876495
 Mulliken atomic spin densities:
              1
     1  O    0.261952
     2  H   -0.009708
     3  O    0.747756
 Sum of Mulliken spin densities=   1.00000
 APT atomic charges:
              1
     1  O   -0.243704
     2  H    0.260709
     3  O   -0.017005
 Sum of APT charges=   0.00000
 APT Atomic charges with hydrogens summed into heavy atoms:
              1
     1  O    0.017005
     2  H    0.000000
     3  O   -0.017005
 Sum of APT charges=   0.00000
 Electronic spatial extent (au):  <R**2>=    77.1110
 Charge=     0.0000 electrons
 Dipole moment (field-independent basis, Debye):
    X=    -0.7880    Y=     0.0000    Z=     2.1685  Tot=     2.3072
 Quadrupole moment (field-independent basis, Debye-Ang):
   XX=   -12.6476   YY=   -10.7618   ZZ=    -9.5243
   XY=     0.0000   XZ=     0.3410   YZ=     0.0000
 Traceless Quadrupole moment (field-independent basis, Debye-Ang):
   XX=    -1.6697   YY=     0.2161   ZZ=     1.4536
   XY=     0.0000   XZ=     0.3410   YZ=     0.0000
 Octapole moment (field-independent basis, Debye-Ang**2):
  XXX=   -21.4882  YYY=     0.0000  ZZZ=     8.1641  XYY=    -6.0553
  XXY=     0.0000  XXZ=     2.2772  XZZ=    -7.0095  YZZ=     0.0000
  YYZ=     1.8034  XYZ=     0.0000
 Hexadecapole moment (field-independent basis, Debye-Ang**3):
 XXXX=   -58.3924 YYYY=    -7.3681 ZZZZ=   -14.4287 XXXY=     0.0000
 XXXZ=     7.7694 YYYX=     0.0000 YYYZ=     0.0000 ZZZX=     9.1033
 ZZZY=     0.0000 XXYY=   -10.3464 XXZZ=   -12.6486 YYZZ=    -3.8297
 XXYZ=     0.0000 YYXZ=     2.6199 ZZXY=     0.0000
 N-N= 3.213333382762D+01 E-N=-4.218909961898D+02  KE= 1.506892829702D+02
  Exact polarizability:  12.686   0.000   4.639  -3.659   0.000   8.601
 Approx polarizability:  20.588   0.000   5.389  -5.919   0.000  11.028
                          Isotropic Fermi Contact Couplings
        Atom                 a.u.       MegaHertz       Gauss      10(-4) cm-1
     1  O(17)              0.03323     -20.14453      -7.18807      -6.71949
     2  H(1)              -0.00569     -25.41830      -9.06988      -8.47863
     3  O(17)              0.05271     -31.95098     -11.40090     -10.65770
 --------------------------------------------------------
       Center         ----  Spin Dipole Couplings  ----
                      3XX-RR        3YY-RR        3ZZ-RR
 --------------------------------------------------------
     1   Atom       -0.766044      1.466877     -0.700834
     2   Atom       -0.037874     -0.026365      0.064238
     3   Atom       -1.641601      3.290476     -1.648875
 --------------------------------------------------------
                        XY            XZ            YZ
 --------------------------------------------------------
     1   Atom        0.000000     -0.010278      0.000000
     2   Atom        0.000000     -0.013197      0.000000
     3   Atom        0.000000      0.007317      0.000000
 --------------------------------------------------------


 ---------------------------------------------------------------------------------
              Anisotropic Spin Dipole Couplings in Principal Axis System
 ---------------------------------------------------------------------------------

       Atom             a.u.   MegaHertz   Gauss  10(-4) cm-1        Axes

              Baa    -0.7676    55.545    19.820    18.528  0.9884  0.0000  0.1521
     1 O(17)  Bbb    -0.6993    50.597    18.054    16.877 -0.1521  0.0000  0.9884
              Bcc     1.4669  -106.142   -37.874   -35.405  0.0000  1.0000  0.0000
 
              Baa    -0.0396   -21.103    -7.530    -7.039  0.9920  0.0000  0.1261
     2 H(1)   Bbb    -0.0264   -14.067    -5.019    -4.692  0.0000  1.0000  0.0000
              Bcc     0.0659    35.170    12.549    11.731 -0.1261  0.0000  0.9920
 
              Baa    -1.6534   119.640    42.690    39.907 -0.5267  0.0000  0.8500
     3 O(17)  Bbb    -1.6371   118.457    42.268    39.513  0.8500  0.0000  0.5267
              Bcc     3.2905  -238.097   -84.959   -79.420  0.0000  1.0000  0.0000
 

 ---------------------------------------------------------------------------------

 Full mass-weighted force constant matrix:
 Low frequencies ---   -0.0009    0.0009    0.0010    8.4203   10.2726   29.4866
 Low frequencies --- 1163.6498 1427.8614 3610.4617
 Diagonal vibrational polarizability:
        0.9752201       0.0000000       0.0827787
 Harmonic frequencies (cm**-1), IR intensities (KM/Mole), Raman scattering
 activities (A**4/AMU), depolarization ratios for plane and unpolarized
 incident light, reduced masses (AMU), force constants (mDyne/A),
 and normal coordinates:
                     1                      2                      3
                    A"                     A"                     A"
 Frequencies --  1163.6498              1427.8614              3610.4617
 Red. masses --    11.9122                 1.1441                 1.0692
 Frc consts  --     9.5036                 1.3743                 8.2114
 IR Inten    --    28.7833                33.4441                21.5577
 Atom AN      X      Y      Z        X      Y      Z        X      Y      Z
   1   8     0.60   0.00  -0.16    -0.02   0.00  -0.05     0.01   0.00   0.06
   2   1    -0.52   0.00  -0.04     0.99   0.00  -0.13    -0.07   0.00  -1.00
   3   8    -0.57   0.00   0.16    -0.04   0.00   0.06     0.00   0.00   0.00

 -------------------
 - Thermochemistry -
 -------------------
 Temperature   298.150 Kelvin.  Pressure   1.00000 Atm.
 Atom  1 has atomic number  8 and mass  15.99491
 Atom  2 has atomic number  1 and mass   1.00783
 Atom  3 has atomic number  8 and mass  15.99491
 Molecular mass:    32.99765 amu.
 Principal axes and moments of inertia in atomic units:
                           1         2         3
     EIGENVALUES --     2.89965  53.54378  56.44343
           X            0.93126   0.36436   0.00000
           Y            0.00000   0.00000   1.00000
           Z           -0.36436   0.93126   0.00000
 This molecule is an asymmetric top.
 Rotational symmetry number  1.
 Rotational temperatures (Kelvin)     29.87039     1.61763     1.53452
 Rotational constants (GHZ):         622.39861    33.70590    31.97434
 Zero-point vibrational energy      37096.0 (Joules/Mol)
                                    8.86617 (Kcal/Mol)
 Vibrational temperatures:   1674.23  2054.37  5194.64
          (Kelvin)
 
 Zero-point correction=                           0.014129 (Hartree/Particle)
 Thermal correction to Energy=                    0.016988
 Thermal correction to Enthalpy=                  0.017932
 Thermal correction to Gibbs Free Energy=        -0.008047
 Sum of electronic and zero-point Energies=           -150.936280
 Sum of electronic and thermal Energies=              -150.933422
 Sum of electronic and thermal Enthalpies=            -150.932478
 Sum of electronic and thermal Free Energies=         -150.958457
 
                     E (Thermal)             CV                S
                      KCal/Mol        Cal/Mol-Kelvin    Cal/Mol-Kelvin
 Total                   10.660              6.288             54.678
 Electronic               0.000              0.000              1.377
 Translational            0.889              2.981             36.413
 Rotational               0.889              2.981             16.823
 Vibrational              8.882              0.326              0.064
                       Q            Log10(Q)             Ln(Q)
 Total Bot       0.502898D+04          3.701480          8.522973
 Total V=0       0.158642D+11         10.200417         23.487328
 Vib (Bot)       0.318485D-06         -6.496910        -14.959689
 Vib (V=0)       0.100468D+01          0.002026          0.004666
 Electronic      0.200000D+01          0.301030          0.693147
 Translational   0.745040D+07          6.872180         15.823779
 Rotational      0.105969D+04          3.025181          6.965736
 -------------------------------------------------------------------
 Center     Atomic                   Forces (Hartrees/Bohr)
 Number     Number              X              Y              Z
 -------------------------------------------------------------------
    1          8          -0.000003425    0.000000000   -0.000009862
    2          1          -0.000010859    0.000000000    0.000005199
    3          8           0.000014285    0.000000000    0.000004663
 -------------------------------------------------------------------
 Cartesian Forces:  Max     0.000014285 RMS     0.000007301
 Final structure in terms of initial Z-matrix:
 O
 H,1,B1
 O,1,B2,2,A1
      Variables:
 B1=0.97544163
 B2=1.32811014
 A1=105.52326206
 1\1\GINC-NODE04\Freq\UB3LYP\CBSB7\H1O2(2)\MRHARPER\09-Apr-2010\0\\# op
 t=calcall nosymm cbs-qb3\\HO2: geom\\0,2\O,-0.0200869307,0.,-0.0154643
 969\H,0.0208360402,0.,0.9591184293\O,1.2435376582,0.,-0.4242790879\\Ve
 rsion=AM64L-G03RevD.01\HF=-150.9504095\S2=0.752817\S2-1=0.\S2A=0.75000
 5\RMSD=6.817e-09\RMSF=7.301e-06\ZeroPoint=0.0141291\Thermal=0.0169877\
 Dipole=-0.3100107,0.,0.8531405\DipoleDeriv=-0.4405361,0.,0.1054686,0.,
 -0.2603755,0.,0.2748241,0.,-0.0302009,0.225075,0.,-0.0208502,0.,0.4032
 781,0.,-0.0220596,0.,0.1537753,0.2154611,0.,-0.0846184,0.,-0.1429026,0
 .,-0.2527645,0.,-0.1235744\Polar=12.6864847,0.,4.6386099,-3.6585393,0.
 ,8.6010141\PG=CS [SG(H1O2)]\NImag=0\\0.40535697,0.,0.00011194,-0.03566
 697,0.,0.55486396,-0.04493869,0.,-0.08724479,0.07042106,0.,-0.00004720
 ,0.,0.,0.00002606,-0.04781113,0.,-0.46273972,0.02549525,0.,0.46536456,
 -0.36041828,0.,0.12291175,-0.02548238,0.,0.02231589,0.38590066,0.,-0.0
 0006474,0.,0.,0.00002114,0.,0.,0.00004361,0.08347810,0.,-0.09212423,0.
 06174954,0.,-0.00262483,-0.14522764,0.,0.09474906\\0.00000343,0.,0.000
 00986,0.00001086,0.,-0.00000520,-0.00001428,0.,-0.00000466\\\@


 A people that values its privileges above its principles soon loses both.
 -- Dwight D. Eisenhower
 Job cpu time:  0 days  0 hours  4 minutes  7.2 seconds.
 File lengths (MBytes):  RWF=     18 Int=      0 D2E=      0 Chk=     10 Scr=      1
 Normal termination of Gaussian 03 at Fri Apr  9 11:06:46 2010.
 Link1:  Proceeding to internal job step number  2.
 -------------------------------------------------------
 #N Geom=AllCheck Guess=Read SCRF=Check B3LYP/CBSB7 Freq
 -------------------------------------------------------
 1/10=4,29=7,30=1,38=1,40=1,46=1/1,3;
 2/15=1,40=1/2;
 3/5=4,6=6,7=700,11=2,16=1,25=1,30=1,70=2,71=2,74=-5/1,2,3;
 4/5=1/1;
 5/5=2,38=6/2;
 8/6=4,10=90,11=11/1;
 11/6=1,8=1,9=11,15=111,16=1,31=1/1,2,10;
 10/6=1,31=1/2;
 6/7=2,8=2,9=2,10=2,18=1,28=1/1;
 7/8=1,10=1,25=1,30=1/1,2,3,16;
 1/10=4,30=1,46=1/3;
 99//99;
 ---------
 HO2: geom
 ---------
 Redundant internal coordinates taken from checkpoint file:
 HO2-geom.chk
 Charge =  0 Multiplicity = 2
 O,0,-0.0200869307,0.,-0.0154643969
 H,0,0.0208360402,0.,0.9591184293
 O,0,1.2435376582,0.,-0.4242790879
 Recover connectivity data from disk.

 GradGradGradGradGradGradGradGradGradGradGradGradGradGradGradGradGradGrad
 Berny optimization.
 Initialization pass.
                           ----------------------------
                           !    Initial Parameters    !
                           ! (Angstroms and Degrees)  !
 --------------------------                            --------------------------
 ! Name  Definition              Value          Derivative Info.                !
 --------------------------------------------------------------------------------
 ! R1    R(1,2)                  0.9754         calculate D2E/DX2 analytically  !
 ! R2    R(1,3)                  1.3281         calculate D2E/DX2 analytically  !
 ! A1    A(2,1,3)              105.5233         calculate D2E/DX2 analytically  !
 --------------------------------------------------------------------------------
 Trust Radius=3.00D-01 FncErr=1.00D-07 GrdErr=1.00D-07
 Number of steps in this run=   2 maximum allowed number of steps=   2.
 GradGradGradGradGradGradGradGradGradGradGradGradGradGradGradGradGradGrad

                          Input orientation:                          
 ---------------------------------------------------------------------
 Center     Atomic     Atomic              Coordinates (Angstroms)
 Number     Number      Type              X           Y           Z
 ---------------------------------------------------------------------
    1          8             0       -0.020087    0.000000   -0.015464
    2          1             0        0.020836    0.000000    0.959118
    3          8             0        1.243538    0.000000   -0.424279
 ---------------------------------------------------------------------
                    Distance matrix (angstroms):
                    1          2          3
     1  O    0.000000
     2  H    0.975442   0.000000
     3  O    1.328110   1.846290   0.000000
 Symmetry turned off by external request.
 Stoichiometry    HO2(2)
 Framework group  CS[SG(HO2)]
 Deg. of freedom     3
 Full point group                 CS
 Rotational constants (GHZ):    622.3986130     33.7059002     31.9743350
 Standard basis: CBSB7 (5D, 7F)
 Integral buffers will be    131072 words long.
 Raffenetti 2 integral format.
 Two-electron integral symmetry is turned off.
    42 basis functions,    72 primitive gaussians,    44 cartesian basis functions
     9 alpha electrons        8 beta electrons
       nuclear repulsion energy        32.1333338276 Hartrees.
 NAtoms=    3 NActive=    3 NUniq=    3 SFac= 7.50D-01 NAtFMM=   80 NAOKFM=F Big=F
 One-electron integrals computed using PRISM.
 NBasis=    42 RedAO= T  NBF=    42
 NBsUse=    42 1.00D-06 NBFU=    42
 Initial guess read from the checkpoint file:
 HO2-geom.chk
 <S**2> of initial guess= 0.7528
 Requested convergence on RMS density matrix=1.00D-08 within 128 cycles.
 Requested convergence on MAX density matrix=1.00D-06.
 Requested convergence on             energy=1.00D-06.
 No special actions if energy rises.
 Keep R1 and R2 integrals in memory in canonical form, NReq=     2713627.
 SCF Done:  E(UB+HF-LYP) =  -150.950409466     A.U. after    1 cycles
             Convg  =    0.1640D-08             -V/T =  2.0017
             S**2   =   0.7528
 Annihilation of the first spin contaminant:
 S**2 before annihilation     0.7528,   after     0.7500
 Range of M.O.s used for correlation:     1    42
 NBasis=    42 NAE=     9 NBE=     8 NFC=     0 NFV=     0
 NROrb=     42 NOA=     9 NOB=     8 NVA=    33 NVB=    34
 Symmetrizing basis deriv contribution to polar:
 IMax=3 JMax=2 DiffMx= 0.00D+00
 G2DrvN: will do    4 centers at a time, making    1 passes doing MaxLOS=2.
 FoFDir/FoFCou used for L=0 through L=2.
 DoAtom=TTT
          Differentiating once with respect to electric field.
                with respect to dipole field.
          Differentiating once with respect to nuclear coordinates.
          Store integrals in memory, NReq=     1802109.
          There are  12 degrees of freedom in the 1st order CPHF.
     9 vectors were produced by pass  0.
 AX will form   9 AO Fock derivatives at one time.
     9 vectors were produced by pass  1.
     9 vectors were produced by pass  2.
     9 vectors were produced by pass  3.
     9 vectors were produced by pass  4.
     9 vectors were produced by pass  5.
     9 vectors were produced by pass  6.
     4 vectors were produced by pass  7.
     1 vectors were produced by pass  8.
 Inv2:  IOpt= 1 Iter= 1 AM= 1.19D-15 Conv= 1.00D-12.
 Inverted reduced A of dimension   68 with in-core refinement.
 Isotropic polarizability for W=    0.000000        8.64 Bohr**3.
 End of Minotr Frequency-dependent properties file   721 does not exist.

 **********************************************************************

            Population analysis using the SCF density.

 **********************************************************************

 Alpha  occ. eigenvalues --  -19.24368 -19.20182  -1.20324  -0.87610  -0.56746
 Alpha  occ. eigenvalues --   -0.49707  -0.48196  -0.30596  -0.29980
 Alpha virt. eigenvalues --    0.01137   0.10556   0.35883   0.68499   0.69995
 Alpha virt. eigenvalues --    0.74639   0.74809   0.79344   0.81853   0.99137
 Alpha virt. eigenvalues --    1.22801   1.29773   1.43071   1.87344   2.29348
 Alpha virt. eigenvalues --    2.35184   2.56842   2.63326   2.73371   2.78773
 Alpha virt. eigenvalues --    3.02596   3.24333   3.34707   3.57213   3.74755
 Alpha virt. eigenvalues --    4.56017   4.56829   4.72583   4.77663   5.21771
 Alpha virt. eigenvalues --    5.83405  49.61079  49.67827
  Beta  occ. eigenvalues --  -19.23498 -19.18093  -1.17618  -0.83469  -0.55202
  Beta  occ. eigenvalues --   -0.46644  -0.41809  -0.28056
  Beta virt. eigenvalues --   -0.12158   0.01485   0.12631   0.36112   0.70657
  Beta virt. eigenvalues --    0.72164   0.75079   0.75892   0.82690   0.84422
  Beta virt. eigenvalues --    1.00303   1.24622   1.30243   1.43091   1.87585
  Beta virt. eigenvalues --    2.30076   2.39233   2.57549   2.65841   2.79352
  Beta virt. eigenvalues --    2.85184   3.05320   3.29205   3.35707   3.59059
  Beta virt. eigenvalues --    3.75998   4.57859   4.61966   4.74237   4.84718
  Beta virt. eigenvalues --    5.22675   5.84823  49.62918  49.68947
          Condensed to atoms (all electrons):
              1          2          3
     1  O    7.803358   0.276960   0.055150
     2  H    0.276960   0.486594  -0.042399
     3  O    0.055150  -0.042399   8.130624
 Mulliken atomic charges:
              1
     1  O   -0.135469
     2  H    0.278844
     3  O   -0.143375
 Sum of Mulliken charges=   0.00000
 Atomic charges with hydrogens summed into heavy atoms:
              1
     1  O    0.143375
     2  H    0.000000
     3  O   -0.143375
 Sum of Mulliken charges=   0.00000
          Atomic-Atomic Spin Densities.
              1          2          3
     1  O    0.388724   0.002338  -0.129110
     2  H    0.002338  -0.012416   0.000370
     3  O   -0.129110   0.000370   0.876495
 Mulliken atomic spin densities:
              1
     1  O    0.261952
     2  H   -0.009708
     3  O    0.747756
 Sum of Mulliken spin densities=   1.00000
 APT atomic charges:
              1
     1  O   -0.243704
     2  H    0.260709
     3  O   -0.017005
 Sum of APT charges=   0.00000
 APT Atomic charges with hydrogens summed into heavy atoms:
              1
     1  O    0.017005
     2  H    0.000000
     3  O   -0.017005
 Sum of APT charges=   0.00000
 Electronic spatial extent (au):  <R**2>=    77.1110
 Charge=     0.0000 electrons
 Dipole moment (field-independent basis, Debye):
    X=    -0.7880    Y=     0.0000    Z=     2.1685  Tot=     2.3072
 Quadrupole moment (field-independent basis, Debye-Ang):
   XX=   -12.6476   YY=   -10.7618   ZZ=    -9.5243
   XY=     0.0000   XZ=     0.3410   YZ=     0.0000
 Traceless Quadrupole moment (field-independent basis, Debye-Ang):
   XX=    -1.6697   YY=     0.2161   ZZ=     1.4536
   XY=     0.0000   XZ=     0.3410   YZ=     0.0000
 Octapole moment (field-independent basis, Debye-Ang**2):
  XXX=   -21.4882  YYY=     0.0000  ZZZ=     8.1641  XYY=    -6.0553
  XXY=     0.0000  XXZ=     2.2772  XZZ=    -7.0095  YZZ=     0.0000
  YYZ=     1.8034  XYZ=     0.0000
 Hexadecapole moment (field-independent basis, Debye-Ang**3):
 XXXX=   -58.3924 YYYY=    -7.3681 ZZZZ=   -14.4287 XXXY=     0.0000
 XXXZ=     7.7694 YYYX=     0.0000 YYYZ=     0.0000 ZZZX=     9.1033
 ZZZY=     0.0000 XXYY=   -10.3464 XXZZ=   -12.6486 YYZZ=    -3.8297
 XXYZ=     0.0000 YYXZ=     2.6199 ZZXY=     0.0000
 N-N= 3.213333382762D+01 E-N=-4.218909960952D+02  KE= 1.506892828951D+02
  Exact polarizability:  12.686   0.000   4.639  -3.659   0.000   8.601
 Approx polarizability:  20.588   0.000   5.389  -5.919   0.000  11.028
                          Isotropic Fermi Contact Couplings
        Atom                 a.u.       MegaHertz       Gauss      10(-4) cm-1
     1  O(17)              0.03323     -20.14450      -7.18806      -6.71948
     2  H(1)              -0.00569     -25.41820      -9.06985      -8.47860
     3  O(17)              0.05271     -31.95093     -11.40089     -10.65768
 --------------------------------------------------------
       Center         ----  Spin Dipole Couplings  ----
                      3XX-RR        3YY-RR        3ZZ-RR
 --------------------------------------------------------
     1   Atom       -0.766044      1.466878     -0.700834
     2   Atom       -0.037874     -0.026365      0.064238
     3   Atom       -1.641601      3.290476     -1.648875
 --------------------------------------------------------
                        XY            XZ            YZ
 --------------------------------------------------------
     1   Atom        0.000000     -0.010278      0.000000
     2   Atom        0.000000     -0.013197      0.000000
     3   Atom        0.000000      0.007317      0.000000
 --------------------------------------------------------


 ---------------------------------------------------------------------------------
              Anisotropic Spin Dipole Couplings in Principal Axis System
 ---------------------------------------------------------------------------------

       Atom             a.u.   MegaHertz   Gauss  10(-4) cm-1        Axes

              Baa    -0.7676    55.545    19.820    18.528  0.9884  0.0000  0.1521
     1 O(17)  Bbb    -0.6993    50.597    18.054    16.877 -0.1521  0.0000  0.9884
              Bcc     1.4669  -106.142   -37.874   -35.405  0.0000  1.0000  0.0000
 
              Baa    -0.0396   -21.103    -7.530    -7.039  0.9920  0.0000  0.1261
     2 H(1)   Bbb    -0.0264   -14.067    -5.019    -4.692  0.0000  1.0000  0.0000
              Bcc     0.0659    35.170    12.549    11.731 -0.1261  0.0000  0.9920
 
              Baa    -1.6534   119.640    42.690    39.907 -0.5267  0.0000  0.8500
     3 O(17)  Bbb    -1.6371   118.457    42.268    39.513  0.8500  0.0000  0.5267
              Bcc     3.2905  -238.097   -84.959   -79.420  0.0000  1.0000  0.0000
 

 ---------------------------------------------------------------------------------

 Full mass-weighted force constant matrix:
 Low frequencies ---   -0.0017   -0.0009    0.0009    8.4197   10.2714   29.4875
 Low frequencies --- 1163.6498 1427.8613 3610.4617
 Diagonal vibrational polarizability:
        0.9752203       0.0000000       0.0827787
 Harmonic frequencies (cm**-1), IR intensities (KM/Mole), Raman scattering
 activities (A**4/AMU), depolarization ratios for plane and unpolarized
 incident light, reduced masses (AMU), force constants (mDyne/A),
 and normal coordinates:
                     1                      2                      3
                    A"                     A"                     A"
 Frequencies --  1163.6498              1427.8613              3610.4617
 Red. masses --    11.9122                 1.1441                 1.0692
 Frc consts  --     9.5036                 1.3743                 8.2114
 IR Inten    --    28.7834                33.4441                21.5577
 Atom AN      X      Y      Z        X      Y      Z        X      Y      Z
   1   8     0.60   0.00  -0.16    -0.02   0.00  -0.05     0.01   0.00   0.06
   2   1    -0.52   0.00  -0.04     0.99   0.00  -0.13    -0.07   0.00  -1.00
   3   8    -0.57   0.00   0.16    -0.04   0.00   0.06     0.00   0.00   0.00

 -------------------
 - Thermochemistry -
 -------------------
 Temperature   298.150 Kelvin.  Pressure   1.00000 Atm.
 Atom  1 has atomic number  8 and mass  15.99491
 Atom  2 has atomic number  1 and mass   1.00783
 Atom  3 has atomic number  8 and mass  15.99491
 Molecular mass:    32.99765 amu.
 Principal axes and moments of inertia in atomic units:
                           1         2         3
     EIGENVALUES --     2.89965  53.54378  56.44343
           X            0.93126   0.36436   0.00000
           Y            0.00000   0.00000   1.00000
           Z           -0.36436   0.93126   0.00000
 This molecule is an asymmetric top.
 Rotational symmetry number  1.
 Rotational temperatures (Kelvin)     29.87039     1.61763     1.53452
 Rotational constants (GHZ):         622.39861    33.70590    31.97434
 Zero-point vibrational energy      37096.0 (Joules/Mol)
                                    8.86617 (Kcal/Mol)
 Vibrational temperatures:   1674.23  2054.37  5194.64
          (Kelvin)
 
 Zero-point correction=                           0.014129 (Hartree/Particle)
 Thermal correction to Energy=                    0.016988
 Thermal correction to Enthalpy=                  0.017932
 Thermal correction to Gibbs Free Energy=        -0.008047
 Sum of electronic and zero-point Energies=           -150.936280
 Sum of electronic and thermal Energies=              -150.933422
 Sum of electronic and thermal Enthalpies=            -150.932478
 Sum of electronic and thermal Free Energies=         -150.958457
 
                     E (Thermal)             CV                S
                      KCal/Mol        Cal/Mol-Kelvin    Cal/Mol-Kelvin
 Total                   10.660              6.288             54.678
 Electronic               0.000              0.000              1.377
 Translational            0.889              2.981             36.413
 Rotational               0.889              2.981             16.823
 Vibrational              8.882              0.326              0.064
                       Q            Log10(Q)             Ln(Q)
 Total Bot       0.502898D+04          3.701480          8.522973
 Total V=0       0.158642D+11         10.200417         23.487328
 Vib (Bot)       0.318485D-06         -6.496910        -14.959689
 Vib (V=0)       0.100468D+01          0.002026          0.004666
 Electronic      0.200000D+01          0.301030          0.693147
 Translational   0.745040D+07          6.872180         15.823779
 Rotational      0.105969D+04          3.025181          6.965736
 -------------------------------------------------------------------
 Center     Atomic                   Forces (Hartrees/Bohr)
 Number     Number              X              Y              Z
 -------------------------------------------------------------------
    1          8          -0.000003443    0.000000000   -0.000009860
    2          1          -0.000010862    0.000000000    0.000005203
    3          8           0.000014305    0.000000000    0.000004657
 -------------------------------------------------------------------
 Cartesian Forces:  Max     0.000014305 RMS     0.000007306

 GradGradGradGradGradGradGradGradGradGradGradGradGradGradGradGradGradGrad
 Berny optimization.
 Internal  Forces:  Max     0.000009451 RMS     0.000007917
 Search for a local minimum.
 Step number   1 out of a maximum of   2
 All quantities printed in internal units (Hartrees-Bohrs-Radians)
 Second derivative matrix not updated -- analytic derivatives used.
 The second derivative matrix:
                          R1        R2        A1
           R1           0.46681
           R2           0.02020   0.44339
           A1          -0.01634   0.08139   0.23448
     Eigenvalues ---    0.20466   0.45620   0.48382
 Angle between quadratic step and forces=  12.80 degrees.
 Linear search not attempted -- first point.
 Iteration  1 RMS(Cart)=  0.00002009 RMS(Int)=  0.00000000
 Iteration  2 RMS(Cart)=  0.00000000 RMS(Int)=  0.00000000
 Variable       Old X    -DE/DX   Delta X   Delta X   Delta X     New X
                                 (Linear)    (Quad)   (Total)
    R1        1.84332   0.00001   0.00000   0.00002   0.00002   1.84334
    R2        2.50976   0.00001   0.00000   0.00002   0.00002   2.50978
    A1        1.84173   0.00000   0.00000   0.00002   0.00002   1.84174
         Item               Value     Threshold  Converged?
 Maximum Force            0.000009     0.000450     YES
 RMS     Force            0.000008     0.000300     YES
 Maximum Displacement     0.000020     0.001800     YES
 RMS     Displacement     0.000020     0.001200     YES
 Predicted change in Energy=-2.025898D-10
 Optimization completed.
    -- Stationary point found.
                           ----------------------------
                           !   Optimized Parameters   !
                           ! (Angstroms and Degrees)  !
 --------------------------                            --------------------------
 ! Name  Definition              Value          Derivative Info.                !
 --------------------------------------------------------------------------------
 ! R1    R(1,2)                  0.9754         -DE/DX =    0.0                 !
 ! R2    R(1,3)                  1.3281         -DE/DX =    0.0                 !
 ! A1    A(2,1,3)              105.5233         -DE/DX =    0.0                 !
 --------------------------------------------------------------------------------
 GradGradGradGradGradGradGradGradGradGradGradGradGradGradGradGradGradGrad

 1\1\GINC-NODE04\Freq\UB3LYP\CBSB7\H1O2(2)\MRHARPER\09-Apr-2010\0\\#N G
 eom=AllCheck Guess=Read SCRF=Check B3LYP/CBSB7 Freq\\HO2: geom\\0,2\O,
 -0.0200869307,0.,-0.0154643969\H,0.0208360402,0.,0.9591184293\O,1.2435
 376582,0.,-0.4242790879\\Version=AM64L-G03RevD.01\HF=-150.9504095\S2=0
 .752817\S2-1=0.\S2A=0.750005\RMSD=1.640e-09\RMSF=7.306e-06\ZeroPoint=0
 .0141291\Thermal=0.0169877\Dipole=-0.3100105,0.,0.8531404\DipoleDeriv=
 -0.4405363,0.,0.1054686,0.,-0.2603755,0.,0.2748241,0.,-0.030201,0.2250
 75,0.,-0.0208502,0.,0.4032781,0.,-0.0220596,0.,0.1537754,0.2154612,0.,
 -0.0846184,0.,-0.1429026,0.,-0.2527645,0.,-0.1235744\Polar=12.6864845,
 0.,4.6386099,-3.6585392,0.,8.601014\PG=CS [SG(H1O2)]\NImag=0\\0.405356
 97,0.,0.00011193,-0.03566698,0.,0.55486395,-0.04493868,0.,-0.08724478,
 0.07042106,0.,-0.00004720,0.,0.,0.00002607,-0.04781114,0.,-0.46273973,
 0.02549525,0.,0.46536456,-0.36041829,0.,0.12291176,-0.02548238,0.,0.02
 231589,0.38590068,0.,-0.00006473,0.,0.,0.00002113,0.,0.,0.00004360,0.0
 8347811,0.,-0.09212422,0.06174954,0.,-0.00262483,-0.14522765,0.,0.0947
 4905\\0.00000344,0.,0.00000986,0.00001086,0.,-0.00000520,-0.00001431,0
 .,-0.00000466\\\@


 EDUCATION WITHOUT COMMON SENSE IS A LOAD OF BOOKS ON THE BACK OF AN ASS.
 Job cpu time:  0 days  0 hours  1 minutes 18.4 seconds.
 File lengths (MBytes):  RWF=     18 Int=      0 D2E=      0 Chk=     10 Scr=      1
 Normal termination of Gaussian 03 at Fri Apr  9 11:07:19 2010.
 Link1:  Proceeding to internal job step number  3.
 ---------------------------------------------------------
 #N Geom=AllCheck Guess=Read SCRF=Check CCSD(T)/6-31+G(d')
 ---------------------------------------------------------
 1/29=7,38=1,40=1,46=1/1;
 2/15=1,40=1/2;
 3/5=11,6=6,7=11,11=9,16=1,25=1,30=1,70=2/1,2,3;
 4/5=1/1;
 5/5=2,38=6/2;
 8/6=7,9=120000,10=1/1,4;
 9/5=7,14=2/13;
 6/7=2,8=2,9=2,10=2/1;
 99/5=1,9=1/99;
 ---------
 HO2: geom
 ---------
 Redundant internal coordinates taken from checkpoint file:
 HO2-geom.chk
 Charge =  0 Multiplicity = 2
 O,0,-0.0200869307,0.,-0.0154643969
 H,0,0.0208360402,0.,0.9591184293
 O,0,1.2435376582,0.,-0.4242790879
 Recover connectivity data from disk.
                          Input orientation:                          
 ---------------------------------------------------------------------
 Center     Atomic     Atomic              Coordinates (Angstroms)
 Number     Number      Type              X           Y           Z
 ---------------------------------------------------------------------
    1          8             0       -0.020087    0.000000   -0.015464
    2          1             0        0.020836    0.000000    0.959118
    3          8             0        1.243538    0.000000   -0.424279
 ---------------------------------------------------------------------
                    Distance matrix (angstroms):
                    1          2          3
     1  O    0.000000
     2  H    0.975442   0.000000
     3  O    1.328110   1.846290   0.000000
 Symmetry turned off by external request.
 Stoichiometry    HO2(2)
 Framework group  CS[SG(HO2)]
 Deg. of freedom     3
 Full point group                 CS
 Rotational constants (GHZ):    622.3986130     33.7059002     31.9743350
 Standard basis: 6-31+(d') (6D, 7F)
 Integral buffers will be    131072 words long.
 Raffenetti 2 integral format.
 Two-electron integral symmetry is turned off.
    40 basis functions,    68 primitive gaussians,    40 cartesian basis functions
     9 alpha electrons        8 beta electrons
       nuclear repulsion energy        32.1333338276 Hartrees.
 NAtoms=    3 NActive=    3 NUniq=    3 SFac= 7.50D-01 NAtFMM=   80 NAOKFM=F Big=F
 One-electron integrals computed using PRISM.
 NBasis=    40 RedAO= T  NBF=    40
 NBsUse=    40 1.00D-06 NBFU=    40
 Initial guess read from the checkpoint file:
 HO2-geom.chk
 <S**2> of initial guess= 0.7528
 Requested convergence on RMS density matrix=1.00D-08 within 128 cycles.
 Requested convergence on MAX density matrix=1.00D-06.
 Requested convergence on             energy=1.00D-06.
 No special actions if energy rises.
 Keep R1 and R2 integrals in memory in canonical form, NReq=     1550928.
 SCF Done:  E(UHF) =  -150.170014348     A.U. after   18 cycles
             Convg  =    0.4187D-08             -V/T =  2.0018
             S**2   =   0.7615
 Annihilation of the first spin contaminant:
 S**2 before annihilation     0.7615,   after     0.7501
 ExpMin= 8.45D-02 ExpMax= 5.48D+03 ExpMxC= 8.25D+02 IAcc=3 IRadAn=         5 AccDes= 0.00D+00
 HarFok:  IExCor= 205 AccDes= 0.00D+00 IRadAn=         5 IDoV=1
 ScaDFX=  1.000000  1.000000  1.000000  1.000000
 Range of M.O.s used for correlation:     3    40
 NBasis=    40 NAE=     9 NBE=     8 NFC=     2 NFV=     0
 NROrb=     38 NOA=     7 NOB=     6 NVA=    31 NVB=    32

 **** Warning!!: The largest alpha MO coefficient is  0.16258303D+02


 **** Warning!!: The largest beta MO coefficient is  0.16295077D+02

 Estimate disk for full transformation     3057972 words.
 Spin components of T(2) and E(2):
     alpha-alpha T2 =       0.1141430145D-01 E2=     -0.4769687957D-01
     alpha-beta  T2 =       0.6668915737D-01 E2=     -0.2562262748D+00
     beta-beta   T2 =       0.1262953540D-01 E2=     -0.4317297654D-01
 ANorm=    0.1044381632D+01
 E2=       -0.3470961309D+00 EUMP2=       -0.15051711047899D+03
 (S**2,0)=  0.76154D+00           (S**2,1)=  0.75294D+00
 E(PUHF)=      -0.15017418026D+03        E(PMP2)=      -0.15051973153D+03
 Iterations=  50 Convergence= 0.100D-06
 Iteration Nr.   1
 **********************
 E(PMP3)=      -0.15052587069D+03
 MP4(R+Q)=  0.45936323D-02
 E3=       -0.71425733D-02        EUMP3=      -0.15052425305D+03
 E4(DQ)=   -0.33107309D-02        UMP4(DQ)=   -0.15052756378D+03
 E4(SDQ)=  -0.94001425D-02        UMP4(SDQ)=  -0.15053365319D+03
 DE(Corr)= -0.34968717     E(CORR)=     -150.51970151    
 NORM(A)=   0.10474914D+01
 Iteration Nr.   2
 **********************
 DE(Corr)= -0.36112953     E(CORR)=     -150.53114388     Delta=-1.14D-02
 NORM(A)=   0.10549260D+01
 Iteration Nr.   3
 **********************
 DE(Corr)= -0.36313925     E(CORR)=     -150.53315360     Delta=-2.01D-03
 NORM(A)=   0.10613752D+01
 Iteration Nr.   4
 **********************
 DE(Corr)= -0.36582888     E(CORR)=     -150.53584323     Delta=-2.69D-03
 NORM(A)=   0.10655863D+01
 Iteration Nr.   5
 **********************
 DE(Corr)= -0.36661836     E(CORR)=     -150.53663271     Delta=-7.89D-04
 NORM(A)=   0.10672946D+01
 Iteration Nr.   6
 **********************
 DE(Corr)= -0.36682106     E(CORR)=     -150.53683541     Delta=-2.03D-04
 NORM(A)=   0.10674071D+01
 Iteration Nr.   7
 **********************
 DE(Corr)= -0.36682427     E(CORR)=     -150.53683861     Delta=-3.21D-06
 NORM(A)=   0.10674826D+01
 Iteration Nr.   8
 **********************
 DE(Corr)= -0.36682164     E(CORR)=     -150.53683599     Delta= 2.63D-06
 NORM(A)=   0.10674957D+01
 Iteration Nr.   9
 **********************
 DE(Corr)= -0.36682984     E(CORR)=     -150.53684419     Delta=-8.21D-06
 NORM(A)=   0.10674963D+01
 Iteration Nr.  10
 **********************
 DE(Corr)= -0.36682777     E(CORR)=     -150.53684212     Delta= 2.08D-06
 NORM(A)=   0.10674989D+01
 Iteration Nr.  11
 **********************
 DE(Corr)= -0.36682908     E(CORR)=     -150.53684343     Delta=-1.31D-06
 NORM(A)=   0.10674999D+01
 Iteration Nr.  12
 **********************
 DE(Corr)= -0.36682901     E(CORR)=     -150.53684336     Delta= 6.83D-08
 NORM(A)=   0.10675021D+01
 Iteration Nr.  13
 **********************
 DE(Corr)= -0.36682936     E(CORR)=     -150.53684370     Delta=-3.42D-07
 NORM(A)=   0.10675033D+01
 Iteration Nr.  14
 **********************
 DE(Corr)= -0.36682960     E(CORR)=     -150.53684395     Delta=-2.46D-07
 NORM(A)=   0.10675043D+01
 Iteration Nr.  15
 **********************
 DE(Corr)= -0.36682974     E(CORR)=     -150.53684409     Delta=-1.42D-07
 NORM(A)=   0.10675047D+01
 Iteration Nr.  16
 **********************
 DE(Corr)= -0.36682983     E(CORR)=     -150.53684418     Delta=-8.79D-08
 NORM(A)=   0.10675047D+01
 Dominant configurations:
 ***********************
 Spin Case        I    J    A    B          Value
    BB            7         9            0.147815D+00
 Largest amplitude= 1.48D-01
 Time for triples=      443.46 seconds.
 T4(CCSD)= -0.11451367D-01
 T5(CCSD)=  0.20054601D-02
 CCSD(T)= -0.15054629009D+03

 S**2, projected HF & approx projected MPn energies after annihilation of
 unwanted spin states (see manual for definitions):

 spins       (S**2,0) (S**2,1)    PUHF        PMP2        PMP3        PMP4
 annihilated
 s+1         0.74994  0.75003 -150.174180 -150.519732 -150.525871
 s+1,s+2     0.75000  0.75000 -150.174164 -150.519717 -150.525857
 s+1 to s+3  0.75000  0.75000 -150.174164 -150.519717 -150.525857
 s+1 to s+4  0.75000  0.75000 -150.174164 -150.519717 -150.525857
 s+1 to s+5  0.75000  0.75000 -150.174164
 s+1 to s+6  0.75000  0.75000 -150.174164


 **********************************************************************

            Population analysis using the SCF density.

 **********************************************************************

 Alpha  occ. eigenvalues --  -20.70194 -20.68358  -1.58768  -1.21544  -0.77914
 Alpha  occ. eigenvalues --   -0.76191  -0.67961  -0.53127  -0.52932
 Alpha virt. eigenvalues --    0.14324   0.17746   0.22663   0.22832   0.28377
 Alpha virt. eigenvalues --    0.28894   0.28934   0.36011   0.38639   0.43139
 Alpha virt. eigenvalues --    1.24648   1.30515   1.32056   1.34366   1.38755
 Alpha virt. eigenvalues --    1.42118   1.47777   1.63650   1.95903   2.68404
 Alpha virt. eigenvalues --    2.75502   2.97707   2.98115   3.07613   3.14340
 Alpha virt. eigenvalues --    3.53901   3.64897   3.66727   4.41821   6.20595
 Alpha virt. eigenvalues --    6.71575
  Beta  occ. eigenvalues --  -20.67609 -20.66131  -1.52482  -1.11291  -0.75777
  Beta  occ. eigenvalues --   -0.65449  -0.57497  -0.49139
  Beta virt. eigenvalues --    0.09727   0.14634   0.18344   0.22989   0.24532
  Beta virt. eigenvalues --    0.28409   0.29066   0.33272   0.36192   0.41851
  Beta virt. eigenvalues --    0.43393   1.24903   1.32728   1.35876   1.38733
  Beta virt. eigenvalues --    1.43835   1.48599   1.50132   1.65010   1.97649
  Beta virt. eigenvalues --    2.74957   2.76284   3.03079   3.03867   3.16774
  Beta virt. eigenvalues --    3.22825   3.56125   3.67745   3.71661   4.44272
  Beta virt. eigenvalues --    6.23115   6.74277
          Condensed to atoms (all electrons):
              1          2          3
     1  O    8.060136   0.218192   0.177853
     2  H    0.218192   0.353360  -0.043504
     3  O    0.177853  -0.043504   7.881421
 Mulliken atomic charges:
              1
     1  O   -0.456182
     2  H    0.471952
     3  O   -0.015770
 Sum of Mulliken charges=   0.00000
 Atomic charges with hydrogens summed into heavy atoms:
              1
     1  O    0.015770
     2  H    0.000000
     3  O   -0.015770
 Sum of Mulliken charges=   0.00000
          Atomic-Atomic Spin Densities.
              1          2          3
     1  O    0.199993  -0.003105  -0.115152
     2  H   -0.003105  -0.012164   0.003307
     3  O   -0.115152   0.003307   1.042072
 Mulliken atomic spin densities:
              1
     1  O    0.081735
     2  H   -0.011962
     3  O    0.930227
 Sum of Mulliken spin densities=   1.00000
 Electronic spatial extent (au):  <R**2>=    77.1852
 Charge=     0.0000 electrons
 Dipole moment (field-independent basis, Debye):
    X=    -0.2576    Y=     0.0000    Z=     2.2121  Tot=     2.2270
 Quadrupole moment (field-independent basis, Debye-Ang):
   XX=   -12.4847   YY=   -11.0148   ZZ=    -9.5341
   XY=     0.0000   XZ=     0.1326   YZ=     0.0000
 Traceless Quadrupole moment (field-independent basis, Debye-Ang):
   XX=    -1.4735   YY=    -0.0036   ZZ=     1.4771
   XY=     0.0000   XZ=     0.1326   YZ=     0.0000
 Octapole moment (field-independent basis, Debye-Ang**2):
  XXX=   -21.3301  YYY=     0.0000  ZZZ=     8.4786  XYY=    -5.7358
  XXY=     0.0000  XXZ=     2.2570  XZZ=    -6.9947  YZZ=     0.0000
  YYZ=     1.7850  XYZ=     0.0000
 Hexadecapole moment (field-independent basis, Debye-Ang**3):
 XXXX=   -59.6612 YYYY=    -8.0401 ZZZZ=   -14.5879 XXXY=     0.0000
 XXXZ=     7.6643 YYYX=     0.0000 YYYZ=     0.0000 ZZZX=     9.1553
 ZZZY=     0.0000 XXYY=   -10.3018 XXZZ=   -12.8867 YYZZ=    -3.9008
 XXYZ=     0.0000 YYXZ=     2.4901 ZZXY=     0.0000
 N-N= 3.213333382762D+01 E-N=-4.205761378746D+02  KE= 1.498930654752D+02
 1\1\GINC-NODE04\SP\UCCSD(T)-FC\6-31+(d')\H1O2(2)\MRHARPER\09-Apr-2010\
 0\\#N Geom=AllCheck Guess=Read SCRF=Check CCSD(T)/6-31+G(d')\\HO2: geo
 m\\0,2\O,0,-0.0200869307,0.,-0.0154643969\H,0,0.0208360402,0.,0.959118
 4293\O,0,1.2435376582,0.,-0.4242790879\\Version=AM64L-G03RevD.01\HF=-1
 50.1700143\MP2=-150.5171105\MP3=-150.5242531\MP4D=-150.5321574\MP4DQ=-
 150.5275638\PUHF=-150.1741803\PMP2-0=-150.5197315\PMP3-0=-150.5258707\
 MP4SDQ=-150.5336532\CCSD=-150.5368442\CCSD(T)=-150.5462901\S2=0.761536
 \S2-1=0.752937\S2A=0.750098\RMSD=4.187e-09\Thermal=0.\PG=CS [SG(H1O2)]
 \\@


 THE MORE POWERFUL THE METHOD, THE MORE CATASTROPHIC THE ERRORS.
     -- M.D. KAMEN
 Job cpu time:  0 days  0 hours 12 minutes 58.0 seconds.
 File lengths (MBytes):  RWF=   7528 Int=      0 D2E=      0 Chk=     10 Scr=      1
 Normal termination of Gaussian 03 at Fri Apr  9 11:09:28 2010.
 Link1:  Proceeding to internal job step number  4.
 ---------------------------------------------------
 #N Geom=AllCheck Guess=Read SCRF=Check MP4SDQ/CBSB4
 ---------------------------------------------------
 1/29=7,38=1,40=1,46=1/1;
 2/15=1,40=1/2;
 3/5=13,11=9,16=1,25=1,30=1,70=2/1,2,3;
 4/5=1/1;
 5/5=2,38=6/2;
 8/6=3,9=120000,10=1/1,4;
 9/5=4/13;
 6/7=2,8=2,9=2,10=2/1;
 99/5=1,9=1/99;
 ---------
 HO2: geom
 ---------
 Redundant internal coordinates taken from checkpoint file:
 HO2-geom.chk
 Charge =  0 Multiplicity = 2
 O,0,-0.0200869307,0.,-0.0154643969
 H,0,0.0208360402,0.,0.9591184293
 O,0,1.2435376582,0.,-0.4242790879
 Recover connectivity data from disk.
                          Input orientation:                          
 ---------------------------------------------------------------------
 Center     Atomic     Atomic              Coordinates (Angstroms)
 Number     Number      Type              X           Y           Z
 ---------------------------------------------------------------------
    1          8             0       -0.020087    0.000000   -0.015464
    2          1             0        0.020836    0.000000    0.959118
    3          8             0        1.243538    0.000000   -0.424279
 ---------------------------------------------------------------------
                    Distance matrix (angstroms):
                    1          2          3
     1  O    0.000000
     2  H    0.975442   0.000000
     3  O    1.328110   1.846290   0.000000
 Symmetry turned off by external request.
 Stoichiometry    HO2(2)
 Framework group  CS[SG(HO2)]
 Deg. of freedom     3
 Full point group                 CS
 Rotational constants (GHZ):    622.3986130     33.7059002     31.9743350
 Standard basis: CBSB4 (6D, 7F)
 Integral buffers will be    131072 words long.
 Raffenetti 2 integral format.
 Two-electron integral symmetry is turned off.
    43 basis functions,    71 primitive gaussians,    43 cartesian basis functions
     9 alpha electrons        8 beta electrons
       nuclear repulsion energy        32.1333338276 Hartrees.
 NAtoms=    3 NActive=    3 NUniq=    3 SFac= 7.50D-01 NAtFMM=   80 NAOKFM=F Big=F
 One-electron integrals computed using PRISM.
 NBasis=    43 RedAO= T  NBF=    43
 NBsUse=    43 1.00D-06 NBFU=    43
 Initial guess read from the checkpoint file:
 HO2-geom.chk
 <S**2> of initial guess= 0.7615
 Requested convergence on RMS density matrix=1.00D-08 within 128 cycles.
 Requested convergence on MAX density matrix=1.00D-06.
 Requested convergence on             energy=1.00D-06.
 No special actions if energy rises.
 Keep R1 and R2 integrals in memory in canonical form, NReq=     1782612.
 SCF Done:  E(UHF) =  -150.178494372     A.U. after   14 cycles
             Convg  =    0.7836D-08             -V/T =  2.0020
             S**2   =   0.7615
 Annihilation of the first spin contaminant:
 S**2 before annihilation     0.7615,   after     0.7501
 ExpMin= 8.45D-02 ExpMax= 5.48D+03 ExpMxC= 8.25D+02 IAcc=3 IRadAn=         5 AccDes= 0.00D+00
 HarFok:  IExCor= 205 AccDes= 0.00D+00 IRadAn=         5 IDoV=1
 ScaDFX=  1.000000  1.000000  1.000000  1.000000
 Range of M.O.s used for correlation:     3    43
 NBasis=    43 NAE=     9 NBE=     8 NFC=     2 NFV=     0
 NROrb=     41 NOA=     7 NOB=     6 NVA=    34 NVB=    35

 **** Warning!!: The largest alpha MO coefficient is  0.16242686D+02


 **** Warning!!: The largest beta MO coefficient is  0.16232842D+02

 Spin components of T(2) and E(2):
     alpha-alpha T2 =       0.1170119896D-01 E2=     -0.4857709083D-01
     alpha-beta  T2 =       0.6776077213D-01 E2=     -0.2610513671D+00
     beta-beta   T2 =       0.1291618089D-01 E2=     -0.4403020690D-01
 ANorm=    0.1045168959D+01
 E2=       -0.3536586648D+00 EUMP2=       -0.15053215303707D+03
 (S**2,0)=  0.76150D+00           (S**2,1)=  0.75293D+00
 E(PUHF)=      -0.15018264770D+03        E(PMP2)=      -0.15053476718D+03
 R2 and R3 integrals will be kept in memory, NReq=     1715862.
 DD1Dir will call FoFMem   1 times, MxPair=       120
 NAB=    42 NAA=    21 NBB=    15.
 E(PMP3)=      -0.15054105012D+03
 MP4(R+Q)=  0.49701178D-02
 E3=       -0.72838837D-02        EUMP3=      -0.15053943692D+03
 E4(DQ)=   -0.28693872D-02        UMP4(DQ)=   -0.15054230631D+03
 E4(SDQ)=  -0.90575269D-02        UMP4(SDQ)=  -0.15054849445D+03
 Largest amplitude= 5.24D-02

 S**2, projected HF & approx projected MPn energies after annihilation of
 unwanted spin states (see manual for definitions):

 spins       (S**2,0) (S**2,1)    PUHF        PMP2        PMP3        PMP4
 annihilated
 s+1         0.74994  0.75003 -150.182648 -150.534767 -150.541050
 s+1,s+2     0.75000  0.75000 -150.182632 -150.534752 -150.541037
 s+1 to s+3  0.75000  0.75000 -150.182632 -150.534752 -150.541037
 s+1 to s+4  0.75000  0.75000 -150.182632 -150.534752 -150.541037
 s+1 to s+5  0.75000  0.75000 -150.182632
 s+1 to s+6  0.75000  0.75000 -150.182632


 **********************************************************************

            Population analysis using the SCF density.

 **********************************************************************

 Alpha  occ. eigenvalues --  -20.70120 -20.68415  -1.58636  -1.21427  -0.77811
 Alpha  occ. eigenvalues --   -0.76107  -0.67875  -0.53054  -0.52838
 Alpha virt. eigenvalues --    0.14376   0.17759   0.22650   0.22788   0.28368
 Alpha virt. eigenvalues --    0.28892   0.28925   0.36141   0.38658   0.43094
 Alpha virt. eigenvalues --    1.14067   1.30235   1.30543   1.31965   1.37842
 Alpha virt. eigenvalues --    1.38763   1.46725   1.56276   1.57832   1.76259
 Alpha virt. eigenvalues --    1.97491   2.43750   2.70087   2.92429   2.98580
 Alpha virt. eigenvalues --    3.04511   3.09775   3.41762   3.65017   3.77713
 Alpha virt. eigenvalues --    4.06253   4.45649   6.25042   6.76304
  Beta  occ. eigenvalues --  -20.67682 -20.66053  -1.52336  -1.11172  -0.75692
  Beta  occ. eigenvalues --   -0.65363  -0.57436  -0.49039
  Beta virt. eigenvalues --    0.09724   0.14692   0.18351   0.22945   0.24498
  Beta virt. eigenvalues --    0.28400   0.29064   0.33291   0.36317   0.41869
  Beta virt. eigenvalues --    0.43347   1.14261   1.31457   1.32498   1.38154
  Beta virt. eigenvalues --    1.40171   1.47627   1.49191   1.57288   1.58878
  Beta virt. eigenvalues --    1.77302   1.98812   2.44257   2.76517   2.93568
  Beta virt. eigenvalues --    3.04044   3.15560   3.19710   3.44334   3.71750
  Beta virt. eigenvalues --    3.78692   4.07766   4.47694   6.27853   6.78696
          Condensed to atoms (all electrons):
              1          2          3
     1  O    7.801476   0.274639   0.187934
     2  H    0.274639   0.479835  -0.044460
     3  O    0.187934  -0.044460   7.882464
 Mulliken atomic charges:
              1
     1  O   -0.264049
     2  H    0.289987
     3  O   -0.025938
 Sum of Mulliken charges=   0.00000
 Atomic charges with hydrogens summed into heavy atoms:
              1
     1  O    0.025938
     2  H    0.000000
     3  O   -0.025938
 Sum of Mulliken charges=   0.00000
          Atomic-Atomic Spin Densities.
              1          2          3
     1  O    0.191652   0.001049  -0.112849
     2  H    0.001049  -0.013087   0.001876
     3  O   -0.112849   0.001876   1.041284
 Mulliken atomic spin densities:
              1
     1  O    0.079852
     2  H   -0.010162
     3  O    0.930311
 Sum of Mulliken spin densities=   1.00000
 Electronic spatial extent (au):  <R**2>=    77.1403
 Charge=     0.0000 electrons
 Dipole moment (field-independent basis, Debye):
    X=    -0.2920    Y=     0.0000    Z=     2.1473  Tot=     2.1671
 Quadrupole moment (field-independent basis, Debye-Ang):
   XX=   -12.4736   YY=   -10.9809   ZZ=    -9.5185
   XY=     0.0000   XZ=     0.1379   YZ=     0.0000
 Traceless Quadrupole moment (field-independent basis, Debye-Ang):
   XX=    -1.4826   YY=     0.0101   ZZ=     1.4725
   XY=     0.0000   XZ=     0.1379   YZ=     0.0000
 Octapole moment (field-independent basis, Debye-Ang**2):
  XXX=   -21.3764  YYY=     0.0000  ZZZ=     8.4940  XYY=    -5.7403
  XXY=     0.0000  XXZ=     2.2259  XZZ=    -6.9977  YZZ=     0.0000
  YYZ=     1.7418  XYZ=     0.0000
 Hexadecapole moment (field-independent basis, Debye-Ang**3):
 XXXX=   -59.6929 YYYY=    -8.0010 ZZZZ=   -14.5475 XXXY=     0.0000
 XXXZ=     7.6774 YYYX=     0.0000 YYYZ=     0.0000 ZZZX=     9.1581
 ZZZY=     0.0000 XXYY=   -10.2932 XXZZ=   -12.9164 YYZZ=    -3.9383
 XXYZ=     0.0000 YYXZ=     2.4904 ZZXY=     0.0000
 N-N= 3.213333382762D+01 E-N=-4.205907066462D+02  KE= 1.498776135529D+02
 1\1\GINC-NODE04\SP\UMP4SDQ-FC\CBSB4\H1O2(2)\MRHARPER\09-Apr-2010\0\\#N
  Geom=AllCheck Guess=Read SCRF=Check MP4SDQ/CBSB4\\HO2: geom\\0,2\O,0,
 -0.0200869307,0.,-0.0154643969\H,0,0.0208360402,0.,0.9591184293\O,0,1.
 2435376582,0.,-0.4242790879\\Version=AM64L-G03RevD.01\HF=-150.1784944\
 MP2=-150.532153\MP3=-150.5394369\MP4D=-150.5472764\MP4DQ=-150.5423063\
 MP4SDQ=-150.5484944\PUHF=-150.1826477\PMP2-0=-150.5347672\PMP3-0=-150.
 5410501\S2=0.761503\S2-1=0.752934\S2A=0.750097\RMSD=7.836e-09\Thermal=
 0.\PG=CS [SG(H1O2)]\\@


 FAULTILY FAULTLESS, ICILY REGULAR, SPLENDIDLY NULL...
           MAUDE BY TENNYSON
 Job cpu time:  0 days  0 hours  0 minutes 39.0 seconds.
 File lengths (MBytes):  RWF=   7528 Int=      0 D2E=      0 Chk=     10 Scr=      1
 Normal termination of Gaussian 03 at Fri Apr  9 11:09:57 2010.
 Link1:  Proceeding to internal job step number  5.
 ----------------------------------------------------------------------
 #N Geom=AllCheck Guess=Read SCRF=Check MP2/CBSB3 CBSExtrap=(NMin=10,Mi
 nPop)
 ----------------------------------------------------------------------
 1/29=7,38=1,40=1,46=1/1;
 2/15=1,40=1/2;
 3/5=12,11=9,16=1,25=1,30=1,70=2/1,2,3;
 4/5=1/1;
 5/5=2,38=6/2;
 8/10=1/1;
 9/16=-3,75=2,81=10,83=4/6,4;
 6/7=2,8=2,9=2,10=2/1;
 99/5=1,9=1/99;
 ---------
 HO2: geom
 ---------
 Redundant internal coordinates taken from checkpoint file:
 HO2-geom.chk
 Charge =  0 Multiplicity = 2
 O,0,-0.0200869307,0.,-0.0154643969
 H,0,0.0208360402,0.,0.9591184293
 O,0,1.2435376582,0.,-0.4242790879
 Recover connectivity data from disk.
                          Input orientation:                          
 ---------------------------------------------------------------------
 Center     Atomic     Atomic              Coordinates (Angstroms)
 Number     Number      Type              X           Y           Z
 ---------------------------------------------------------------------
    1          8             0       -0.020087    0.000000   -0.015464
    2          1             0        0.020836    0.000000    0.959118
    3          8             0        1.243538    0.000000   -0.424279
 ---------------------------------------------------------------------
                    Distance matrix (angstroms):
                    1          2          3
     1  O    0.000000
     2  H    0.975442   0.000000
     3  O    1.328110   1.846290   0.000000
 Symmetry turned off by external request.
 Stoichiometry    HO2(2)
 Framework group  CS[SG(HO2)]
 Deg. of freedom     3
 Full point group                 CS
 Rotational constants (GHZ):    622.3986130     33.7059002     31.9743350
 Standard basis: CBSB3 (5D, 7F)
 Integral buffers will be    131072 words long.
 Raffenetti 2 integral format.
 Two-electron integral symmetry is turned off.
    78 basis functions,   116 primitive gaussians,    88 cartesian basis functions
     9 alpha electrons        8 beta electrons
       nuclear repulsion energy        32.1333338276 Hartrees.
 NAtoms=    3 NActive=    3 NUniq=    3 SFac= 7.50D-01 NAtFMM=   80 NAOKFM=F Big=F
 One-electron integrals computed using PRISM.
 NBasis=    78 RedAO= T  NBF=    78
 NBsUse=    78 1.00D-06 NBFU=    78
 Initial guess read from the checkpoint file:
 HO2-geom.chk
 <S**2> of initial guess= 0.7614
 Requested convergence on RMS density matrix=1.00D-08 within 128 cycles.
 Requested convergence on MAX density matrix=1.00D-06.
 Requested convergence on             energy=1.00D-06.
 No special actions if energy rises.
 Keep R1 and R2 integrals in memory in canonical form, NReq=    17676832.
 SCF Done:  E(UHF) =  -150.231784318     A.U. after   13 cycles
             Convg  =    0.9417D-08             -V/T =  2.0009
             S**2   =   0.7628
 Annihilation of the first spin contaminant:
 S**2 before annihilation     0.7628,   after     0.7501
 ExpMin= 3.60D-02 ExpMax= 8.59D+03 ExpMxC= 1.30D+03 IAcc=3 IRadAn=         5 AccDes= 0.00D+00
 HarFok:  IExCor= 205 AccDes= 0.00D+00 IRadAn=         5 IDoV=1
 ScaDFX=  1.000000  1.000000  1.000000  1.000000
 Range of M.O.s used for correlation:     3    78
 NBasis=    78 NAE=     9 NBE=     8 NFC=     2 NFV=     0
 NROrb=     76 NOA=     7 NOB=     6 NVA=    69 NVB=    70

 **** Warning!!: The largest alpha MO coefficient is  0.16508826D+02


 **** Warning!!: The largest beta MO coefficient is  0.16590838D+02

 Disk-based method using OVN memory for  7 occupieds at a time.
 Permanent disk used for amplitudes and <ij||ab> integrals=      576702 words.
 Estimated scratch disk usage=     7315952 words.
 Actual    scratch disk usage=     5719880 words.
 JobTyp=2 Pass  1:  I=   1 to   7 NPSUse=  8 ParTrn=T ParDer=T DoDerP=F.
 (rs|ai) integrals will be sorted in core.
 Actual    scratch disk usage=     5802480 words.
 JobTyp=3 Pass  1:  I=   1 to   6 NPSUse=  8 ParTrn=T ParDer=T DoDerP=F.
 (rs|ai) integrals will be sorted in core.
 Spin components of T(2) and E(2):
     alpha-alpha T2 =       0.1365751803D-01 E2=     -0.6034320534D-01
     alpha-beta  T2 =       0.7685863186D-01 E2=     -0.3261321204D+00
     beta-beta   T2 =       0.1446055378D-01 E2=     -0.5180971615D-01
 (S**2,0)=  0.76281D+00           (S**2,1)=  0.75300D+00
 E(PUHF)=      -0.15023657792D+03        E(PMP2)=      -0.15067303799D+03
 ANorm=    0.1051178721D+01
 E2 =    -0.4382850419D+00 EUMP2 =    -0.15067006935967D+03

 Complete Basis Set (CBS) Extrapolation:
 M. R. Nyden and G. A. Petersson, JCP 75, 1843 (1981)
 G. A. Petersson and M. A. Al-Laham, JCP 94, 6081 (1991)
 G. A. Petersson, T. Tensfeldt, and J. A. Montgomery, JCP 94, 6091 (1991)
 J. A. Montgomery, J. W. Ochterski, and G. A. Petersson, JCP 101, 5900 (1994)
 
 Minimum Number of PNO for Extrapolation =  10
 Absolute Overlaps: IRadAn =     99590
 LocTrn: ILocal=3 LocCor=F DoCore=F.
 LocMO: Using population method
 Initial Trace= 0.60000000D+01 Initial TraceA= 0.43490467D+01
 RMSG= 0.41252030D-10
 LocMO: Using population method
 Initial Trace= 0.60000000D+01 Initial TraceA= 0.42861532D+01
 RMSG= 0.63011053D-09
 There are a total of      147500 grid points.
 ElSum from orbitals=       16.9999999433
 E2(CBS)=      -0.486507 CBS-Int=       0.013386 OIii=       3.641678

 **********************************************************************

            Population analysis using the SCF density.

 **********************************************************************

 Alpha  occ. eigenvalues --  -20.69112 -20.67500  -1.57835  -1.20970  -0.77431
 Alpha  occ. eigenvalues --   -0.75918  -0.67647  -0.52881  -0.52494
 Alpha virt. eigenvalues --    0.04393   0.16451   0.21475   0.22179   0.24289
 Alpha virt. eigenvalues --    0.27611   0.28333   0.28397   0.32018   0.39191
 Alpha virt. eigenvalues --    0.42609   0.66439   0.83567   0.87389   1.04814
 Alpha virt. eigenvalues --    1.13352   1.16499   1.24072   1.24453   1.24818
 Alpha virt. eigenvalues --    1.47234   1.50429   1.53227   1.64515   1.73657
 Alpha virt. eigenvalues --    1.75402   1.79054   2.04183   2.29853   2.42346
 Alpha virt. eigenvalues --    2.43071   2.51857   2.79773   2.99008   3.91233
 Alpha virt. eigenvalues --    4.06966   4.43448   4.82535   4.96974   5.04455
 Alpha virt. eigenvalues --    5.08713   5.19378   5.35697   5.36397   5.39302
 Alpha virt. eigenvalues --    5.47279   5.47584   5.52662   5.57776   5.62830
 Alpha virt. eigenvalues --    5.77693   5.95924   6.05765   6.73782   6.75790
 Alpha virt. eigenvalues --    7.13077   7.18682   7.27951   7.38443   7.39613
 Alpha virt. eigenvalues --    7.45332   7.52144   7.74124   7.75277   8.00276
 Alpha virt. eigenvalues --    8.32544   8.34479  51.45517  51.53808
  Beta  occ. eigenvalues --  -20.66725 -20.64966  -1.51578  -1.10641  -0.75431
  Beta  occ. eigenvalues --   -0.65225  -0.57269  -0.48820
  Beta virt. eigenvalues --    0.04432   0.10220   0.17113   0.21534   0.23957
  Beta virt. eigenvalues --    0.24504   0.27684   0.28614   0.32007   0.32699
  Beta virt. eigenvalues --    0.42359   0.42849   0.66539   0.83769   0.87290
  Beta virt. eigenvalues --    1.04994   1.14106   1.23618   1.25044   1.26267
  Beta virt. eigenvalues --    1.33439   1.48421   1.55194   1.55235   1.70348
  Beta virt. eigenvalues --    1.74492   1.77516   1.84623   2.06404   2.31494
  Beta virt. eigenvalues --    2.43395   2.47405   2.52225   2.81574   2.99172
  Beta virt. eigenvalues --    3.91423   4.06893   4.43717   4.86299   4.97708
  Beta virt. eigenvalues --    5.06514   5.10233   5.20789   5.41617   5.42635
  Beta virt. eigenvalues --    5.47495   5.49202   5.53326   5.56145   5.59518
  Beta virt. eigenvalues --    5.63959   5.79686   5.97393   6.07224   6.76697
  Beta virt. eigenvalues --    6.78021   7.22034   7.28553   7.33622   7.39272
  Beta virt. eigenvalues --    7.42825   7.47831   7.53209   7.76791   7.78358
  Beta virt. eigenvalues --    8.00855   8.33396   8.35946  51.47787  51.54426
          Condensed to atoms (all electrons):
              1          2          3
     1  O    7.795280   0.250793   0.190439
     2  H    0.250793   0.509124  -0.042297
     3  O    0.190439  -0.042297   7.897724
 Mulliken atomic charges:
              1
     1  O   -0.236512
     2  H    0.282379
     3  O   -0.045866
 Sum of Mulliken charges=   0.00000
 Atomic charges with hydrogens summed into heavy atoms:
              1
     1  O    0.045866
     2  H    0.000000
     3  O   -0.045866
 Sum of Mulliken charges=   0.00000
          Atomic-Atomic Spin Densities.
              1          2          3
     1  O    0.184251   0.004127  -0.109275
     2  H    0.004127  -0.012358   0.001224
     3  O   -0.109275   0.001224   1.035957
 Mulliken atomic spin densities:
              1
     1  O    0.079102
     2  H   -0.007008
     3  O    0.927905
 Sum of Mulliken spin densities=   1.00000
 Electronic spatial extent (au):  <R**2>=    76.8872
 Charge=     0.0000 electrons
 Dipole moment (field-independent basis, Debye):
    X=    -0.3377    Y=     0.0000    Z=     2.0012  Tot=     2.0295
 Quadrupole moment (field-independent basis, Debye-Ang):
   XX=   -12.2632   YY=   -10.9432   ZZ=    -9.4262
   XY=     0.0000   XZ=     0.0831   YZ=     0.0000
 Traceless Quadrupole moment (field-independent basis, Debye-Ang):
   XX=    -1.3857   YY=    -0.0657   ZZ=     1.4513
   XY=     0.0000   XZ=     0.0831   YZ=     0.0000
 Octapole moment (field-independent basis, Debye-Ang**2):
  XXX=   -21.0083  YYY=     0.0000  ZZZ=     8.3069  XYY=    -5.7443
  XXY=     0.0000  XXZ=     2.0465  XZZ=    -6.9042  YZZ=     0.0000
  YYZ=     1.6736  XYZ=     0.0000
 Hexadecapole moment (field-independent basis, Debye-Ang**3):
 XXXX=   -58.8515 YYYY=    -8.0049 ZZZZ=   -14.4732 XXXY=     0.0000
 XXXZ=     7.4432 YYYX=     0.0000 YYYZ=     0.0000 ZZZX=     9.0404
 ZZZY=     0.0000 XXYY=   -10.2283 XXZZ=   -12.7501 YYZZ=    -3.9487
 XXYZ=     0.0000 YYXZ=     2.4726 ZZXY=     0.0000
 N-N= 3.213333382762D+01 E-N=-4.210012238828D+02  KE= 1.500954144627D+02
 1\1\GINC-NODE04\SP\UMP2-FC\CBSB3\H1O2(2)\MRHARPER\09-Apr-2010\0\\#N Ge
 om=AllCheck Guess=Read SCRF=Check MP2/CBSB3 CBSExtrap=(NMin=10,MinPop)
 \\HO2: geom\\0,2\O,0,-0.0200869307,0.,-0.0154643969\H,0,0.0208360402,0
 .,0.9591184293\O,0,1.2435376582,0.,-0.4242790879\\Version=AM64L-G03Rev
 D.01\HF=-150.2317843\MP2=-150.6700694\E2(CBS)=-0.4865066\CBS-Int=-0.47
 31207\OIii=3.6416783\PUHF=-150.2365779\PMP2-0=-150.673038\S2=0.762811\
 S2-1=0.753001\S2A=0.750122\RMSD=9.417e-09\Thermal=0.\PG=CS [SG(H1O2)]\
 \@


 SIC AS THE CAWSE OF EWERY THING IS, SIC WILBE THE EFFECT.
 -- PROVERBS AND REASONS OF THE YEAR 1585
           AS REPRINTED IN PAISLEY MAGAZINE 1828.
 Diagonal vibrational polarizability:
        0.0000000       0.0000000       0.0000000

 Complete Basis Set (CBS) Extrapolation:
 M. R. Nyden and G. A. Petersson, JCP 75, 1843 (1981)
 G. A. Petersson and M. A. Al-Laham, JCP 94, 6081 (1991)
 G. A. Petersson, T. Tensfeldt, and J. A. Montgomery, JCP 94, 6091 (1991)
 J. A. Montgomery, J. W. Ochterski, and G. A. Petersson, JCP 101, 5900 (1994)

 Temperature=            298.150000 Pressure=                    1.000000
 E(ZPE)=                   0.013988 E(Thermal)=                  0.016848
 E(SCF)=                 -150.231784 DE(MP2)=                     -0.438285
 DE(CBS)=                  -0.048222 DE(MP34)=                    -0.016341
 DE(CCSD)=                 -0.012637 DE(Int)=                      0.013386
 DE(Empirical)=            -0.021208
 CBS-QB3 (0 K)=          -150.741103 CBS-QB3 Energy=            -150.738243
 CBS-QB3 Enthalpy=       -150.737299 CBS-QB3 Free Energy=       -150.763280
 1\1\GINC-NODE04\Mixed\CBS-QB3\CBS-QB3\H1O2(2)\MRHARPER\09-Apr-2010\0\\
 # opt=calcall nosymm cbs-qb3\\HO2: geom\\0,2\O,0,-0.0200869307,0.,-0.0
 154643969\H,0,0.0208360402,0.,0.9591184293\O,0,1.2435376582,0.,-0.4242
 790879\\Version=AM64L-G03RevD.01\HF/CbsB3=-150.2317843\E2(CBS)/CbsB3=-
 0.4865066\CBS-Int/CbsB3=0.0133859\OIii/CbsB3=3.6416783\MP2/CbsB4=-150.
 532153\MP4(SDQ)/CbsB4=-150.5484944\MP4(SDQ)/6-31+G(d')=-150.5336532\QC
 ISD(T)/6-31+G(d')=-150.5462901\CBSQB3=-150.741103\FreqCoord=-0.0379587
 978,0.,-0.029223475,0.0393744097,0.,1.8124711613,2.3499456113,0.,-0.80
 17712804\PG=CS [SG(H1O2)]\NImag=0\\0.40535697,0.,0.00011193,-0.0356669
 8,0.,0.55486395,-0.04493868,0.,-0.08724478,0.07042106,0.,-0.00004720,0
 .,0.,0.00002607,-0.04781114,0.,-0.46273973,0.02549525,0.,0.46536456,-0
 .36041829,0.,0.12291176,-0.02548238,0.,0.02231589,0.38590068,0.,-0.000
 06473,0.,0.,0.00002113,0.,0.,0.00004360,0.08347811,0.,-0.09212422,0.06
 174954,0.,-0.00262483,-0.14522765,0.,0.09474905\\0.00000344,0.,0.00000
 986,0.00001086,0.,-0.00000520,-0.00001431,0.,-0.00000466\\\@
 Job cpu time:  0 days  0 hours  1 minutes  5.6 seconds.
 File lengths (MBytes):  RWF=   7528 Int=      0 D2E=      0 Chk=     10 Scr=      1
 Normal termination of Gaussian 03 at Fri Apr  9 11:10:24 2010.
