 Entering Gaussian System, Link 0=g03
 Input=TS07freq.gjf
 Output=TS07freq.log
 Initial command:
 /opt/g03/l1.exe /scratch/nyee/Gau-19741.inp -scrdir=/scratch/nyee/
 Entering Link 1 = /opt/g03/l1.exe PID=     19743.
  
 Copyright (c) 1988,1990,1992,1993,1995,1998,2003,2004, Gaussian, Inc.
                  All Rights Reserved.
  
 This is the Gaussian(R) 03 program.  It is based on the
 the Gaussian(R) 98 system (copyright 1998, Gaussian, Inc.),
 the Gaussian(R) 94 system (copyright 1995, Gaussian, Inc.),
 the Gaussian 92(TM) system (copyright 1992, Gaussian, Inc.),
 the Gaussian 90(TM) system (copyright 1990, Gaussian, Inc.),
 the Gaussian 88(TM) system (copyright 1988, Gaussian, Inc.),
 the Gaussian 86(TM) system (copyright 1986, Carnegie Mellon
 University), and the Gaussian 82(TM) system (copyright 1983,
 Carnegie Mellon University). Gaussian is a federally registered
 trademark of Gaussian, Inc.
  
 This software contains proprietary and confidential information,
 including trade secrets, belonging to Gaussian, Inc.
  
 This software is provided under written license and may be
 used, copied, transmitted, or stored only in accord with that
 written license.
  
 The following legend is applicable only to US Government
 contracts under FAR:
  
                    RESTRICTED RIGHTS LEGEND
  
 Use, reproduction and disclosure by the US Government is
 subject to restrictions as set forth in subparagraphs (a)
 and (c) of the Commercial Computer Software - Restricted
 Rights clause in FAR 52.227-19.
  
 Gaussian, Inc.
 340 Quinnipiac St., Bldg. 40, Wallingford CT 06492
  
  
 ---------------------------------------------------------------
 Warning -- This program may not be used in any manner that
 competes with the business of Gaussian, Inc. or will provide
 assistance to any competitor of Gaussian, Inc.  The licensee
 of this program is prohibited from giving any competitor of
 Gaussian, Inc. access to this program.  By using this program,
 the user acknowledges that Gaussian, Inc. is engaged in the
 business of creating and licensing software in the field of
 computational chemistry and represents and warrants to the
 licensee that it is not a competitor of Gaussian, Inc. and that
 it will not use this program in any manner prohibited above.
 ---------------------------------------------------------------
  

 Cite this work as:
 Gaussian 03, Revision D.01,
 M. J. Frisch, G. W. Trucks, H. B. Schlegel, G. E. Scuseria, 
 M. A. Robb, J. R. Cheeseman, J. A. Montgomery, Jr., T. Vreven, 
 K. N. Kudin, J. C. Burant, J. M. Millam, S. S. Iyengar, J. Tomasi, 
 V. Barone, B. Mennucci, M. Cossi, G. Scalmani, N. Rega, 
 G. A. Petersson, H. Nakatsuji, M. Hada, M. Ehara, K. Toyota, 
 R. Fukuda, J. Hasegawa, M. Ishida, T. Nakajima, Y. Honda, O. Kitao, 
 H. Nakai, M. Klene, X. Li, J. E. Knox, H. P. Hratchian, J. B. Cross, 
 V. Bakken, C. Adamo, J. Jaramillo, R. Gomperts, R. E. Stratmann, 
 O. Yazyev, A. J. Austin, R. Cammi, C. Pomelli, J. W. Ochterski, 
 P. Y. Ayala, K. Morokuma, G. A. Voth, P. Salvador, J. J. Dannenberg, 
 V. G. Zakrzewski, S. Dapprich, A. D. Daniels, M. C. Strain, 
 O. Farkas, D. K. Malick, A. D. Rabuck, K. Raghavachari, 
 J. B. Foresman, J. V. Ortiz, Q. Cui, A. G. Baboul, S. Clifford, 
 J. Cioslowski, B. B. Stefanov, G. Liu, A. Liashenko, P. Piskorz, 
 I. Komaromi, R. L. Martin, D. J. Fox, T. Keith, M. A. Al-Laham, 
 C. Y. Peng, A. Nanayakkara, M. Challacombe, P. M. W. Gill, 
 B. Johnson, W. Chen, M. W. Wong, C. Gonzalez, and J. A. Pople, 
 Gaussian, Inc., Wallingford CT, 2004.
 
 ******************************************
 Gaussian 03:  AM64L-G03RevD.01 13-Oct-2005
                15-Jul-2014 
 ******************************************
 %chk=TS07.chk
 %mem=1000mb
 %nproc=8
 Will use up to    8 processors via shared memory.
 -------------------------------------
 # freq nosymm b3lyp/cbsb7 iop(7/33=1)
 -------------------------------------
 1/10=4,30=1,38=1/1,3;
 2/15=1,17=6,18=5,40=1/2;
 3/5=4,6=6,7=700,11=2,16=1,25=1,30=1,74=-5/1,2,3;
 4//1;
 5/5=2,38=5/2;
 8/6=4,10=90,11=11/1;
 11/6=1,8=1,9=11,15=111,16=1,31=1/1,2,10;
 10/6=1,31=1/2;
 6/7=2,8=2,9=2,10=2,18=1,28=1/1;
 7/8=1,10=1,25=1,30=1,33=1/1,2,3,16;
 1/10=4,30=1/3;
 99//99;
 -------------------
 Title Card Required
 -------------------
 Symbolic Z-matrix:
 Charge =  0 Multiplicity = 2
 C                    -0.5077    0.89113   0.37186 
 C                    -0.31662   2.00211   1.37926 
 H                    -0.51398   1.50377   2.3427 
 C                    -1.34163   3.12719   1.20817 
 H                    -1.15919   3.67724   0.28121 
 H                    -2.35583   2.72731   1.17351 
 H                    -1.27534   3.83353   2.03888 
 C                     1.13379   2.50088   1.3985 
 H                     1.28731   3.19709   2.226 
 H                     1.84097   1.67555   1.52352 
 H                     1.38041   3.01951   0.46922 
 O                    -1.66931   0.52193  -0.00534 
 H                     0.32113   0.17231   0.29784 
 O                    -0.0154    1.74482  -1.35217 
 O                    -1.06835   1.45228  -2.0337 
 H                    -1.6672    0.8588   -1.1496 
 

 GradGradGradGradGradGradGradGradGradGradGradGradGradGradGradGradGradGrad
 Berny optimization.
 Initialization pass.
 Trust Radius=3.00D-01 FncErr=1.00D-07 GrdErr=1.00D-07
 Number of steps in this run=   2 maximum allowed number of steps=   2.
 GradGradGradGradGradGradGradGradGradGradGradGradGradGradGradGradGradGrad

                          Input orientation:                          
 ---------------------------------------------------------------------
 Center     Atomic     Atomic              Coordinates (Angstroms)
 Number     Number      Type              X           Y           Z
 ---------------------------------------------------------------------
    1          6             0       -0.507704    0.891129    0.371858
    2          6             0       -0.316623    2.002114    1.379261
    3          1             0       -0.513980    1.503771    2.342703
    4          6             0       -1.341625    3.127187    1.208168
    5          1             0       -1.159194    3.677241    0.281213
    6          1             0       -2.355829    2.727306    1.173509
    7          1             0       -1.275336    3.833533    2.038879
    8          6             0        1.133788    2.500882    1.398503
    9          1             0        1.287313    3.197093    2.226004
   10          1             0        1.840968    1.675554    1.523521
   11          1             0        1.380412    3.019506    0.469219
   12          8             0       -1.669310    0.521934   -0.005335
   13          1             0        0.321129    0.172307    0.297835
   14          8             0       -0.015395    1.744824   -1.352168
   15          8             0       -1.068355    1.452284   -2.033704
   16          1             0       -1.667200    0.858803   -1.149597
 ---------------------------------------------------------------------
                    Distance matrix (angstroms):
                    1          2          3          4          5
     1  C    0.000000
     2  C    1.511840   0.000000
     3  H    2.063880   1.102504   0.000000
     4  C    2.528793   1.531565   2.146543   0.000000
     5  H    2.862704   2.172944   3.064313   1.093200   0.000000
     6  H    2.725758   2.174074   2.501292   1.090741   1.769323
     7  H    3.467846   2.169867   2.469770   1.092428   1.768419
     8  C    2.517896   1.533894   2.144967   2.560499   2.808901
     9  H    3.460840   2.171994   2.474998   2.819963   3.161985
    10  H    2.730918   2.186927   2.499270   3.512205   3.814584
    11  H    2.846832   2.177887   3.065308   2.822610   2.630126
    12  O    1.275895   2.436760   2.795009   2.892630   3.209095
    13  H    1.099613   2.219100   2.579087   3.510666   3.804759
    14  O    1.985807   2.760007   3.736143   3.197676   2.776769
    15  O    2.532973   3.537760   4.411680   3.659195   3.212091
    16  H    1.913191   3.086477   3.733907   3.287951   3.201387
                    6          7          8          9         10
     6  H    0.000000
     7  H    1.772024   0.000000
     8  C    3.504186   2.826644   0.000000
     9  H    3.821116   2.647119   1.092263   0.000000
    10  H    4.340714   3.825417   1.094029   1.764964   0.000000
    11  H    3.813253   3.190528   1.092412   1.768191   1.769144
    12  O    2.593192   3.911613   3.707338   4.569132   3.998786
    13  H    3.802753   4.357122   2.700768   3.714926   2.464136
    14  O    3.580775   4.177243   3.075457   4.075469   3.423517
    15  O    3.683678   4.722194   4.210586   5.170942   4.600854
    16  H    3.059793   4.378237   4.127320   5.058797   4.485519
                   11         12         13         14         15
    11  H    0.000000
    12  O    3.970374   0.000000
    13  H    3.042695   2.043526   0.000000
    14  O    2.624984   2.458628   2.304033   0.000000
    15  O    3.836309   2.311056   3.000847   1.287942   0.000000
    16  H    4.071504   1.192820   2.553388   1.885346   1.221671
                   16
    16  H    0.000000
 Symmetry turned off by external request.
 Stoichiometry    C4H9O3(2)
 Framework group  C1[X(C4H9O3)]
 Deg. of freedom    42
 Full point group                 C1
 Rotational constants (GHZ):      3.7372882      1.8758064      1.6923417
 Standard basis: CBSB7 (5D, 7F)
 Integral buffers will be    131072 words long.
 Raffenetti 2 integral format.
 Two-electron integral symmetry is turned off.
   180 basis functions,   296 primitive gaussians,   187 cartesian basis functions
    29 alpha electrons       28 beta electrons
       nuclear repulsion energy       331.9441479968 Hartrees.
 NAtoms=   16 NActive=   16 NUniq=   16 SFac= 7.50D-01 NAtFMM=   80 NAOKFM=F Big=F
 One-electron integrals computed using PRISM.
 NBasis=   180 RedAO= T  NBF=   180
 NBsUse=   180 1.00D-06 NBFU=   180
 Harris functional with IExCor=  402 diagonalized for initial guess.
 ExpMin= 1.03D-01 ExpMax= 8.59D+03 ExpMxC= 1.30D+03 IAcc=1 IRadAn=         1 AccDes= 1.00D-06
 HarFok:  IExCor= 402 AccDes= 1.00D-06 IRadAn=         1 IDoV=1
 ScaDFX=  1.000000  1.000000  1.000000  1.000000
 <S**2> of initial guess= 0.7500
 Requested convergence on RMS density matrix=1.00D-08 within 128 cycles.
 Requested convergence on MAX density matrix=1.00D-06.
 Requested convergence on             energy=1.00D-06.
 No special actions if energy rises.
 Integral accuracy reduced to 1.0D-05 until final iterations.
 EnCoef did     2 forward-backward iterations
 Initial convergence to 1.0D-05 achieved.  Increase integral accuracy.
 SCF Done:  E(UB+HF-LYP) =  -383.482887361     A.U. after   21 cycles
             Convg  =    0.4657D-08             -V/T =  2.0033
             S**2   =   0.7554
 Annihilation of the first spin contaminant:
 S**2 before annihilation     0.7554,   after     0.7500
 Range of M.O.s used for correlation:     1   180
 NBasis=   180 NAE=    29 NBE=    28 NFC=     0 NFV=     0
 NROrb=    180 NOA=    29 NOB=    28 NVA=   151 NVB=   152
 Symmetrizing basis deriv contribution to polar:
 IMax=3 JMax=2 DiffMx= 0.00D+00
 G2DrvN: will do   17 centers at a time, making    1 passes doing MaxLOS=2.
 FoFDir/FoFCou used for L=0 through L=2.
 DoAtom=TTTTTTTTTTTTTTTT
          Differentiating once with respect to electric field.
                with respect to dipole field.
          Differentiating once with respect to nuclear coordinates.
 Symmetry not used in FoFDir.
 MinBra= 0 MaxBra= 2 Meth= 1.
 IRaf=       0 NMat=  51 IRICut=      51 DoRegI=T DoRafI=T ISym2E= 0 JSym2E=0.
          There are  51 degrees of freedom in the 1st order CPHF.
    48 vectors were produced by pass  0.
 AX will form  48 AO Fock derivatives at one time.
    48 vectors were produced by pass  1.
    48 vectors were produced by pass  2.
    48 vectors were produced by pass  3.
    48 vectors were produced by pass  4.
    48 vectors were produced by pass  5.
    21 vectors were produced by pass  6.
     3 vectors were produced by pass  7.
     2 vectors were produced by pass  8.
 Inv2:  IOpt= 1 Iter= 1 AM= 3.12D-15 Conv= 1.00D-12.
 Inverted reduced A of dimension  314 with in-core refinement.
 Isotropic polarizability for W=    0.000000       60.60 Bohr**3.
 End of Minotr Frequency-dependent properties file   721 does not exist.

 **********************************************************************

            Population analysis using the SCF density.

 **********************************************************************

 Alpha  occ. eigenvalues --  -19.23169 -19.23016 -19.12998 -10.28359 -10.19836
 Alpha  occ. eigenvalues --  -10.17371 -10.16755  -1.22561  -1.06192  -0.84863
 Alpha  occ. eigenvalues --   -0.81209  -0.70114  -0.66732  -0.59150  -0.57130
 Alpha  occ. eigenvalues --   -0.52307  -0.50070  -0.48782  -0.47143  -0.46035
 Alpha  occ. eigenvalues --   -0.40877  -0.39779  -0.38564  -0.37740  -0.35852
 Alpha  occ. eigenvalues --   -0.35739  -0.30891  -0.30277  -0.27829
 Alpha virt. eigenvalues --   -0.03051   0.03840   0.06725   0.07619   0.08317
 Alpha virt. eigenvalues --    0.09999   0.10818   0.12068   0.13714   0.14219
 Alpha virt. eigenvalues --    0.17141   0.19170   0.21794   0.23231   0.25573
 Alpha virt. eigenvalues --    0.27474   0.29620   0.32856   0.35275   0.37458
 Alpha virt. eigenvalues --    0.39818   0.40658   0.43250   0.48943   0.51036
 Alpha virt. eigenvalues --    0.53629   0.55604   0.56224   0.56451   0.57164
 Alpha virt. eigenvalues --    0.57762   0.58751   0.59799   0.61505   0.63141
 Alpha virt. eigenvalues --    0.67141   0.68795   0.72735   0.74378   0.75557
 Alpha virt. eigenvalues --    0.78804   0.82385   0.85196   0.88673   0.93877
 Alpha virt. eigenvalues --    0.95373   0.96428   0.99146   1.02255   1.04037
 Alpha virt. eigenvalues --    1.08344   1.16371   1.20275   1.24984   1.32376
 Alpha virt. eigenvalues --    1.34217   1.35074   1.38254   1.40112   1.44578
 Alpha virt. eigenvalues --    1.44919   1.45748   1.48468   1.49171   1.49840
 Alpha virt. eigenvalues --    1.51693   1.52208   1.55415   1.59338   1.62238
 Alpha virt. eigenvalues --    1.63313   1.65817   1.67599   1.70997   1.72361
 Alpha virt. eigenvalues --    1.77335   1.78056   1.81629   1.85914   1.88823
 Alpha virt. eigenvalues --    1.90949   1.96076   2.02393   2.04472   2.08091
 Alpha virt. eigenvalues --    2.09959   2.13887   2.22901   2.26450   2.29766
 Alpha virt. eigenvalues --    2.31657   2.34329   2.36456   2.39539   2.40814
 Alpha virt. eigenvalues --    2.42993   2.45911   2.48489   2.49954   2.50177
 Alpha virt. eigenvalues --    2.53502   2.58526   2.60640   2.60905   2.64469
 Alpha virt. eigenvalues --    2.65263   2.69288   2.71854   2.73399   2.78301
 Alpha virt. eigenvalues --    2.78925   2.83802   2.85942   2.94211   2.97250
 Alpha virt. eigenvalues --    3.03102   3.05632   3.08302   3.21363   3.27213
 Alpha virt. eigenvalues --    3.30938   3.36526   3.40915   3.44460   3.46710
 Alpha virt. eigenvalues --    3.70981   3.76368   3.77335   3.80287   3.81619
 Alpha virt. eigenvalues --    3.83566   3.84179   3.91623   4.25212   4.29491
 Alpha virt. eigenvalues --    4.61524   4.68752   4.76786   4.83701   4.94591
 Alpha virt. eigenvalues --    5.00781   5.28649   5.63522   5.99019  23.75616
 Alpha virt. eigenvalues --   23.80505  23.91741  23.93282  49.67123  49.72522
 Alpha virt. eigenvalues --   49.93875
  Beta  occ. eigenvalues --  -19.21570 -19.21515 -19.12997 -10.28403 -10.19824
  Beta  occ. eigenvalues --  -10.17372 -10.16755  -1.19616  -1.06089  -0.82725
  Beta  occ. eigenvalues --   -0.79227  -0.70106  -0.66604  -0.58457  -0.56961
  Beta  occ. eigenvalues --   -0.50281  -0.48500  -0.46863  -0.45952  -0.42077
  Beta  occ. eigenvalues --   -0.40721  -0.39733  -0.38411  -0.37395  -0.35772
  Beta  occ. eigenvalues --   -0.35546  -0.29545  -0.28156
  Beta virt. eigenvalues --   -0.12577  -0.02732   0.03872   0.06846   0.07704
  Beta virt. eigenvalues --    0.08357   0.10019   0.11361   0.12350   0.13888
  Beta virt. eigenvalues --    0.14229   0.18126   0.19214   0.21854   0.23349
  Beta virt. eigenvalues --    0.25620   0.27518   0.29646   0.33026   0.35348
  Beta virt. eigenvalues --    0.37645   0.39912   0.40816   0.43397   0.48916
  Beta virt. eigenvalues --    0.51102   0.53674   0.55620   0.56263   0.56652
  Beta virt. eigenvalues --    0.57273   0.57846   0.58804   0.59865   0.61561
  Beta virt. eigenvalues --    0.63171   0.67218   0.68878   0.73433   0.74967
  Beta virt. eigenvalues --    0.78265   0.79357   0.84035   0.86038   0.89532
  Beta virt. eigenvalues --    0.94177   0.95602   0.96620   0.99708   1.02424
  Beta virt. eigenvalues --    1.04642   1.08719   1.16500   1.20526   1.25071
  Beta virt. eigenvalues --    1.33213   1.34390   1.35251   1.38581   1.40253
  Beta virt. eigenvalues --    1.44595   1.45069   1.45902   1.48519   1.49222
  Beta virt. eigenvalues --    1.49868   1.51827   1.52242   1.55462   1.59395
  Beta virt. eigenvalues --    1.62402   1.63357   1.65816   1.67611   1.71094
  Beta virt. eigenvalues --    1.72386   1.77396   1.78105   1.81853   1.86096
  Beta virt. eigenvalues --    1.89128   1.90960   1.96094   2.02389   2.04547
  Beta virt. eigenvalues --    2.08101   2.09991   2.13908   2.22928   2.26508
  Beta virt. eigenvalues --    2.29836   2.34051   2.35775   2.36941   2.39590
  Beta virt. eigenvalues --    2.40994   2.43154   2.45986   2.48568   2.50162
  Beta virt. eigenvalues --    2.50204   2.53541   2.58600   2.60804   2.61609
  Beta virt. eigenvalues --    2.64594   2.66506   2.69922   2.72479   2.75490
  Beta virt. eigenvalues --    2.79707   2.80704   2.83862   2.86179   2.96725
  Beta virt. eigenvalues --    2.98550   3.03985   3.06893   3.08544   3.21607
  Beta virt. eigenvalues --    3.28682   3.35219   3.37084   3.41459   3.44732
  Beta virt. eigenvalues --    3.48253   3.71981   3.76403   3.77354   3.80295
  Beta virt. eigenvalues --    3.81656   3.83627   3.85209   3.91629   4.25208
  Beta virt. eigenvalues --    4.29499   4.67768   4.69887   4.78107   4.89931
  Beta virt. eigenvalues --    4.94944   5.01830   5.29049   5.63633   6.00559
  Beta virt. eigenvalues --   23.75570  23.80515  23.91739  23.93281  49.68589
  Beta virt. eigenvalues --   49.74090  49.93928
          Condensed to atoms (all electrons):
              1          2          3          4          5          6
     1  C    4.873598   0.251132  -0.040339  -0.047331  -0.004952  -0.008664
     2  C    0.251132   5.336948   0.398159   0.301882  -0.041190  -0.037800
     3  H   -0.040339   0.398159   0.583405  -0.032965   0.008520  -0.004065
     4  C   -0.047331   0.301882  -0.032965   4.892910   0.407679   0.402556
     5  H   -0.004952  -0.041190   0.008520   0.407679   0.567493  -0.027435
     6  H   -0.008664  -0.037800  -0.004065   0.402556  -0.027435   0.549741
     7  H    0.008134  -0.032094  -0.007620   0.403504  -0.028640  -0.025459
     8  C   -0.054934   0.323440  -0.040605  -0.057323  -0.006511   0.008578
     9  H    0.006452  -0.026997  -0.007331  -0.005214  -0.000778  -0.000193
    10  H   -0.004073  -0.034878  -0.004333   0.008055  -0.000010  -0.000409
    11  H   -0.008674  -0.035340   0.007474  -0.004678   0.004509  -0.000122
    12  O    0.428763  -0.086611  -0.000088   0.008596   0.000414   0.016579
    13  H    0.405872  -0.096936  -0.001077   0.009167   0.000055   0.001309
    14  O    0.102819  -0.021551   0.002188  -0.004979   0.005694   0.000055
    15  O   -0.054680  -0.000591  -0.000304   0.002379   0.000504   0.000531
    16  H   -0.045113   0.006161  -0.000476   0.000006   0.000192  -0.000490
              7          8          9         10         11         12
     1  C    0.008134  -0.054934   0.006452  -0.004073  -0.008674   0.428763
     2  C   -0.032094   0.323440  -0.026997  -0.034878  -0.035340  -0.086611
     3  H   -0.007620  -0.040605  -0.007331  -0.004333   0.007474  -0.000088
     4  C    0.403504  -0.057323  -0.005214   0.008055  -0.004678   0.008596
     5  H   -0.028640  -0.006511  -0.000778  -0.000010   0.004509   0.000414
     6  H   -0.025459   0.008578  -0.000193  -0.000409  -0.000122   0.016579
     7  H    0.574233  -0.004381   0.003170  -0.000048  -0.000570   0.000015
     8  C   -0.004381   4.902867   0.402383   0.398206   0.405131   0.003116
     9  H    0.003170   0.402383   0.569284  -0.027347  -0.027707  -0.000210
    10  H   -0.000048   0.398206  -0.027347   0.579907  -0.027288   0.000050
    11  H   -0.000570   0.405131  -0.027707  -0.027288   0.554411   0.000249
    12  O    0.000015   0.003116  -0.000210   0.000050   0.000249   7.937560
    13  H   -0.000329   0.004032  -0.000688   0.006156   0.000159  -0.039288
    14  O   -0.000018  -0.001032   0.000099  -0.000342   0.006018  -0.037201
    15  O    0.000011   0.000440  -0.000008   0.000006  -0.000322  -0.065383
    16  H    0.000038  -0.000703   0.000037  -0.000040   0.000294   0.215117
             13         14         15         16
     1  C    0.405872   0.102819  -0.054680  -0.045113
     2  C   -0.096936  -0.021551  -0.000591   0.006161
     3  H   -0.001077   0.002188  -0.000304  -0.000476
     4  C    0.009167  -0.004979   0.002379   0.000006
     5  H    0.000055   0.005694   0.000504   0.000192
     6  H    0.001309   0.000055   0.000531  -0.000490
     7  H   -0.000329  -0.000018   0.000011   0.000038
     8  C    0.004032  -0.001032   0.000440  -0.000703
     9  H   -0.000688   0.000099  -0.000008   0.000037
    10  H    0.006156  -0.000342   0.000006  -0.000040
    11  H    0.000159   0.006018  -0.000322   0.000294
    12  O   -0.039288  -0.037201  -0.065383   0.215117
    13  H    0.597998  -0.012124   0.001133   0.002492
    14  O   -0.012124   8.113176   0.052581  -0.049790
    15  O    0.001133   0.052581   8.010549   0.188382
    16  H    0.002492  -0.049790   0.188382   0.391913
 Mulliken atomic charges:
              1
     1  C    0.191987
     2  C   -0.203734
     3  H    0.139456
     4  C   -0.284245
     5  H    0.114456
     6  H    0.125288
     7  H    0.110054
     8  C   -0.282704
     9  H    0.115047
    10  H    0.106387
    11  H    0.126457
    12  O   -0.381679
    13  H    0.122069
    14  O   -0.155591
    15  O   -0.135228
    16  H    0.291980
 Sum of Mulliken charges=   0.00000
 Atomic charges with hydrogens summed into heavy atoms:
              1
     1  C    0.314056
     2  C   -0.064278
     3  H    0.000000
     4  C    0.065553
     5  H    0.000000
     6  H    0.000000
     7  H    0.000000
     8  C    0.065187
     9  H    0.000000
    10  H    0.000000
    11  H    0.000000
    12  O   -0.089699
    13  H    0.000000
    14  O   -0.155591
    15  O   -0.135228
    16  H    0.000000
 Sum of Mulliken charges=   0.00000
          Atomic-Atomic Spin Densities.
              1          2          3          4          5          6
     1  C   -0.039071   0.009483   0.000235  -0.000615  -0.000745   0.000146
     2  C    0.009483  -0.006602  -0.001245   0.002131   0.000664  -0.000356
     3  H    0.000235  -0.001245  -0.002027   0.000722   0.000001   0.000066
     4  C   -0.000615   0.002131   0.000722  -0.001464  -0.000029   0.000239
     5  H   -0.000745   0.000664   0.000001  -0.000029  -0.000853   0.000260
     6  H    0.000146  -0.000356   0.000066   0.000239   0.000260  -0.000228
     7  H   -0.000047   0.000149  -0.000023   0.000087  -0.000199   0.000064
     8  C    0.000922   0.000144   0.000117  -0.000027   0.000145  -0.000054
     9  H    0.000004  -0.000084  -0.000173   0.000057  -0.000032   0.000003
    10  H   -0.000039  -0.000006   0.000147  -0.000014   0.000008  -0.000001
    11  H    0.000009  -0.000048   0.000163  -0.000006   0.000102   0.000011
    12  O    0.002500  -0.001086   0.000169   0.000144   0.000210  -0.000153
    13  H    0.001298  -0.000291   0.000637  -0.000064   0.000044  -0.000017
    14  O   -0.015108   0.003119   0.000054  -0.000913   0.000107   0.000008
    15  O    0.002605   0.000195  -0.000019   0.000081  -0.001074   0.000023
    16  H    0.003757  -0.000198   0.000074  -0.000020   0.000040   0.000002
              7          8          9         10         11         12
     1  C   -0.000047   0.000922   0.000004  -0.000039   0.000009   0.002500
     2  C    0.000149   0.000144  -0.000084  -0.000006  -0.000048  -0.001086
     3  H   -0.000023   0.000117  -0.000173   0.000147   0.000163   0.000169
     4  C    0.000087  -0.000027   0.000057  -0.000014  -0.000006   0.000144
     5  H   -0.000199   0.000145  -0.000032   0.000008   0.000102   0.000210
     6  H    0.000064  -0.000054   0.000003  -0.000001   0.000011  -0.000153
     7  H   -0.000194   0.000072   0.000006   0.000000  -0.000004   0.000006
     8  C    0.000072   0.000567   0.000307  -0.000316  -0.000931  -0.000052
     9  H    0.000006   0.000307  -0.000045  -0.000007  -0.000127   0.000001
    10  H    0.000000  -0.000316  -0.000007   0.000203   0.000156  -0.000001
    11  H   -0.000004  -0.000931  -0.000127   0.000156   0.000327   0.000009
    12  O    0.000006  -0.000052   0.000001  -0.000001   0.000009  -0.001655
    13  H    0.000001  -0.000356   0.000010   0.000020   0.000162  -0.000484
    14  O   -0.000005  -0.000939  -0.000026   0.000009   0.000352   0.003067
    15  O   -0.000004   0.000074   0.000002  -0.000001  -0.000063  -0.001715
    16  H    0.000001  -0.000023   0.000001   0.000000  -0.000026   0.001686
             13         14         15         16
     1  C    0.001298  -0.015108   0.002605   0.003757
     2  C   -0.000291   0.003119   0.000195  -0.000198
     3  H    0.000637   0.000054  -0.000019   0.000074
     4  C   -0.000064  -0.000913   0.000081  -0.000020
     5  H    0.000044   0.000107  -0.001074   0.000040
     6  H   -0.000017   0.000008   0.000023   0.000002
     7  H    0.000001  -0.000005  -0.000004   0.000001
     8  C   -0.000356  -0.000939   0.000074  -0.000023
     9  H    0.000010  -0.000026   0.000002   0.000001
    10  H    0.000020   0.000009  -0.000001   0.000000
    11  H    0.000162   0.000352  -0.000063  -0.000026
    12  O   -0.000484   0.003067  -0.001715   0.001686
    13  H    0.005402  -0.001562   0.000298  -0.000154
    14  O   -0.001562   0.726045  -0.160441   0.001449
    15  O    0.000298  -0.160441   0.647668  -0.006923
    16  H   -0.000154   0.001449  -0.006923  -0.012056
 Mulliken atomic spin densities:
              1
     1  C   -0.034665
     2  C    0.005970
     3  H   -0.001103
     4  C    0.000309
     5  H   -0.001350
     6  H    0.000013
     7  H   -0.000092
     8  C   -0.000349
     9  H   -0.000103
    10  H    0.000158
    11  H    0.000086
    12  O    0.002646
    13  H    0.004945
    14  O    0.555217
    15  O    0.480706
    16  H   -0.012389
 Sum of Mulliken spin densities=   1.00000
 APT atomic charges:
              1
     1  C    0.848450
     2  C   -0.003401
     3  H   -0.042122
     4  C    0.030850
     5  H   -0.000207
     6  H    0.010153
     7  H   -0.011255
     8  C    0.054810
     9  H   -0.010945
    10  H   -0.018642
    11  H    0.006502
    12  O   -0.718726
    13  H   -0.082598
    14  O   -0.157037
    15  O   -0.315394
    16  H    0.409564
 Sum of APT charges=   0.00000
 APT Atomic charges with hydrogens summed into heavy atoms:
              1
     1  C    0.765851
     2  C   -0.045523
     3  H    0.000000
     4  C    0.029541
     5  H    0.000000
     6  H    0.000000
     7  H    0.000000
     8  C    0.031725
     9  H    0.000000
    10  H    0.000000
    11  H    0.000000
    12  O   -0.309162
    13  H    0.000000
    14  O   -0.157037
    15  O   -0.315394
    16  H    0.000000
 Sum of APT charges=   0.00000
 Electronic spatial extent (au):  <R**2>=  1527.7097
 Charge=     0.0000 electrons
 Dipole moment (field-independent basis, Debye):
    X=     0.9735    Y=     0.2512    Z=     1.8793  Tot=     2.1313
 Quadrupole moment (field-independent basis, Debye-Ang):
   XX=   -45.2288   YY=   -42.3115   ZZ=   -43.9762
   XY=    -0.5583   XZ=     0.7319   YZ=     4.3468
 Traceless Quadrupole moment (field-independent basis, Debye-Ang):
   XX=    -1.3900   YY=     1.5273   ZZ=    -0.1373
   XY=    -0.5583   XZ=     0.7319   YZ=     4.3468
 Octapole moment (field-independent basis, Debye-Ang**2):
  XXX=    67.2118  YYY=  -233.9376  ZZZ=   -23.3455  XYY=    20.6265
  XXY=   -79.4557  XXZ=   -14.1821  XZZ=    20.9464  YZZ=   -81.1314
  YYZ=    -2.4173  XYZ=    -0.5838
 Hexadecapole moment (field-independent basis, Debye-Ang**3):
 XXXX=  -363.7592 YYYY= -1126.3200 ZZZZ=  -497.4694 XXXY=    88.8624
 XXXZ=   -20.6820 YYYX=    91.1865 YYYZ=  -115.0086 ZZZX=   -34.4304
 ZZZY=  -110.6761 XXYY=  -251.3613 XXZZ=  -139.2893 YYZZ=  -268.1000
 XXYZ=   -46.1758 YYXZ=   -10.8282 ZZXY=    32.6898
 N-N= 3.319441479968D+02 E-N=-1.563042256035D+03  KE= 3.822035520318D+02
  Exact polarizability:  60.254   1.596  53.154   5.566   1.704  68.404
 Approx polarizability:  90.749   7.675  74.714   6.496  -6.234 104.205
                          Isotropic Fermi Contact Couplings
        Atom                 a.u.       MegaHertz       Gauss      10(-4) cm-1
     1  C(13)             -0.00247      -2.77511      -0.99023      -0.92568
     2  C(13)              0.00516       5.79973       2.06949       1.93458
     3  H(1)              -0.00092      -4.12890      -1.47329      -1.37725
     4  C(13)             -0.00027      -0.30424      -0.10856      -0.10148
     5  H(1)               0.00007       0.33088       0.11807       0.11037
     6  H(1)               0.00004       0.18288       0.06525       0.06100
     7  H(1)              -0.00001      -0.06459      -0.02305      -0.02154
     8  C(13)             -0.00024      -0.27336      -0.09754      -0.09118
     9  H(1)               0.00000       0.00011       0.00004       0.00004
    10  H(1)               0.00004       0.19404       0.06924       0.06473
    11  H(1)               0.00002       0.07638       0.02726       0.02548
    12  O(17)             -0.00778       4.71540       1.68257       1.57289
    13  H(1)               0.00271      12.12968       4.32817       4.04602
    14  O(17)              0.04715     -28.58396     -10.19947      -9.53458
    15  O(17)              0.04695     -28.46167     -10.15583      -9.49379
    16  H(1)              -0.00516     -23.05150      -8.22535      -7.68915
 --------------------------------------------------------
       Center         ----  Spin Dipole Couplings  ----
                      3XX-RR        3YY-RR        3ZZ-RR
 --------------------------------------------------------
     1   Atom        0.004381     -0.001048     -0.003333
     2   Atom       -0.006896     -0.004255      0.011151
     3   Atom       -0.002127     -0.002347      0.004474
     4   Atom       -0.003018     -0.001956      0.004974
     5   Atom       -0.003917      0.002052      0.001865
     6   Atom       -0.000381     -0.002414      0.002795
     7   Atom       -0.001472     -0.000585      0.002057
     8   Atom       -0.002382     -0.002705      0.005087
     9   Atom       -0.001005     -0.001140      0.002144
    10   Atom       -0.000266     -0.002534      0.002800
    11   Atom       -0.000067     -0.002371      0.002438
    12   Atom       -0.005503      0.013153     -0.007650
    13   Atom       -0.007297      0.000689      0.006608
    14   Atom       -0.649018      1.563991     -0.914973
    15   Atom       -0.533105      1.388886     -0.855781
    16   Atom        0.000171     -0.006567      0.006396
 --------------------------------------------------------
                        XY            XZ            YZ
 --------------------------------------------------------
     1   Atom       -0.007988      0.006238      0.013583
     2   Atom        0.000634      0.000786      0.005056
     3   Atom        0.000002     -0.000382     -0.000622
     4   Atom       -0.000965     -0.002986      0.003565
     5   Atom       -0.003646     -0.003381      0.008193
     6   Atom       -0.001193     -0.003634      0.002057
     7   Atom       -0.000521     -0.000889      0.002145
     8   Atom        0.000795      0.003730      0.001833
     9   Atom        0.000552      0.001545      0.001433
    10   Atom       -0.000112      0.003576     -0.000025
    11   Atom        0.004021      0.006751      0.005157
    12   Atom       -0.023822     -0.004499      0.012551
    13   Atom       -0.001591      0.004503     -0.010939
    14   Atom       -1.379161     -0.487354      0.837659
    15   Atom       -1.242399     -0.449380      0.800106
    16   Atom        0.027285     -0.037091     -0.030520
 --------------------------------------------------------


 ---------------------------------------------------------------------------------
              Anisotropic Spin Dipole Couplings in Principal Axis System
 ---------------------------------------------------------------------------------

       Atom             a.u.   MegaHertz   Gauss  10(-4) cm-1        Axes

              Baa    -0.0199    -2.677    -0.955    -0.893 -0.3812 -0.6404  0.6667
     1 C(13)  Bbb     0.0078     1.052     0.375     0.351  0.8480  0.0451  0.5281
              Bcc     0.0121     1.624     0.580     0.542 -0.3683  0.7667  0.5258
 
              Baa    -0.0071    -0.946    -0.338    -0.316  0.9577 -0.2853  0.0379
     2 C(13)  Bbb    -0.0057    -0.759    -0.271    -0.253  0.2838  0.9145 -0.2884
              Bcc     0.0127     1.705     0.608     0.569  0.0477  0.2870  0.9568
 
              Baa    -0.0024    -1.284    -0.458    -0.428  0.1238  0.9876  0.0961
     3 H(1)   Bbb    -0.0021    -1.144    -0.408    -0.382  0.9907 -0.1286  0.0452
              Bcc     0.0046     2.428     0.867     0.810 -0.0570 -0.0896  0.9943
 
              Baa    -0.0041    -0.546    -0.195    -0.182  0.8800 -0.2641  0.3948
     4 C(13)  Bbb    -0.0033    -0.450    -0.160    -0.150  0.3783  0.8923 -0.2464
              Bcc     0.0074     0.995     0.355     0.332 -0.2872  0.3662  0.8851
 
              Baa    -0.0063    -3.343    -1.193    -1.115  0.1849  0.7296 -0.6584
     5 H(1)   Bbb    -0.0055    -2.916    -1.041    -0.973  0.9350  0.0758  0.3465
              Bcc     0.0117     6.259     2.233     2.088 -0.3027  0.6796  0.6682
 
              Baa    -0.0031    -1.673    -0.597    -0.558 -0.1172  0.9138 -0.3888
     6 H(1)   Bbb    -0.0027    -1.451    -0.518    -0.484  0.8444  0.2978  0.4454
              Bcc     0.0059     3.124     1.115     1.042 -0.5228  0.2761  0.8065
 
              Baa    -0.0018    -0.954    -0.340    -0.318  0.1990  0.8747 -0.4420
     7 H(1)   Bbb    -0.0017    -0.898    -0.320    -0.299  0.9585 -0.0797  0.2737
              Bcc     0.0035     1.851     0.661     0.618 -0.2042  0.4782  0.8542
 
              Baa    -0.0039    -0.527    -0.188    -0.176  0.9261 -0.0399 -0.3751
     8 C(13)  Bbb    -0.0031    -0.418    -0.149    -0.139 -0.0392  0.9788 -0.2009
              Bcc     0.0070     0.945     0.337     0.315  0.3752  0.2008  0.9049
 
              Baa    -0.0017    -0.900    -0.321    -0.300  0.3557  0.8192 -0.4499
     9 H(1)   Bbb    -0.0016    -0.864    -0.308    -0.288  0.8642 -0.4716 -0.1753
              Bcc     0.0033     1.764     0.629     0.588  0.3558  0.3265  0.8757
 
              Baa    -0.0027    -1.425    -0.509    -0.475  0.7235  0.5049 -0.4707
    10 H(1)   Bbb    -0.0025    -1.327    -0.474    -0.443 -0.4164  0.8631  0.2857
              Bcc     0.0052     2.753     0.982     0.918  0.5505 -0.0107  0.8348
 
              Baa    -0.0058    -3.096    -1.105    -1.033 -0.4932 -0.4961  0.7146
    11 H(1)   Bbb    -0.0054    -2.880    -1.028    -0.961 -0.6554  0.7520  0.0697
              Bcc     0.0112     5.976     2.132     1.993  0.5719  0.4340  0.6961
 
              Baa    -0.0227     1.643     0.586     0.548  0.7551  0.5967 -0.2718
    12 O(17)  Bbb    -0.0108     0.779     0.278     0.260  0.3963 -0.0851  0.9142
              Bcc     0.0335    -2.422    -0.864    -0.808 -0.5224  0.7980  0.3007
 
              Baa    -0.0094    -5.018    -1.790    -1.674  0.7521 -0.4262 -0.5027
    13 H(1)   Bbb    -0.0065    -3.452    -1.232    -1.152  0.6301  0.6885  0.3590
              Bcc     0.0159     8.470     3.022     2.825  0.1931 -0.5867  0.7864
 
              Baa    -1.3457    97.377    34.746    32.481  0.8638  0.2910  0.4114
    14 O(17)  Bbb    -1.1534    83.459    29.780    27.839 -0.2767 -0.4085  0.8698
              Bcc     2.4991  -180.836   -64.527   -60.320 -0.4212  0.8651  0.2724
 
              Baa    -1.1834    85.633    30.556    28.564  0.7685  0.1802  0.6139
    15 O(17)  Bbb    -1.0840    78.438    27.988    26.164 -0.4769 -0.4782  0.7375
              Bcc     2.2674  -164.071   -58.545   -54.728 -0.4265  0.8595  0.2816
 
              Baa    -0.0340   -18.143    -6.474    -6.052  0.6869  0.1152  0.7176
    16 H(1)   Bbb    -0.0302   -16.104    -5.746    -5.372 -0.4330  0.8579  0.2767
              Bcc     0.0642    34.248    12.220    11.424 -0.5837 -0.5008  0.6391
 

 ---------------------------------------------------------------------------------

 Use density number 0.
 Entering OneElI...
 Calculate overlap and kinetic energy integrals
    NBasis = 187  MinDer = 2  MaxDer = 2
 Requested accuracy = 0.1000D-12
 PrsmSu:  NPrtUS=   1 ThrOK=F
 PRISM was handed   130759106 working-precision words and  2553 shell-pairs
 Entering OneElI...
 Calculate potential energy integrals
    NBasis = 187  MinDer = 2  MaxDer = 2
 Requested accuracy = 0.1000D-12
 PrsmSu:  NPrtUS=   8 ThrOK=T
 PRISM was handed    16301190 working-precision words and  2397 shell-pairs
 PRISM was handed    16301190 working-precision words and  2397 shell-pairs
 PRISM was handed    16301190 working-precision words and  2397 shell-pairs
 PRISM was handed    16301190 working-precision words and  2397 shell-pairs
 PRISM was handed    16301190 working-precision words and  2397 shell-pairs
 PRISM was handed    16301190 working-precision words and  2397 shell-pairs
 PRISM was handed    16301190 working-precision words and  2397 shell-pairs
 PRISM was handed    16301190 working-precision words and  2397 shell-pairs
 Polarizability after L701:
                1             2             3
      1  0.602544D+02
      2  0.159608D+01  0.531539D+02
      3  0.556560D+01  0.170400D+01  0.684040D+02
 Dipole Derivatives after L701:
               1            2            3            4            5
      1 0.905606D+00 0.146885D+00 0.190651D+00 0.120307D+00-0.849942D-02
      2 0.178243D+00 0.751365D+00 0.243194D+00 0.462185D-01-0.153902D-01
      3-0.158641D+00 0.100704D+00 0.888379D+00 0.309496D-01-0.646400D-01
               6            7            8            9           10
      1-0.852864D-01 0.174489D-01-0.347924D-01 0.155341D-01-0.248424D-01
      2-0.162914D+00-0.167102D-01-0.427861D-01 0.853867D-01 0.813218D-02
      3-0.115121D+00 0.139793D-01 0.236635D-02-0.101028D+00-0.636372D-01
              11           12           13           14           15
      1 0.540385D-02 0.305350D-02 0.430479D-01 0.142970D-01 0.165170D-01
      2 0.310589D-01-0.104308D-01-0.163832D-01 0.208053D-01 0.103054D+00
      3 0.274517D-02 0.863324D-01 0.545008D-01 0.525824D-01-0.644747D-01
              16           17           18           19           20
      1-0.101065D+00-0.645075D-01-0.251072D-01 0.682429D-01 0.203793D-01
      2-0.223308D-01 0.504997D-01 0.165866D-01-0.113758D-02-0.429397D-01
      3-0.734757D-02 0.262802D-01 0.810250D-01-0.268286D-01-0.107346D+00
              21           22           23           24           25
      1-0.965827D-02 0.197884D-01-0.963344D-02 0.812006D-02 0.417582D-01
      2-0.120075D+00-0.147770D-01 0.583932D-01 0.383407D-02-0.144620D-01
      3-0.590684D-01 0.422747D-01-0.263948D-01 0.862481D-01-0.104641D-01
              26           27           28           29           30
      1-0.445690D-01-0.409585D-01-0.624231D-01 0.127414D+00-0.680202D-02
      2-0.193378D-01-0.112875D+00 0.795507D-01-0.705057D-01 0.171818D-01
      3-0.114212D+00-0.552542D-01-0.790965D-02 0.310570D-01 0.770041D-01
              31           32           33           34           35
      1 0.411451D-01-0.258504D-01 0.548927D-01-0.924862D+00-0.229557D+00
      2-0.935467D-02 0.328209D-01 0.889129D-01-0.285128D+00-0.646170D+00
      3-0.716576D-02 0.655008D-01-0.544614D-01-0.130732D-01-0.175000D-01
              36           37           38           39           40
      1-0.154957D+00-0.106318D+00 0.109758D+00 0.918113D-02-0.162109D+00
      2-0.127947D+00 0.116817D+00-0.810315D-01-0.325731D-01-0.136929D+00
      3-0.585147D+00 0.156019D-01-0.255588D-02-0.604460D-01 0.559878D+00
              41           42           43           44           45
      1-0.528618D-01 0.119359D+00-0.163911D+00-0.695880D-02-0.219905D-01
      2-0.239566D+00 0.374928D-01 0.612053D-01-0.132238D+00 0.672756D-01
      3 0.211795D+00-0.694371D-01-0.437220D+00-0.564487D-01-0.650035D+00
              46           47           48
      1 0.288186D+00 0.530923D-01-0.725491D-01
      2 0.270454D-01 0.345022D+00-0.961040D-01
      3 0.151030D-01-0.103933D+00 0.595485D+00
 Hessian after L701:
                1             2             3             4             5
      1  0.116631D+02
      2 -0.348225D+01  0.199740D+02
      3 -0.405182D+01 -0.410398D+01  0.206227D+02
      4 -0.609841D+01  0.953468D+00  0.894047D+00  0.155609D+02
      5  0.892938D+00 -0.273641D+01  0.313090D+01 -0.437076D+00  0.147226D+02
      6  0.914835D+00  0.323678D+01 -0.361117D+01 -0.906669D+00 -0.203145D+01
      7  0.896299D-01  0.168424D-01  0.220221D-01 -0.452424D+01  0.244289D+00
      8  0.159130D-01  0.125849D+00 -0.219747D-01  0.260818D+00 -0.402971D+01
      9  0.486100D-01  0.162612D-01 -0.233051D-03 -0.539415D+00 -0.121799D+01
     10 -0.652323D-01 -0.149260D-01 -0.755400D-01 -0.335652D+01 -0.256486D+01
     11 -0.746312D-01  0.163321D+00  0.203913D+00 -0.264744D+01 -0.314008D+01
     12 -0.846766D-01  0.188601D+00  0.109633D+00  0.251385D+00 -0.311566D+00
     13 -0.190513D-01  0.256558D-01 -0.306261D-02  0.907196D-01  0.516319D-01
     14  0.123539D-01 -0.105670D-01  0.144864D-02  0.198682D-01  0.613465D-01
     15  0.631327D-02 -0.244588D-01 -0.236794D-02 -0.917808D-02  0.303916D-02
     16  0.702939D-02  0.192656D-01  0.300989D-02  0.445669D-01  0.196983D-01
     17  0.331767D-01 -0.358449D-01 -0.181067D-01  0.104327D+00  0.753815D-01
     18  0.858417D-02 -0.160122D-01  0.348758D-02  0.667969D-02  0.471053D-04
     19 -0.436245D-01 -0.492675D-01 -0.300061D-01  0.585418D-01  0.428868D-01
     20 -0.491963D-01  0.132887D+00  0.105097D+00 -0.682853D-02 -0.160598D-01
     21 -0.339139D-01  0.113384D+00  0.154789D-01 -0.248049D-02 -0.211454D-02
     22 -0.843835D-01 -0.185888D-01  0.427896D-01 -0.116315D+01  0.149149D+01
     23  0.753426D-01  0.821742D-01  0.120108D+00  0.152180D+01 -0.533221D+01
     24  0.683157D-01  0.861264D-01  0.605278D-01  0.193676D+00  0.177661D-01
     25  0.123625D-01  0.806468D-01  0.643909D-01  0.291969D-01 -0.450304D-01
     26  0.801948D-01  0.544597D-01  0.818291D-01  0.117019D-01  0.241116D-01
     27  0.717261D-01  0.855112D-01  0.285414D-01  0.414117D-01  0.284696D-01
     28  0.150113D-01 -0.404740D-02  0.244816D-01 -0.182252D-01  0.289406D-01
     29 -0.255258D-01 -0.232446D-01 -0.986925D-02 -0.368020D-01  0.105893D+00
     30  0.217703D-01  0.396121D-03 -0.366850D-02 -0.132184D-01  0.163048D-02
     31 -0.314372D-01 -0.298180D-01 -0.527909D-02  0.969629D-02 -0.439839D-01
     32 -0.104863D-01 -0.162462D-02 -0.618824D-02 -0.191400D-01  0.838513D-01
     33 -0.300325D-01 -0.279122D-01  0.778506D-02 -0.101196D-01 -0.188247D-01
     34 -0.613842D+00  0.385495D+01  0.454212D+01 -0.634809D+00 -0.382298D-02
     35  0.407037D+01 -0.129203D+02  0.192680D+01 -0.295235D-01  0.930191D+00
     36  0.428279D+01  0.176425D+01 -0.133219D+02 -0.154902D+00  0.434690D+00
     37 -0.286428D+01 -0.175736D+01 -0.265259D+00  0.307794D+00  0.292062D+00
     38 -0.187448D+01 -0.340359D+01  0.172847D+00  0.290503D+00 -0.360964D+00
     39 -0.152296D+00  0.465346D-01 -0.493187D+01  0.132203D+00 -0.302620D+00
     40 -0.188901D+01  0.343545D+00 -0.777700D+00 -0.159873D+00 -0.181867D-01
     41  0.365606D+00 -0.160930D+01 -0.118199D+01 -0.234309D-01 -0.215631D+00
     42 -0.799169D+00 -0.113789D+01  0.590799D+00 -0.471432D-01  0.757606D-01
     43 -0.271577D+00  0.588314D-02 -0.309012D+00 -0.132345D+00  0.231920D-01
     44 -0.609760D-01  0.743136D-01 -0.370155D+00  0.227207D-01 -0.133588D+00
     45 -0.243043D+00 -0.239294D+00  0.389094D+00  0.886647D-01  0.122886D+00
     46  0.193673D+00  0.559969D-01 -0.751820D-01 -0.138828D-01  0.258412D-01
     47  0.316454D-01  0.133911D+00 -0.306871D-01  0.150360D-01 -0.387449D-01
     48 -0.279987D-01  0.117035D-01  0.431559D-01  0.750595D-01  0.693817D-01
                6             7             8             9            10
      6  0.158584D+02
      7 -0.462078D+00  0.458535D+01
      8 -0.112242D+01 -0.307087D+00  0.390321D+01
      9 -0.245015D+01  0.469671D+00  0.131509D+01  0.171946D+01
     10  0.335748D+00  0.245345D-01  0.622959D-01 -0.274180D-01  0.141974D+02
     11 -0.390339D+00  0.801051D-01 -0.208591D-02 -0.164627D-01  0.145554D+01
     12 -0.571250D+01 -0.371411D-01 -0.151090D-01  0.153301D+00  0.452980D-01
     13 -0.680456D-01 -0.292981D-01 -0.217761D-01  0.260167D-01 -0.450053D+01
     14  0.831293D-01 -0.201191D-01  0.566001D-01 -0.101774D+00  0.295135D+00
     15  0.902028D-01  0.200556D-01 -0.865070D-01  0.619338D-01 -0.407928D+00
     16 -0.375031D-01 -0.155111D-01  0.103928D-01 -0.466939D-02 -0.184847D+01
     17  0.178694D-01  0.192077D-01 -0.368118D-02  0.158575D-01  0.817225D+00
     18  0.770871D-01 -0.150045D-01  0.802671D-02  0.213452D-02  0.363496D-01
     19  0.350653D-01  0.117692D-01  0.253564D-01 -0.462528D-02 -0.419051D+01
     20 -0.200322D-01  0.253270D-01 -0.482279D-01  0.473472D-02  0.982469D-01
     21  0.759427D-01 -0.632310D-03  0.115600D-01  0.130345D-01  0.971374D-01
     22  0.101165D+00 -0.496311D-01 -0.609557D-01  0.415398D-01  0.222395D+00
     23  0.163426D-02 -0.688980D-01  0.878668D-01 -0.763887D-02 -0.133800D+00
     24 -0.577088D+01  0.349554D-01 -0.119043D-01  0.158505D+00  0.151238D-01
     25  0.775933D-03 -0.229045D-01 -0.391910D-01  0.301316D-02  0.697487D-03
     26  0.395093D-01 -0.361760D-01 -0.130219D-01 -0.267579D-02  0.600103D-02
     27  0.927349D-01  0.266257D-02  0.570816D-02  0.129320D-01  0.261442D-01
     28  0.165277D-01 -0.274051D-01  0.114058D-02  0.585297D-02  0.149095D+00
     29 -0.134836D-01 -0.725965D-02  0.660265D-02  0.941566D-02 -0.998863D-01
     30  0.699503D-01  0.120263D-01  0.300965D-03  0.538490D-02  0.249566D-01
     31  0.804467D-01  0.250121D-01  0.495144D-01 -0.721349D-01 -0.613093D-02
     32  0.216187D-01  0.474116D-01  0.131383D-01 -0.604816D-01 -0.163084D-02
     33  0.103960D+00 -0.602391D-01 -0.530780D-01  0.446345D-01 -0.306908D-01
     34 -0.284776D+00 -0.296330D-01  0.890012D-03  0.852920D-01 -0.298769D+00
     35  0.355264D+00  0.743234D-02 -0.510214D-01  0.516477D-01  0.273439D+00
     36  0.342377D+00  0.371050D-01  0.108059D-01  0.112756D+00  0.116129D+00
     37  0.169228D+00  0.135618D-02  0.220822D-02 -0.123674D-01  0.303235D-02
     38 -0.390236D+00 -0.153841D-02 -0.510311D-02  0.755833D-02 -0.110355D+00
     39  0.279650D+00  0.107720D-03 -0.126103D-02  0.282925D-02 -0.298479D-01
     40 -0.218830D-01 -0.276153D-01  0.401824D-02 -0.188672D-01 -0.133916D+00
     41  0.553923D-01  0.713900D-03 -0.303600D-01 -0.118533D-01 -0.828214D-01
     42  0.259217D+00 -0.204437D-01 -0.232873D-01  0.132322D+00 -0.146468D+00
     43  0.624254D-01 -0.106041D-01 -0.342969D-02 -0.457642D-03 -0.179298D+00
     44  0.112423D+00  0.690750D-04 -0.104445D-01 -0.134970D-02 -0.721449D-02
     45  0.222950D+00 -0.169152D-02 -0.126064D-01  0.331114D-01  0.440913D-02
     46  0.647369D-01 -0.809756D-03 -0.108408D-03 -0.407873D-04 -0.177536D-01
     47  0.443492D-01 -0.319535D-03  0.387862D-03 -0.339634D-03  0.762120D-02
     48  0.721916D-01 -0.137548D-02 -0.334872D-02 -0.195124D-02  0.165969D-01
               11            12            13            14            15
     11  0.135723D+02
     12 -0.625601D+00  0.149020D+02
     13  0.180701D+00 -0.305135D+00  0.444040D+01
     14 -0.373741D+01 -0.152743D+01 -0.145380D+00  0.334660D+01
     15 -0.122404D+01 -0.240345D+01  0.307307D+00  0.130205D+01  0.240152D+01
     16  0.108867D+01  0.193575D+00  0.927355D-02 -0.732941D-01  0.495148D-01
     17 -0.414387D+01  0.360667D-01 -0.625048D-01  0.324425D-01  0.291639D-01
     18 -0.899801D-02 -0.445677D+01  0.883186D-01  0.676366D-01  0.450426D-01
     19  0.186390D-01  0.127166D-01  0.829157D-01  0.449919D-02  0.240834D-01
     20 -0.295101D+01  0.137715D+01  0.704169D-03  0.100011D+00 -0.597966D-02
     21  0.133162D+01 -0.268134D+01 -0.168079D-02 -0.245894D-01 -0.100492D+00
     22 -0.855450D-02  0.536585D-01 -0.183176D-01  0.138673D-01  0.179013D-01
     23 -0.271789D-01 -0.648948D-02  0.124170D-01 -0.122093D-01 -0.159400D-01
     24  0.118694D-01 -0.349065D-01 -0.377680D-02  0.887020D-03  0.599757D-02
     25 -0.141697D-02  0.794918D-02 -0.163858D-02 -0.214503D-02  0.555345D-02
     26 -0.891121D-02  0.566113D-02  0.130047D-02 -0.435210D-02  0.572583D-02
     27  0.726441D-02 -0.280418D-02  0.192836D-02 -0.535768D-02  0.101535D-01
     28 -0.101154D+00  0.168034D-01  0.260536D-02 -0.831552D-02  0.884559D-02
     29 -0.447631D-02 -0.954362D-02 -0.371528D-02  0.503493D-02 -0.818952D-02
     30 -0.127295D-01 -0.487946D-01  0.189555D-02 -0.286049D-02  0.714781D-03
     31 -0.770011D-03 -0.206778D-02  0.489456D-01 -0.278658D-01  0.153000D-01
     32 -0.102649D-01 -0.231964D-02 -0.107432D-01 -0.186028D-01  0.114151D-02
     33 -0.606044D-02 -0.404971D-02 -0.173317D-02  0.478062D-02 -0.289531D-01
     34  0.227498D+00  0.112893D+00 -0.297685D-01  0.261293D-01 -0.118112D-01
     35  0.339879D+00  0.353514D+00  0.240800D-01  0.900311D-01 -0.335215D-01
     36  0.312819D+00 -0.241917D+00  0.662632D-03  0.108148D-01 -0.360490D-01
     37 -0.131214D+00 -0.429890D-01 -0.144966D-02 -0.957692D-02  0.617408D-02
     38  0.160353D+00  0.654044D-01 -0.225337D-02  0.112369D-01 -0.713821D-02
     39  0.526639D-01 -0.468657D-01  0.198373D-03  0.260701D-03 -0.292621D-02
     40 -0.673457D-01 -0.194883D+00 -0.375650D-01 -0.858922D-01 -0.377901D-01
     41 -0.137444D+00  0.203991D+00 -0.593019D-01  0.559780D-01  0.471636D-01
     42  0.125784D+00  0.160648D+00 -0.540864D-01  0.118048D+00 -0.312774D-01
     43 -0.239909D-01 -0.374690D-01 -0.347240D-01 -0.192010D-02  0.585658D-02
     44 -0.823825D-01  0.228792D+00  0.732103D-02  0.181227D-01  0.162026D-01
     45  0.189221D+00  0.281979D+00  0.916281D-02  0.644193D-01 -0.452817D-02
     46  0.537560D-02  0.100820D-01 -0.251964D-02  0.265632D-02 -0.197705D-03
     47  0.928755D-02  0.388748D-01  0.186344D-02  0.573836D-02  0.129093D-02
     48  0.490757D-01  0.258191D-01  0.202996D-02  0.853426D-02 -0.552757D-02
               16            17            18            19            20
     16  0.161515D+01
     17 -0.789861D+00  0.406109D+01
     18  0.619226D-02 -0.166077D+00  0.438292D+01
     19  0.228957D-01 -0.637219D-01 -0.635344D-01  0.405493D+01
     20 -0.564919D-01  0.138808D-01 -0.488652D-01  0.421561D-01  0.272765D+01
     21 -0.415608D-01 -0.324060D-01  0.402486D-01  0.380343D-01 -0.152601D+01
     22  0.208327D+00 -0.111191D-01  0.104595D-01  0.218417D-02 -0.186862D-01
     23 -0.128049D-01 -0.563615D-01 -0.120806D-02 -0.126441D-01  0.147475D-03
     24  0.196905D-01 -0.202124D-02 -0.520440D-01 -0.140450D-01  0.147255D-01
     25  0.684636D-02  0.220343D-02  0.171529D-02  0.353719D-01 -0.212729D-01
     26  0.771153D-02  0.523588D-03  0.120741D-02 -0.507367D-02 -0.164953D-01
     27  0.982782D-02  0.296363D-02 -0.111242D-03  0.119277D-01 -0.943109D-02
     28 -0.703900D-04  0.550019D-02 -0.122444D-03  0.383325D-02 -0.968470D-02
     29 -0.587996D-02 -0.143266D-02 -0.403870D-03 -0.483629D-02  0.657626D-02
     30  0.320000D-03  0.468115D-03  0.302462D-03 -0.569166D-03  0.403313D-03
     31  0.862388D-02  0.240643D-02 -0.112364D-02  0.287220D-03 -0.427221D-02
     32  0.570089D-02 -0.353102D-03 -0.400985D-03  0.985821D-03 -0.396960D-02
     33 -0.106878D-01 -0.285441D-02 -0.103760D-02 -0.486351D-02  0.805276D-02
     34 -0.113406D+00 -0.292882D-01 -0.149812D-01 -0.156022D-01  0.160137D-01
     35 -0.137583D+00  0.929509D-01  0.122325D+00  0.478699D-02  0.418178D-01
     36 -0.619679D-01  0.979558D-01 -0.798213D-01  0.394265D-02  0.377017D-01
     37  0.220895D-01 -0.161949D-01 -0.723651D-02 -0.256084D-03 -0.469846D-02
     38 -0.266925D-01  0.914666D-02  0.653290D-02  0.210501D-02  0.154741D-02
     39 -0.694409D-02  0.459365D-02 -0.462048D-02  0.170153D-02 -0.937336D-03
     40  0.321657D-01 -0.591609D-02 -0.327872D-01 -0.113591D-01 -0.938629D-02
     41 -0.263731D-01 -0.207533D-01  0.155290D-01 -0.593994D-02  0.605800D-02
     42 -0.581777D-01  0.559567D-02  0.881971D-02 -0.104859D-01  0.326493D-01
     43  0.170963D-02 -0.520613D-02 -0.239975D-01 -0.100035D-01 -0.297313D-02
     44 -0.206581D-01 -0.194154D-01  0.218060D-01 -0.402130D-03  0.391089D-02
     45 -0.552091D-01  0.122548D-01  0.354751D-01 -0.157300D-03  0.245570D-01
     46 -0.122092D-02 -0.234147D-03  0.488399D-03 -0.137082D-02  0.104266D-02
     47 -0.179724D-02 -0.370602D-02 -0.114549D-02  0.470138D-03  0.126923D-02
     48 -0.541059D-02 -0.132390D-02 -0.110744D-02  0.815173D-03  0.617737D-02
               21            22            23            24            25
     21  0.258360D+01
     22 -0.288396D-01  0.122386D+02
     23  0.254493D-01 -0.100878D+01  0.149537D+02
     24 -0.534119D-02 -0.651575D+00 -0.352549D+00  0.145116D+02
     25 -0.630089D-02 -0.404679D+01  0.349800D+00  0.389980D+00  0.385302D+01
     26 -0.381829D-02  0.245914D+00 -0.297006D+01  0.127742D+01 -0.394553D+00
     27 -0.216746D-01  0.281985D+00  0.130246D+01 -0.263414D+01 -0.540750D+00
     28 -0.680883D-02 -0.296655D+01 -0.146358D+01  0.161328D+00  0.644209D-01
     29  0.657298D-02 -0.127810D+01 -0.271933D+01 -0.183632D+00  0.391826D-01
     30 -0.199773D-02  0.225741D+00 -0.283771D+00 -0.417280D+01  0.326618D-01
     31 -0.631183D-02 -0.426171D+01  0.396045D+00 -0.790594D+00  0.786482D-01
     32 -0.266721D-02  0.303980D+00 -0.374909D+01 -0.130074D+01  0.758523D-02
     33  0.903452D-02 -0.529772D+00 -0.112268D+01 -0.233497D+01  0.274542D-02
     34  0.135342D-01  0.172742D+00  0.241755D+00  0.166408D+00  0.357923D-02
     35  0.468374D-01  0.215276D+00 -0.267877D-01  0.103121D+00  0.110936D-01
     36  0.114257D-01  0.128682D+00  0.863134D-01 -0.115135D+00  0.670970D-02
     37 -0.464231D-02 -0.534195D-01 -0.573469D-02 -0.702702D-02 -0.206452D-02
     38  0.447023D-02  0.250190D-01  0.850589D-01  0.607290D-01 -0.183713D-03
     39  0.761033D-03  0.638562D-02  0.461488D-01 -0.381374D-01 -0.752519D-03
     40 -0.140771D-01 -0.164420D+00  0.746193D-01  0.272848D+00 -0.896638D-02
     41  0.281692D-01  0.749276D-01 -0.217148D+00  0.208306D+00  0.850396D-02
     42  0.308524D-01  0.186941D+00  0.151190D+00  0.319406D+00  0.193559D-01
     43 -0.272647D-02 -0.279110D-01  0.344353D-01  0.141442D+00 -0.231461D-02
     44  0.199877D-01  0.353454D-01 -0.890921D-01  0.692523D-01  0.441972D-02
     45  0.262252D-01  0.110360D+00  0.517004D-01  0.104780D+00  0.101324D-01
     46  0.126937D-02 -0.795906D-02  0.181252D-04  0.325088D-02  0.529760D-03
     47  0.354559D-02 -0.103083D-02 -0.947964D-02  0.645340D-03  0.357612D-03
     48  0.424072D-02  0.257895D-02  0.527351D-02 -0.243291D-02  0.281955D-02
               26            27            28            29            30
     26  0.287080D+01
     27 -0.141128D+01  0.247533D+01
     28  0.363178D-01  0.219803D-01  0.262014D+01
     29 -0.367050D-01 -0.363228D-01  0.140981D+01  0.274363D+01
     30 -0.621606D-01  0.559321D-01 -0.368424D+00  0.212861D+00  0.404404D+01
     31  0.725588D-02  0.174006D-01  0.785928D-01  0.306862D-01 -0.402212D-01
     32  0.890809D-01 -0.331779D-01  0.342620D-01 -0.237466D-01  0.105447D+00
     33  0.178592D-02 -0.859090D-01 -0.268821D-01  0.590895D-01  0.226038D-01
     34  0.244224D-01  0.244117D-01  0.534689D-01 -0.124772D-01  0.251149D-01
     35  0.100661D-01  0.210695D-01  0.206919D-01 -0.220886D-01  0.681947D-02
     36  0.145111D-01  0.530984D-02  0.258412D-01 -0.393694D-02 -0.871822D-02
     37 -0.635501D-02 -0.592066D-02 -0.145754D-02  0.253433D-01  0.203721D-01
     38  0.324599D-02  0.445278D-02  0.512561D-01 -0.513374D-03  0.345237D-01
     39  0.300453D-03  0.284398D-03  0.316621D-01  0.201875D-01 -0.482023D-02
     40  0.124959D-01  0.206410D-01  0.138749D-01 -0.203416D-01  0.386207D-01
     41 -0.130765D-02  0.258381D-01 -0.195334D-02 -0.245935D-01 -0.231645D-02
     42  0.330146D-01  0.418462D-01  0.571604D-01 -0.290180D-01  0.306588D-01
     43  0.694323D-02  0.119169D-01  0.105688D-01 -0.876123D-02  0.174293D-01
     44 -0.135544D-02  0.102632D-01  0.649494D-03 -0.105720D-01  0.723221D-03
     45  0.153894D-01  0.188005D-01  0.278652D-01 -0.119989D-01  0.108230D-01
     46  0.189887D-02  0.270644D-02  0.209863D-02 -0.143691D-02  0.152434D-02
     47 -0.817565D-04  0.157138D-02  0.161246D-03 -0.103895D-02  0.264484D-03
     48  0.358656D-02  0.277450D-02  0.388854D-02 -0.172759D-02  0.387075D-03
               31            32            33            34            35
     31  0.403530D+01
     32 -0.500227D+00  0.361360D+01
     33  0.663852D+00  0.113527D+01  0.229918D+01
     34  0.258550D-01  0.462180D-01 -0.212294D-01  0.561339D+01
     35  0.346482D-01  0.166956D-01 -0.156671D-01 -0.438379D+01  0.147296D+02
     36  0.640060D-02  0.624305D-02 -0.207066D-01 -0.385490D+01 -0.106260D+01
     37 -0.570723D-02 -0.235602D-02  0.432725D-02 -0.897255D-01 -0.361794D+00
     38  0.806422D-02  0.167504D-01 -0.925635D-02 -0.362762D+00  0.311258D+00
     39  0.453110D-03  0.142543D-02 -0.541714D-02 -0.227697D+00 -0.215731D-01
     40 -0.159718D-01  0.705531D-01  0.516945D-01 -0.141066D+00  0.220306D+00
     41  0.569895D-01 -0.254446D-01  0.428972D-01  0.259296D+00  0.270985D-01
     42  0.107179D+00  0.108525D+00  0.150798D-01 -0.395170D+00 -0.338262D+00
     43  0.503565D-02  0.218568D-01  0.225749D-02 -0.123703D+00  0.877367D-01
     44  0.168136D-01 -0.112889D-02  0.287921D-02  0.481483D-01 -0.174560D+00
     45  0.212665D-01  0.213115D-01 -0.180921D-01 -0.465604D-01 -0.207361D-01
     46  0.495472D-02  0.603034D-02  0.137327D-02 -0.377871D+01 -0.571697D-01
     47  0.451343D-02  0.111051D-02  0.157739D-02  0.468158D-01 -0.339480D+01
     48  0.543370D-02  0.498841D-02 -0.314689D-02 -0.112648D+00 -0.149504D+01
               36            37            38            39            40
     36  0.124571D+02
     37 -0.203413D+00  0.263364D+01
     38 -0.490772D-02  0.207205D+01  0.319504D+01
     39  0.976594D-01  0.175563D+00  0.144617D+00  0.466933D+01
     40 -0.346616D+00  0.139771D-01  0.000000D+00 -0.786686D-02  0.118463D+01
     41 -0.326772D+00 -0.294560D-01 -0.240760D-01  0.646090D-01 -0.357186D+01
     42  0.125138D+00  0.377731D-01  0.859382D-02 -0.364845D-01 -0.546745D+01
     43 -0.200526D+00  0.132912D-01 -0.491584D-01  0.505748D-01  0.166263D+01
     44 -0.138924D+00 -0.505343D-01  0.761963D-02 -0.479532D-01  0.331673D+01
     45  0.671039D-01  0.920394D-01 -0.809120D-01  0.219741D-01  0.673565D+01
     46  0.214059D+00  0.231772D-01 -0.215754D-01  0.265557D-01 -0.317510D+00
     47 -0.123897D+01 -0.163875D-01 -0.701228D-02 -0.699666D-02 -0.263339D+00
     48  0.605379D+00  0.433780D-01 -0.172791D-01 -0.134965D-02 -0.199528D+00
               41            42            43            44            45
     41  0.105097D+02
     42 -0.587457D+00  0.214379D+01
     43  0.329654D+01  0.672473D+01  0.139535D+01
     44 -0.851735D+01  0.153231D+01 -0.434074D+01  0.113657D+02
     45  0.152266D+01 -0.414856D+01 -0.521317D+01 -0.216854D+00  0.439946D+01
     46 -0.261448D+00 -0.134549D+00 -0.229610D+01  0.102831D+01 -0.153971D+01
     47  0.224572D+00 -0.755635D-01  0.959588D+00 -0.242981D+01 -0.144199D+01
     48 -0.104164D+00  0.357748D+00 -0.122927D+01 -0.123941D+01 -0.144060D+01
               46            47            48
     46  0.621341D+01
     47 -0.785198D+00  0.550840D+01
     48  0.142363D+01  0.270357D+01  0.344420D+00
 ReadGW:  IGet=0 IStart=         114 Next=        7227 LGW=        7113.
 ICntrl=12127.
 Symmetry not used in FoFDir.
 MinBra= 0 MaxBra= 2 Meth= 1.
 IRaf=       0 NMat=   1 IRICut=       1 DoRegI=T DoRafI=F ISym2E= 0 JSym2E=0.
 PrsmSu:  NPrtUS=   8 ThrOK=T
 PRISM was handed    16287154 working-precision words and  2474 shell-pairs
 PRISM was handed    16287154 working-precision words and  2474 shell-pairs
 PRISM was handed    16287154 working-precision words and  2474 shell-pairs
 PRISM was handed    16287154 working-precision words and  2474 shell-pairs
 PRISM was handed    16287154 working-precision words and  2474 shell-pairs
 PRISM was handed    16287154 working-precision words and  2474 shell-pairs
 PRISM was handed    16287154 working-precision words and  2474 shell-pairs
 PRISM was handed    16287154 working-precision words and  2474 shell-pairs
 Pruned (  75, 302) grid will be used in CalDFT.
 CkSvGd:  ISavGI=        -1 IRadAn=       4 IRASav=       4 ISavGd=        -1.
 CalDSu:  NPrtUS=   8 ThrOK=T
 IPart= 0 IRanGd=          0 ScrnBf=T ScrnGd=T RCrit=4.00D+00 DoMicB=T.
 IPart= 7 IRanGd=          0 ScrnBf=T ScrnGd=T RCrit=4.00D+00 DoMicB=T.
 IPart= 1 IRanGd=          0 ScrnBf=T ScrnGd=T RCrit=4.00D+00 DoMicB=T.
 IPart= 6 IRanGd=          0 ScrnBf=T ScrnGd=T RCrit=4.00D+00 DoMicB=T.
 IPart= 4 IRanGd=          0 ScrnBf=T ScrnGd=T RCrit=4.00D+00 DoMicB=T.
 IPart= 2 IRanGd=          0 ScrnBf=T ScrnGd=T RCrit=4.00D+00 DoMicB=T.
 CutRad = 1000.00    CtRdIn =    0.00    XCrit =  15.00   ICut = 0
 IPart= 5 IRanGd=          0 ScrnBf=T ScrnGd=T RCrit=4.00D+00 DoMicB=T.
 CutRad = 1000.00    CtRdIn =    0.00    XCrit =  15.00   ICut = 0
 CutRad = 1000.00    CtRdIn =    0.00    XCrit =  15.00   ICut = 0
 CutRad = 1000.00    CtRdIn =    0.00    XCrit =  15.00   ICut = 0
 CutRad = 1000.00    CtRdIn =    0.00    XCrit =  15.00   ICut = 0
 CutRad = 1000.00    CtRdIn =    0.00    XCrit =  15.00   ICut = 0
 IPart= 3 IRanGd=          0 ScrnBf=T ScrnGd=T RCrit=4.00D+00 DoMicB=T.
 CutRad = 1000.00    CtRdIn =    0.00    XCrit =  15.00   ICut = 0
 CutRad = 1000.00    CtRdIn =    0.00    XCrit =  15.00   ICut = 0
 IPart= 7        14416 of        16366 points in      32 batches and       86 microbatches, Max-NSigAt=      16 Max-NSgAt2=      16
 IPart= 5        14489 of        16716 points in      36 batches and      100 microbatches, Max-NSigAt=      16 Max-NSgAt2=      16
 IPart= 2        13219 of        14906 points in      32 batches and       97 microbatches, Max-NSigAt=      16 Max-NSgAt2=      16
 IPart= 0        11582 of        12868 points in      25 batches and       81 microbatches, Max-NSigAt=      16 Max-NSgAt2=      16
 IPart= 3        14917 of        17040 points in      36 batches and      102 microbatches, Max-NSigAt=      16 Max-NSgAt2=      16
 IPart= 1        13748 of        15818 points in      31 batches and       92 microbatches, Max-NSigAt=      16 Max-NSgAt2=      16
 IPart= 6        14432 of        16420 points in      33 batches and      111 microbatches, Max-NSigAt=      16 Max-NSgAt2=      16
 IPart= 4        15207 of        17656 points in      37 batches and      109 microbatches, Max-NSigAt=      16 Max-NSgAt2=      16
 Polarizability after L703:
                1             2             3
      1  0.602544D+02
      2  0.159608D+01  0.531539D+02
      3  0.556560D+01  0.170400D+01  0.684040D+02
 Dipole Derivatives after L703:
               1            2            3            4            5
      1 0.905606D+00 0.146885D+00 0.190651D+00 0.120307D+00-0.849942D-02
      2 0.178243D+00 0.751365D+00 0.243194D+00 0.462185D-01-0.153902D-01
      3-0.158641D+00 0.100704D+00 0.888379D+00 0.309496D-01-0.646400D-01
               6            7            8            9           10
      1-0.852864D-01 0.174489D-01-0.347924D-01 0.155341D-01-0.248424D-01
      2-0.162914D+00-0.167102D-01-0.427861D-01 0.853867D-01 0.813218D-02
      3-0.115121D+00 0.139793D-01 0.236635D-02-0.101028D+00-0.636372D-01
              11           12           13           14           15
      1 0.540385D-02 0.305350D-02 0.430479D-01 0.142970D-01 0.165170D-01
      2 0.310589D-01-0.104308D-01-0.163832D-01 0.208053D-01 0.103054D+00
      3 0.274517D-02 0.863324D-01 0.545008D-01 0.525824D-01-0.644747D-01
              16           17           18           19           20
      1-0.101065D+00-0.645075D-01-0.251072D-01 0.682429D-01 0.203793D-01
      2-0.223308D-01 0.504997D-01 0.165866D-01-0.113758D-02-0.429397D-01
      3-0.734757D-02 0.262802D-01 0.810250D-01-0.268286D-01-0.107346D+00
              21           22           23           24           25
      1-0.965827D-02 0.197884D-01-0.963344D-02 0.812006D-02 0.417582D-01
      2-0.120075D+00-0.147770D-01 0.583932D-01 0.383407D-02-0.144620D-01
      3-0.590684D-01 0.422747D-01-0.263948D-01 0.862481D-01-0.104641D-01
              26           27           28           29           30
      1-0.445690D-01-0.409585D-01-0.624231D-01 0.127414D+00-0.680202D-02
      2-0.193378D-01-0.112875D+00 0.795507D-01-0.705057D-01 0.171818D-01
      3-0.114212D+00-0.552542D-01-0.790965D-02 0.310570D-01 0.770041D-01
              31           32           33           34           35
      1 0.411451D-01-0.258504D-01 0.548927D-01-0.924862D+00-0.229557D+00
      2-0.935467D-02 0.328209D-01 0.889129D-01-0.285128D+00-0.646170D+00
      3-0.716576D-02 0.655008D-01-0.544614D-01-0.130732D-01-0.175000D-01
              36           37           38           39           40
      1-0.154957D+00-0.106318D+00 0.109758D+00 0.918113D-02-0.162109D+00
      2-0.127947D+00 0.116817D+00-0.810315D-01-0.325731D-01-0.136929D+00
      3-0.585147D+00 0.156019D-01-0.255588D-02-0.604460D-01 0.559878D+00
              41           42           43           44           45
      1-0.528618D-01 0.119359D+00-0.163911D+00-0.695880D-02-0.219905D-01
      2-0.239566D+00 0.374928D-01 0.612053D-01-0.132238D+00 0.672756D-01
      3 0.211795D+00-0.694371D-01-0.437220D+00-0.564487D-01-0.650035D+00
              46           47           48
      1 0.288186D+00 0.530923D-01-0.725491D-01
      2 0.270454D-01 0.345022D+00-0.961040D-01
      3 0.151030D-01-0.103933D+00 0.595485D+00
 Hessian after L703:
                1             2             3             4             5
      1  0.708475D+00
      2 -0.607218D-01  0.460325D+00
      3  0.163973D+00  0.162863D+00  0.320844D+00
      4 -0.808914D-01  0.408859D-02  0.112893D-02  0.480582D+00
      5  0.112243D-01 -0.141982D+00 -0.552217D-01  0.257246D-02  0.493010D+00
      6 -0.364644D-02 -0.563475D-01 -0.105771D+00 -0.794554D-02 -0.293703D-01
      7 -0.136818D-03  0.165518D-02 -0.346532D-02 -0.483621D-01 -0.183561D-01
      8  0.255273D-02  0.965142D-02 -0.179985D-01 -0.176788D-01 -0.894464D-01
      9  0.332697D-02  0.959129D-02 -0.278442D-01  0.381215D-01  0.939493D-01
     10  0.581667D-02  0.550829D-02  0.884296D-02 -0.122854D+00  0.451530D-01
     11  0.181313D-01 -0.271995D-01 -0.288315D-02  0.491115D-01 -0.135248D+00
     12  0.185780D-01 -0.213574D-01  0.253043D-03 -0.113507D-01  0.105863D-01
     13  0.452137D-03 -0.966329D-03 -0.885379D-03  0.270301D-02  0.118850D-01
     14 -0.144856D-03  0.863468D-03  0.350605D-02 -0.371529D-02 -0.146811D-01
     15 -0.199349D-03 -0.664602D-03 -0.803690D-04 -0.177178D-03  0.202564D-02
     16 -0.285988D-02 -0.181866D-02 -0.124974D-02 -0.200022D-01 -0.776960D-02
     17  0.115227D-02  0.117021D-02 -0.371157D-03  0.240598D-01  0.113072D-01
     18  0.129686D-02  0.136827D-03  0.640663D-03 -0.402024D-02 -0.136146D-02
     19 -0.538632D-02  0.206047D-02 -0.204730D-02  0.112824D-03  0.155785D-01
     20  0.386446D-02 -0.264429D-02  0.171855D-02 -0.228008D-02 -0.169416D-01
     21 -0.148629D-02  0.142375D-02  0.451243D-03 -0.570624D-05  0.449145D-02
     22 -0.101744D-01 -0.944438D-02 -0.997749D-02 -0.166952D+00 -0.294684D-01
     23 -0.253164D-01 -0.819152D-02  0.457636D-03 -0.322038D-01 -0.930778D-01
     24 -0.258886D-01 -0.836142D-02 -0.164002D-02  0.235113D-02 -0.844164D-04
     25 -0.598161D-02  0.121204D-02  0.254834D-02 -0.558078D-02 -0.218131D-01
     26 -0.248593D-02 -0.370724D-04  0.976094D-03 -0.887539D-03 -0.794941D-02
     27  0.984080D-03  0.953907D-03  0.761745D-03  0.561677D-03  0.118025D-02
     28 -0.285117D-03  0.281048D-02  0.657829D-03 -0.190829D-01  0.246405D-01
     29 -0.881245D-03  0.149370D-03 -0.848289D-03 -0.750734D-02  0.993268D-02
     30 -0.120131D-02  0.112168D-02  0.294724D-03  0.494852D-03 -0.415894D-03
     31  0.455836D-03  0.683324D-03  0.271454D-02 -0.802954D-02 -0.156812D-01
     32 -0.219999D-03  0.985393D-04  0.242265D-02 -0.292857D-02 -0.657884D-02
     33  0.624495D-04 -0.594836D-03  0.820031D-05  0.150725D-03 -0.427748D-03
     34 -0.400317D+00 -0.752591D-01 -0.124689D+00 -0.127695D-01 -0.179599D-01
     35 -0.851361D-01 -0.116849D+00 -0.431524D-01 -0.265544D-01  0.572176D-04
     36 -0.831868D-01 -0.252396D-01 -0.133108D+00 -0.360308D-01 -0.166337D-01
     37 -0.170342D+00  0.120955D+00  0.185415D-01  0.235006D-02 -0.842026D-03
     38  0.121048D+00 -0.170609D+00 -0.246728D-01  0.163569D-01 -0.850838D-02
     39  0.107373D-01 -0.252647D-01 -0.505431D-01  0.127124D-01 -0.197864D-01
     40 -0.737135D-02  0.186970D-01 -0.265970D-01 -0.100220D-02 -0.303046D-02
     41  0.125313D-01 -0.150753D-01 -0.292830D-01  0.130180D-02  0.407383D-02
     42 -0.137327D-02 -0.201006D-01  0.328025D-01  0.151254D-02  0.391190D-02
     43 -0.379670D-01 -0.201680D-01 -0.124990D-02  0.243222D-02  0.535252D-02
     44 -0.303798D-01 -0.376828D-02  0.135288D-01  0.172853D-02  0.787738D-03
     45  0.130496D-01  0.240396D-01 -0.320626D-01 -0.125569D-02  0.595977D-03
     46  0.651305D-02  0.107075D-01 -0.282467D-01 -0.265361D-02 -0.148547D-02
     47  0.347818D-01  0.140982D-01 -0.110422D-01 -0.546382D-02 -0.475460D-02
     48 -0.950265D-01 -0.421998D-01 -0.500744D-02  0.375211D-02  0.656076D-02
                6             7             8             9            10
      6  0.503470D+00
      7  0.363798D-01  0.613190D-01
      8  0.851397D-01  0.198374D-01  0.102016D+00
      9 -0.232525D+00 -0.405816D-01 -0.998565D-01  0.254913D+00
     10 -0.112814D-01  0.177499D-02 -0.200771D-02 -0.524699D-03  0.525572D+00
     11  0.112495D-01  0.118492D-01 -0.135494D-01  0.216483D-02  0.579647D-01
     12 -0.772787D-01 -0.197132D-01  0.230645D-01 -0.272656D-02 -0.768216D-02
     13 -0.197313D-01 -0.250151D-02  0.392052D-02 -0.518597D-03 -0.562258D-01
     14  0.204163D-01  0.339496D-02 -0.336278D-02  0.238329D-04 -0.229833D-01
     15 -0.254175D-02 -0.475203D-03  0.308423D-03  0.126309D-02  0.390743D-01
     16  0.370546D-03  0.595947D-03  0.172506D-04 -0.357082D-03 -0.275622D+00
     17  0.535833D-03 -0.566931D-03  0.990536D-03  0.223797D-03 -0.952046D-01
     18 -0.172892D-02 -0.235736D-03 -0.440822D-03  0.254434D-04 -0.737228D-02
     19  0.180389D-01  0.857488D-03 -0.890678D-03 -0.142174D-03 -0.477643D-01
     20 -0.181844D-01 -0.820210D-03  0.604736D-03  0.187551D-04 -0.113631D-01
     21  0.361073D-02  0.451521D-03 -0.249302D-03  0.898932D-03 -0.132668D-01
     22  0.311134D-02 -0.103911D-01 -0.360774D-02  0.472153D-03 -0.264230D-01
     23  0.744314D-03 -0.152398D-01 -0.550222D-02 -0.439977D-03  0.243737D-01
     24 -0.744484D-01  0.282928D-01  0.110063D-01  0.119686D-02 -0.392780D-02
     25 -0.247832D-01  0.162003D-02  0.494278D-03  0.221487D-03  0.169500D-02
     26 -0.742481D-02  0.333470D-03 -0.146302D-03  0.356629D-04  0.694602D-03
     27  0.514659D-03 -0.420178D-03  0.146937D-03  0.860307D-03  0.201759D-03
     28 -0.428467D-02  0.888846D-03  0.660731D-04  0.587451D-03 -0.529073D-02
     29 -0.158797D-02  0.741543D-03  0.681691D-03 -0.538898D-04 -0.144038D-02
     30 -0.193749D-02  0.103642D-03 -0.426592D-03  0.163028D-03 -0.510859D-04
     31  0.267506D-01 -0.574946D-02 -0.269465D-02 -0.465270D-03  0.193843D-02
     32  0.882341D-02 -0.204524D-02 -0.116295D-03 -0.537992D-03  0.690351D-03
     33  0.183208D-02 -0.595941D-03 -0.283952D-03  0.129213D-02 -0.820603D-04
     34 -0.114202D-01 -0.429980D-03 -0.872253D-04  0.422250D-03 -0.371521D-02
     35 -0.123933D-01 -0.119857D-02 -0.167658D-02 -0.258447D-02 -0.451338D-03
     36 -0.147834D-02  0.408673D-03  0.156819D-02  0.344711D-02 -0.270189D-03
     37 -0.324015D-02  0.188644D-04  0.936577D-04 -0.609985D-04  0.621961D-03
     38 -0.103425D-02  0.158638D-03 -0.432324D-03 -0.155598D-02 -0.929107D-03
     39  0.828203D-02 -0.376351D-04  0.230182D-02  0.129973D-02 -0.264383D-02
     40  0.434453D-02  0.590709D-03  0.186090D-02  0.914026D-03  0.582775D-03
     41 -0.187445D-02 -0.100203D-03 -0.515420D-03 -0.183905D-02  0.235590D-03
     42 -0.154018D-01 -0.138152D-03 -0.121297D-02  0.442128D-03  0.166990D-03
     43 -0.368972D-02 -0.258226D-03 -0.273857D-02 -0.213240D-02 -0.807513D-03
     44  0.414466D-04  0.127432D-03 -0.153355D-03 -0.502465D-03 -0.375086D-04
     45 -0.356129D-02 -0.356257D-03 -0.220916D-02 -0.305121D-03 -0.987781D-03
     46  0.102708D-02  0.163296D-03  0.862578D-03  0.716993D-03  0.701041D-03
     47  0.126646D-02  0.229222D-03  0.956785D-03  0.136281D-02 -0.203200D-03
     48 -0.103655D-02  0.382780D-03 -0.858101D-03 -0.240044D-02 -0.195826D-03
               11            12            13            14            15
     11  0.514831D+00
     12  0.136428D-01  0.566811D+00
     13 -0.239282D-01  0.400387D-01  0.582213D-01
     14 -0.110919D+00  0.108587D+00  0.219103D-01  0.120523D+00
     15  0.109809D+00 -0.236071D+00 -0.430484D-01 -0.121652D+00  0.255324D+00
     16 -0.917062D-01 -0.659300D-02 -0.392299D-02 -0.162562D-02  0.716607D-04
     17 -0.850867D-01 -0.166514D-02 -0.137334D-01 -0.610330D-02 -0.163372D-02
     18 -0.216771D-02 -0.479340D-01  0.268133D-01  0.102150D-01  0.188199D-02
     19 -0.122883D-01 -0.139572D-01 -0.544037D-03  0.425698D-02  0.476734D-02
     20 -0.153720D+00 -0.128243D+00  0.157592D-02  0.117316D-01  0.124159D-01
     21 -0.129714D+00 -0.201900D+00 -0.258949D-02 -0.180144D-01 -0.201701D-01
     22 -0.411130D-02 -0.100152D-02  0.170372D-02 -0.123808D-02  0.328587D-03
     23  0.102109D-01  0.488578D-03  0.144095D-03  0.782159D-03 -0.272269D-03
     24 -0.118301D-02  0.139212D-03 -0.114320D-02 -0.395440D-03  0.235430D-03
     25 -0.710156D-03 -0.592966D-03 -0.109167D-03  0.870217D-04 -0.145763D-04
     26  0.470118D-03  0.380563D-03 -0.271597D-04  0.302270D-04  0.696680D-04
     27  0.390000D-04 -0.512751D-04 -0.575381D-05 -0.103602D-03 -0.126438D-03
     28 -0.455813D-02  0.142584D-03  0.237222D-03 -0.128035D-03 -0.109018D-03
     29 -0.390162D-03 -0.457880D-03 -0.214443D-03  0.574059D-04 -0.202046D-03
     30 -0.150021D-03  0.260601D-03  0.278783D-03 -0.292332D-03  0.252730D-03
     31 -0.731581D-03  0.107765D-02 -0.253406D-03  0.653603D-03 -0.595558D-03
     32  0.475257D-03 -0.837496D-03 -0.187527D-03  0.528537D-03  0.397827D-04
     33 -0.251578D-03  0.351546D-03  0.465842D-03 -0.164017D-03  0.187521D-03
     34  0.200395D-02  0.111072D-02  0.286923D-03 -0.437899D-03  0.144581D-03
     35  0.182741D-02  0.635026D-03  0.173444D-03  0.490538D-04  0.269708D-03
     36  0.104317D-02 -0.739146D-04 -0.364443D-03 -0.111724D-02  0.249654D-03
     37 -0.113925D-02 -0.324262D-03 -0.841817D-04  0.355491D-04 -0.169990D-04
     38 -0.144612D-02 -0.407332D-02 -0.284837D-03  0.187228D-03  0.180772D-03
     39 -0.199104D-02 -0.340051D-02  0.125723D-03 -0.325106D-03  0.361438D-04
     40 -0.871709D-03  0.760058D-03  0.106424D-03  0.871271D-03 -0.348361D-04
     41 -0.498154D-03 -0.230899D-03 -0.261115D-03  0.117418D-02 -0.504491D-03
     42  0.420674D-03  0.112829D-02  0.414144D-03 -0.107470D-03 -0.339893D-03
     43  0.840428D-03 -0.308494D-03 -0.183313D-03 -0.803095D-03  0.367856D-03
     44 -0.488472D-03  0.295946D-03  0.256018D-03 -0.124899D-03 -0.338168D-03
     45  0.486528D-03 -0.521849D-03  0.139109D-03 -0.117085D-02  0.608040D-04
     46  0.143671D-03 -0.184184D-03  0.113664D-03 -0.133544D-03 -0.831715D-04
     47  0.731981D-03 -0.815855D-03 -0.262348D-03 -0.735448D-03  0.148250D-03
     48 -0.514850D-03  0.101498D-02  0.110420D-04  0.593632D-03 -0.161262D-03
               16            17            18            19            20
     16  0.301008D+00
     17  0.999655D-01  0.909335D-01
     18  0.886353D-02  0.207355D-02  0.475371D-01
     19 -0.196960D-03 -0.184325D-01 -0.240694D-01  0.499502D-01
     20 -0.335814D-03 -0.782513D-02 -0.849652D-02  0.981889D-02  0.167953D+00
     21 -0.350549D-03  0.894092D-03 -0.286010D-03  0.160874D-01  0.141176D+00
     22 -0.152954D-02  0.229413D-02 -0.374320D-03  0.124625D-02 -0.117149D-02
     23  0.475880D-02 -0.426999D-02  0.579869D-03  0.132185D-03  0.707413D-03
     24 -0.845770D-03  0.145907D-03  0.692740D-04  0.856325D-03 -0.135239D-03
     25  0.287464D-03 -0.437470D-04  0.318873D-03 -0.382599D-03  0.620036D-03
     26 -0.614644D-04 -0.403721D-04  0.178490D-03 -0.108116D-03  0.444626D-03
     27 -0.394449D-04  0.217540D-03  0.139172D-03 -0.356022D-03  0.210754D-03
     28 -0.133396D-02  0.163194D-02 -0.228396D-03  0.274010D-03 -0.112131D-03
     29 -0.520675D-03  0.322594D-03 -0.104409D-03 -0.210129D-03  0.676719D-04
     30 -0.490854D-04  0.786475D-05  0.524804D-03 -0.205373D-03  0.312588D-03
     31  0.328769D-03  0.454395D-04 -0.363785D-03 -0.982959D-04  0.811194D-04
     32  0.128164D-04 -0.472524D-04 -0.780612D-04  0.969422D-05  0.342721D-04
     33  0.286181D-05 -0.172997D-03  0.203478D-03  0.367269D-04  0.692610D-04
     34  0.296302D-02 -0.632657D-03 -0.522128D-03  0.192580D-02  0.196753D-03
     35 -0.128469D-02 -0.137518D-02 -0.165466D-03 -0.130521D-02  0.323760D-03
     36 -0.542956D-03 -0.148135D-04 -0.596360D-03 -0.964460D-04 -0.136424D-03
     37  0.132615D-03 -0.178342D-03 -0.256143D-03  0.202269D-03 -0.110744D-03
     38 -0.102177D-04  0.122777D-03 -0.115494D-04  0.108157D-02 -0.938212D-03
     39  0.127981D-03  0.212172D-03  0.534120D-04  0.102525D-02 -0.114573D-02
     40 -0.438587D-05 -0.260089D-03  0.434742D-04 -0.187920D-03  0.397335D-03
     41  0.287740D-03 -0.212370D-03 -0.219176D-03  0.129512D-03  0.369153D-03
     42 -0.259325D-03  0.219883D-03  0.258452D-04 -0.272554D-03  0.338342D-03
     43  0.357003D-03 -0.108940D-03 -0.221848D-03  0.226617D-03 -0.370143D-03
     44  0.964939D-04 -0.145805D-03  0.555858D-04 -0.298641D-04  0.558502D-04
     45  0.482926D-04  0.148731D-03 -0.848392D-04  0.153700D-03 -0.461810D-03
     46 -0.200857D-03  0.121238D-04  0.328247D-03 -0.235023D-03  0.924585D-05
     47 -0.574415D-05  0.259196D-03 -0.194123D-03  0.197103D-03 -0.223136D-03
     48  0.802078D-03 -0.821549D-03 -0.471098D-03  0.180900D-03  0.542667D-03
               21            22            23            24            25
     21  0.216513D+00
     22  0.741773D-04  0.468985D+00
     23  0.114925D-03 -0.328482D-01  0.559401D+00
     24  0.386234D-04 -0.280359D-04  0.159526D-02  0.570378D+00
     25  0.380563D-03 -0.497447D-01 -0.203099D-01 -0.249420D-01  0.559900D-01
     26 -0.230430D-04 -0.217043D-01 -0.152682D+00 -0.127307D+00  0.252167D-01
     27  0.241761D-03 -0.262496D-01 -0.128004D+00 -0.200601D+00  0.278315D-01
     28  0.171385D-03 -0.151400D+00  0.123969D+00 -0.188633D-01  0.281996D-02
     29  0.170895D-03  0.125328D+00 -0.198143D+00  0.234443D-01  0.124779D-01
     30  0.136464D-03 -0.192524D-01  0.231859D-01 -0.507712D-01  0.168558D-01
     31 -0.542464D-04 -0.589113D-01 -0.250310D-01  0.466629D-01  0.494684D-04
     32 -0.946844D-04 -0.259179D-01 -0.106246D+00  0.105077D+00  0.507512D-02
     33 -0.104781D-03  0.483138D-01  0.106458D+00 -0.240306D+00  0.461830D-02
     34  0.383756D-03  0.253040D-02 -0.162039D-02 -0.203127D-02 -0.107055D-02
[...]
    Z6        2.21761   0.00000   0.00000  -0.00141  -0.00115   2.21646
    X7       -2.41004  -0.00001   0.00000  -0.00039  -0.00035  -2.41038
    Y7        7.24433   0.00000   0.00000  -0.00010  -0.00012   7.24420
    Z7        3.85292   0.00000   0.00000  -0.00043  -0.00030   3.85262
    X8        2.14255   0.00000   0.00000   0.00013   0.00015   2.14270
    Y8        4.72598   0.00000   0.00000  -0.00016  -0.00008   4.72591
    Z8        2.64279   0.00000   0.00000   0.00052   0.00034   2.64313
    X9        2.43267   0.00000   0.00000  -0.00032  -0.00023   2.43244
    Y9        6.04163   0.00000   0.00000   0.00028   0.00037   6.04200
    Z9        4.20654   0.00000   0.00000   0.00023   0.00003   4.20657
   X10        3.47893   0.00000   0.00000  -0.00002   0.00005   3.47898
   Y10        3.16634   0.00000   0.00000  -0.00015  -0.00003   3.16631
   Z10        2.87904   0.00000   0.00000   0.00142   0.00115   2.88019
   X11        2.60860   0.00000   0.00000   0.00073   0.00061   2.60921
   Y11        5.70604   0.00000   0.00000  -0.00067  -0.00057   5.70547
   Z11        0.88670   0.00000   0.00000   0.00040   0.00019   0.88688
   X12       -3.15454   0.00001   0.00000   0.00041   0.00034  -3.15420
   Y12        0.98631   0.00000   0.00000  -0.00052  -0.00056   0.98575
   Z12       -0.01008   0.00000   0.00000   0.00023   0.00041  -0.00968
   X13        0.60685   0.00000   0.00000   0.00068   0.00066   0.60751
   Y13        0.32561   0.00000   0.00000   0.00035   0.00040   0.32601
   Z13        0.56283   0.00000   0.00000  -0.00043  -0.00050   0.56232
   X14       -0.02909   0.00001   0.00000  -0.00073  -0.00102  -0.03012
   Y14        3.29724   0.00000   0.00000   0.00053   0.00056   3.29780
   Z14       -2.55523   0.00001   0.00000  -0.00015  -0.00019  -2.55541
   X15       -2.01890   0.00001   0.00000  -0.00088  -0.00125  -2.02015
   Y15        2.74442   0.00000   0.00000   0.00031   0.00029   2.74471
   Z15       -3.84314  -0.00002   0.00000   0.00018   0.00028  -3.84287
   X16       -3.15055   0.00000   0.00000  -0.00028  -0.00051  -3.15106
   Y16        1.62290  -0.00001   0.00000  -0.00036  -0.00040   1.62250
   Z16       -2.17242   0.00001   0.00000   0.00046   0.00063  -2.17179
         Item               Value     Threshold  Converged?
 Maximum Force            0.000015     0.000450     YES
 RMS     Force            0.000005     0.000300     YES
 Maximum Displacement     0.001248     0.001800     YES
 RMS     Displacement     0.000468     0.001200     YES
 Predicted change in Energy=-1.449737D-09
 Optimization completed.
    -- Stationary point found.
 GradGradGradGradGradGradGradGradGradGradGradGradGradGradGradGradGradGrad


 Test job not archived.
 1\1\GINC-NODE63\Freq\UB3LYP\CBSB7\C4H9O3(2)\NYEE\15-Jul-2014\0\\# freq
  nosymm b3lyp/cbsb7 iop(7/33=1)\\Title Card Required\\0,2\C,-0.507704,
 0.891129,0.371858\C,-0.316623,2.002114,1.379261\H,-0.51398,1.503771,2.
 342703\C,-1.341625,3.127187,1.208168\H,-1.159194,3.677241,0.281213\H,-
 2.355829,2.727306,1.173509\H,-1.275336,3.833533,2.038879\C,1.133788,2.
 500882,1.398503\H,1.287313,3.197093,2.226004\H,1.840968,1.675554,1.523
 521\H,1.380412,3.019506,0.469219\O,-1.66931,0.521934,-0.005335\H,0.321
 129,0.172307,0.297835\O,-0.015395,1.744824,-1.352168\O,-1.068355,1.452
 284,-2.033704\H,-1.6672,0.858803,-1.149597\\Version=AM64L-G03RevD.01\H
 F=-383.4828874\S2=0.755423\S2-1=0.\S2A=0.750021\RMSD=4.657e-09\RMSF=4.
 766e-06\ZeroPoint=0.1267643\Thermal=0.1348543\Dipole=0.3829868,0.09882
 62,0.7393836\DipoleDeriv=0.9056055,0.1782434,-0.1586409,0.1468851,0.75
 13649,0.1007037,0.190651,0.2431944,0.8883792,0.1203068,0.0462185,0.030
 9496,-0.0084994,-0.0153902,-0.06464,-0.0852864,-0.1629144,-0.1151209,0
 .0174489,-0.0167102,0.0139793,-0.0347924,-0.0427861,0.0023663,0.015534
 1,0.0853867,-0.1010285,-0.0248424,0.0081322,-0.0636372,0.0054039,0.031
 0589,0.0027452,0.0030535,-0.0104308,0.0863324,0.0430479,-0.0163832,0.0
 545008,0.014297,0.0208053,0.0525824,0.016517,0.103054,-0.0644747,-0.10
 10646,-0.0223308,-0.0073476,-0.0645075,0.0504997,0.0262802,-0.0251072,
 0.0165866,0.081025,0.0682429,-0.0011376,-0.0268286,0.0203793,-0.042939
 7,-0.1073457,-0.0096583,-0.1200745,-0.0590684,0.0197884,-0.014777,0.04
 22747,-0.0096334,0.0583932,-0.0263948,0.0081201,0.0038341,0.0862481,0.
 0417582,-0.014462,-0.0104641,-0.044569,-0.0193378,-0.1142125,-0.040958
 5,-0.1128751,-0.0552542,-0.0624231,0.0795507,-0.0079096,0.1274137,-0.0
 705057,0.031057,-0.006802,0.0171818,0.0770041,0.0411451,-0.0093547,-0.
 0071658,-0.0258504,0.0328209,0.0655008,0.0548927,0.0889129,-0.0544614,
 -0.9248625,-0.2851283,-0.0130732,-0.2295568,-0.6461698,-0.0175,-0.1549
 567,-0.1279467,-0.5851471,-0.1063178,0.1168172,0.0156019,0.1097581,-0.
 0810315,-0.0025559,0.0091811,-0.0325731,-0.060446,-0.1621092,-0.136928
 9,0.5598778,-0.0528618,-0.239566,0.2117946,0.1193593,0.0374928,-0.0694
 371,-0.1639105,0.0612053,-0.43722,-0.0069588,-0.1322377,-0.0564487,-0.
 0219905,0.0672756,-0.6500353,0.2881864,0.0270454,0.015103,0.0530923,0.
 3450215,-0.1039327,-0.0725491,-0.096104,0.5954848\Polar=60.2544094,1.5
 960787,53.1538965,5.5655951,1.7040006,68.4040209\PG=C01 [X(C4H9O3)]\NI
 mag=1\\0.70847512,-0.06072177,0.46032504,0.16397326,0.16286335,0.32084
 399,-0.08089137,0.00408859,0.00112893,0.48058193,0.01122431,-0.1419822
 6,-0.05522168,0.00257246,0.49300994,-0.00364644,-0.05634751,-0.1057707
 1,-0.00794554,-0.02937026,0.50346991,-0.00013682,0.00165518,-0.0034653
 2,-0.04836210,-0.01835606,0.03637976,0.06131901,0.00255273,0.00965142,
 -0.01799849,-0.01767880,-0.08944641,0.08513969,0.01983739,0.10201590,0
 .00332697,0.00959129,-0.02784415,0.03812148,0.09394932,-0.23252544,-0.
 04058159,-0.09985648,0.25491295,0.00581667,0.00550829,0.00884296,-0.12
 285415,0.04515303,-0.01128142,0.00177499,-0.00200771,-0.00052470,0.525
 57219,0.01813131,-0.02719953,-0.00288315,0.04911151,-0.13524818,0.0112
 4952,0.01184921,-0.01354938,0.00216483,0.05796473,0.51483056,0.0185780
 2,-0.02135738,0.00025304,-0.01135071,0.01058628,-0.07727870,-0.0197132
 0,0.02306447,-0.00272656,-0.00768216,0.01364276,0.56681066,0.00045214,
 -0.00096633,-0.00088538,0.00270301,0.01188504,-0.01973133,-0.00250151,
 0.00392052,-0.00051860,-0.05622584,-0.02392820,0.04003866,0.05822135,-
 0.00014486,0.00086347,0.00350605,-0.00371529,-0.01468114,0.02041634,0.
 00339496,-0.00336278,0.00002383,-0.02298330,-0.11091928,0.10858745,0.0
 2191034,0.12052295,-0.00019935,-0.00066460,-0.00008037,-0.00017718,0.0
 0202564,-0.00254175,-0.00047520,0.00030842,0.00126309,0.03907426,0.109
 80897,-0.23607137,-0.04304839,-0.12165181,0.25532380,-0.00285988,-0.00
 181866,-0.00124974,-0.02000218,-0.00776960,0.00037055,0.00059595,0.000
 01725,-0.00035708,-0.27562230,-0.09170615,-0.00659300,-0.00392299,-0.0
 0162562,0.00007166,0.30100823,0.00115227,0.00117021,-0.00037116,0.0240
 5980,0.01130722,0.00053583,-0.00056693,0.00099054,0.00022380,-0.095204
 59,-0.08508668,-0.00166514,-0.01373342,-0.00610330,-0.00163372,0.09996
 553,0.09093355,0.00129686,0.00013683,0.00064066,-0.00402024,-0.0013614
 6,-0.00172892,-0.00023574,-0.00044082,0.00002544,-0.00737228,-0.002167
 71,-0.04793400,0.02681328,0.01021497,0.00188199,0.00886353,0.00207355,
 0.04753715,-0.00538632,0.00206047,-0.00204730,0.00011282,0.01557845,0.
 01803887,0.00085749,-0.00089068,-0.00014217,-0.04776432,-0.01228833,-0
 .01395721,-0.00054404,0.00425698,0.00476734,-0.00019696,-0.01843252,-0
 .02406940,0.04995022,0.00386446,-0.00264429,0.00171855,-0.00228008,-0.
 01694155,-0.01818444,-0.00082021,0.00060474,0.00001876,-0.01136314,-0.
 15372025,-0.12824311,0.00157592,0.01173164,0.01241589,-0.00033581,-0.0
 0782513,-0.00849652,0.00981889,0.16795346,-0.00148629,0.00142375,0.000
 45124,-0.00000571,0.00449145,0.00361073,0.00045152,-0.00024930,0.00089
 893,-0.01326685,-0.12971411,-0.20190014,-0.00258949,-0.01801442,-0.020
 17009,-0.00035055,0.00089409,-0.00028601,0.01608737,0.14117647,0.21651
 346,-0.01017443,-0.00944438,-0.00997749,-0.16695165,-0.02946845,0.0031
 1134,-0.01039109,-0.00360774,0.00047215,-0.02642300,-0.00411130,-0.001
 00152,0.00170372,-0.00123808,0.00032859,-0.00152954,0.00229413,-0.0003
 7432,0.00124625,-0.00117149,0.00007418,0.46898538,-0.02531642,-0.00819
 152,0.00045764,-0.03220376,-0.09307785,0.00074431,-0.01523982,-0.00550
 222,-0.00043998,0.02437369,0.01021089,0.00048858,0.00014409,0.00078216
 ,-0.00027227,0.00475880,-0.00426999,0.00057987,0.00013218,0.00070741,0
 .00011492,-0.03284823,0.55940140,-0.02588858,-0.00836142,-0.00164002,0
 .00235113,-0.00008442,-0.07444839,0.02829283,0.01100633,0.00119686,-0.
 00392780,-0.00118301,0.00013921,-0.00114320,-0.00039544,0.00023543,-0.
 00084577,0.00014591,0.00006927,0.00085632,-0.00013524,0.00003862,-0.00
 002804,0.00159526,0.57037783,-0.00598161,0.00121204,0.00254834,-0.0055
 8078,-0.02181308,-0.02478325,0.00162003,0.00049428,0.00022149,0.001695
 00,-0.00071016,-0.00059297,-0.00010917,0.00008702,-0.00001458,0.000287
 46,-0.00004375,0.00031887,-0.00038260,0.00062004,0.00038056,-0.0497447
 3,-0.02030993,-0.02494200,0.05598997,-0.00248593,-0.00003707,0.0009760
 9,-0.00088754,-0.00794941,-0.00742481,0.00033347,-0.00014630,0.0000356
 6,0.00069460,0.00047012,0.00038056,-0.00002716,0.00003023,0.00006967,-
 0.00006146,-0.00004037,0.00017849,-0.00010812,0.00044463,-0.00002304,-
 0.02170426,-0.15268231,-0.12730656,0.02521667,0.16401174,0.00098408,0.
 00095391,0.00076174,0.00056168,0.00118025,0.00051466,-0.00042018,0.000
 14694,0.00086031,0.00020176,0.00003900,-0.00005128,-0.00000575,-0.0001
 0360,-0.00012644,-0.00003944,0.00021754,0.00013917,-0.00035602,0.00021
 075,0.00024176,-0.02624959,-0.12800437,-0.20060113,0.02783148,0.140448
 97,0.21459432,-0.00028512,0.00281048,0.00065783,-0.01908294,0.02464045
 ,-0.00428467,0.00088885,0.00006607,0.00058745,-0.00529073,-0.00455813,
 0.00014258,0.00023722,-0.00012803,-0.00010902,-0.00133396,0.00163194,-
 0.00022840,0.00027401,-0.00011213,0.00017138,-0.15139963,0.12396865,-0
 .01886334,0.00281996,-0.00357294,0.00138785,0.16704442,-0.00088124,0.0
 0014937,-0.00084829,-0.00750734,0.00993268,-0.00158797,0.00074154,0.00
 068169,-0.00005389,-0.00144038,-0.00039016,-0.00045788,-0.00021444,0.0
 0005741,-0.00020205,-0.00052067,0.00032259,-0.00010441,-0.00021013,0.0
 0006767,0.00017090,0.12532842,-0.19814261,0.02344435,0.01247792,-0.015
 65399,0.00343636,-0.13681764,0.21402208,-0.00120131,0.00112168,0.00029
 472,0.00049485,-0.00041589,-0.00193749,0.00010364,-0.00042659,0.000163
 03,-0.00005109,-0.00015002,0.00026060,0.00027878,-0.00029233,0.0002527
 3,-0.00004909,0.00000786,0.00052480,-0.00020537,0.00031259,0.00013646,
 -0.01925239,0.02318594,-0.05077125,0.01685580,-0.01882192,0.00356063,0
 .02122181,-0.02489531,0.04983629,0.00045584,0.00068332,0.00271454,-0.0
 0802954,-0.01568123,0.02675059,-0.00574946,-0.00269465,-0.00046527,0.0
 0193843,-0.00073158,0.00107765,-0.00025341,0.00065360,-0.00059556,0.00
 032877,0.00004544,-0.00036379,-0.00009830,0.00008112,-0.00005425,-0.05
 891134,-0.02503101,0.04666293,0.00004947,0.00263217,-0.00337704,0.0048
 0591,0.00881041,-0.01865079,0.06532942,-0.00022000,0.00009854,0.002422
 65,-0.00292857,-0.00657884,0.00882341,-0.00204524,-0.00011629,-0.00053
 799,0.00069035,0.00047526,-0.00083750,-0.00018753,0.00052854,0.0000397
 8,0.00001282,-0.00004725,-0.00007806,0.00000969,0.00003427,-0.00009468
 ,-0.02591792,-0.10624563,0.10507664,0.00507512,0.01119408,-0.01831791,
 -0.00592776,-0.01147267,0.02120018,0.03109250,0.11194380,0.00006245,-0
 .00059484,0.00000820,0.00015072,-0.00042775,0.00183208,-0.00059594,-0.
 00028395,0.00129213,-0.00008206,-0.00025158,0.00035155,0.00046584,-0.0
 0016402,0.00018752,0.00000286,-0.00017300,0.00020348,0.00003673,0.0000
 6926,-0.00010478,0.04831385,0.10645819,-0.24030563,0.00461830,0.012010
 10,-0.02008361,-0.00012709,0.00048101,-0.00204728,-0.05230675,-0.11673
 019,0.25938303,-0.40031734,-0.07525909,-0.12468854,-0.01276953,-0.0179
 5988,-0.01142020,-0.00042998,-0.00008723,0.00042225,-0.00371521,0.0020
 0395,0.00111072,0.00028692,-0.00043790,0.00014458,0.00296302,-0.000632
 66,-0.00052213,0.00192580,0.00019675,0.00038376,0.00253040,-0.00162039
 ,-0.00203127,-0.00107055,-0.00042220,-0.00018372,0.00086163,0.00026381
 ,0.00051964,-0.00014325,0.00001862,0.00031430,0.49685485,-0.08513609,-
 0.11684913,-0.04315241,-0.02655440,0.00005722,-0.01239331,-0.00119857,
 -0.00167658,-0.00258447,-0.00045134,0.00182741,0.00063503,0.00017344,0
 .00004905,0.00026971,-0.00128469,-0.00137518,-0.00016547,-0.00130521,0
 .00032376,-0.00033590,0.00035247,-0.00264858,-0.00427249,-0.00179777,-
 0.00016186,-0.00003093,-0.00073073,0.00026713,-0.00020017,0.00020442,0
 .00012419,0.00024863,0.14037361,0.13439751,-0.08318680,-0.02523958,-0.
 13310783,-0.03603081,-0.01663369,-0.00147834,0.00040867,0.00156819,0.0
 0344711,-0.00027019,0.00104317,-0.00007391,-0.00036444,-0.00111724,0.0
 0024965,-0.00054296,-0.00001481,-0.00059636,-0.00009645,-0.00013642,0.
 00015009,0.00289958,-0.00521865,-0.00493192,-0.00253273,-0.00096932,0.
 00026071,0.00016096,0.00038586,0.00003246,-0.00082667,-0.00079767,0.00
 017726,0.08738388,0.00479200,0.20463737,-0.17034154,0.12095541,0.01854
 153,0.00235006,-0.00084203,-0.00324015,0.00001886,0.00009366,-0.000061
 00,0.00062196,-0.00113925,-0.00032426,-0.00008418,0.00003555,-0.000017
 00,0.00013262,-0.00017834,-0.00025614,0.00020227,-0.00011074,0.0000460
 6,0.00115026,-0.00021678,0.00028983,0.00030970,0.00016742,0.00007260,0
 .00039079,-0.00002639,-0.00009954,0.00003530,-0.00003454,0.00006855,-0
 .04257243,0.01221362,-0.01241433,0.20563428,0.12104788,-0.17060881,-0.
 02467278,0.01635690,-0.00850838,-0.00103425,0.00015864,-0.00043232,-0.
 00155598,-0.00092911,-0.00144612,-0.00407332,-0.00028484,0.00018723,0.
 00018077,-0.00001022,0.00012278,-0.00001155,0.00108157,-0.00093821,0.0
 0017715,0.00150834,0.00054422,0.00109000,-0.00029272,0.00040793,0.0000
 7668,-0.00119180,0.00003663,-0.00051080,-0.00021410,-0.00015433,0.0000
 9594,-0.00950329,0.01785780,-0.00156889,-0.12850224,0.16703306,0.01073
 729,-0.02526471,-0.05054307,0.01271243,-0.01978645,0.00828203,-0.00003
 764,0.00230182,0.00129973,-0.00264383,-0.00199104,-0.00340051,0.000125
 72,-0.00032511,0.00003614,0.00012798,0.00021217,0.00005341,0.00102525,
 -0.00114573,0.00030221,0.00114594,-0.00022464,-0.00005766,-0.00024129,
 0.00026410,-0.00006223,-0.00066240,0.00020899,-0.00012592,-0.00011384,
 -0.00005858,-0.00005802,-0.01042087,0.00769923,0.01383338,-0.00811069,
 0.02608582,0.04439937,-0.00737135,0.01869703,-0.02659704,-0.00100220,-
 0.00303046,0.00434453,0.00059071,0.00186090,0.00091403,0.00058278,-0.0
 0087171,0.00076006,0.00010642,0.00087127,-0.00003484,-0.00000439,-0.00
 026009,0.00004347,-0.00018792,0.00039733,-0.00013197,-0.00060796,0.000
 06648,-0.00104493,0.00024836,0.00031919,-0.00024563,-0.00006708,-0.000
 07319,-0.00003154,0.00040662,0.00010280,-0.00077251,-0.02828107,-0.017
 08152,-0.00939360,0.00278659,0.00035047,-0.00154027,0.40504944,0.01253
 134,-0.01507531,-0.02928296,0.00130180,0.00407383,-0.00187445,-0.00010
 020,-0.00051542,-0.00183905,0.00023559,-0.00049815,-0.00023090,-0.0002
 6112,0.00117418,-0.00050449,0.00028774,-0.00021237,-0.00021918,0.00012
 951,0.00036915,-0.00037826,0.00012629,0.00019942,0.00008558,0.00011883
 ,0.00020096,-0.00018251,-0.00018402,0.00005018,-0.00016471,0.00018464,
 0.00011628,-0.00065574,-0.02807106,-0.00734038,-0.00327128,-0.00295884
 ,-0.00494927,0.01360278,0.12744273,0.07843924,-0.00137327,-0.02010058,
 0.03280254,0.00151254,0.00391190,-0.01540182,-0.00013815,-0.00121297,0
 .00044213,0.00016699,0.00042067,0.00112829,0.00041414,-0.00010747,-0.0
 0033989,-0.00025933,0.00021988,0.00002585,-0.00027255,0.00033834,-0.00
 012397,-0.00063197,0.00023654,0.00023519,0.00029458,0.00011037,0.00030
 720,-0.00024229,-0.00004974,-0.00020056,-0.00073010,-0.00039025,-0.000
 77273,0.03380530,0.01939599,-0.00594292,-0.00106355,0.00406095,-0.0080
 3291,0.17704905,0.03853109,0.17476262,-0.03796705,-0.02016804,-0.00124
 990,0.00243222,0.00535252,-0.00368972,-0.00025823,-0.00273857,-0.00213
 240,-0.00080751,0.00084043,-0.00030849,-0.00018331,-0.00080310,0.00036
 786,0.00035700,-0.00010894,-0.00022185,0.00022662,-0.00037014,0.000281
 74,0.00068216,-0.00034566,0.00065013,-0.00004336,-0.00003282,-0.000273
 53,0.00014056,0.00009290,0.00007546,-0.00009402,0.00035488,-0.00013489
 ,0.02415166,-0.01327484,0.06825444,0.00253346,0.00157395,-0.00344124,-
 0.32512070,-0.07900333,-0.21646660,0.34976280,-0.03037975,-0.00376828,
 0.01352882,0.00172853,0.00078774,0.00004145,0.00012743,-0.00015336,-0.
 00050246,-0.00003751,-0.00048847,0.00029595,0.00025602,-0.00012490,-0.
 00033817,0.00009649,-0.00014580,0.00005559,-0.00002986,0.00005585,0.00
 001146,-0.00053368,-0.00000620,0.00046828,0.00021209,0.00012470,-0.000
 14456,0.00003894,0.00003736,-0.00001124,0.00025232,0.00037559,-0.00012
 508,0.01664487,-0.00678615,0.06512439,0.00195985,0.00032343,-0.0025035
 1,-0.09816093,-0.04830916,-0.05815066,0.09587732,0.07693897,0.01304960
 ,0.02403963,-0.03206256,-0.00125569,0.00059598,-0.00356129,-0.00035626
 ,-0.00220916,-0.00030512,-0.00098778,0.00048653,-0.00052185,0.00013911
 ,-0.00117085,0.00006080,0.00004829,0.00014873,-0.00008484,0.00015370,-
 0.00046181,0.00025530,0.00164889,-0.00066059,-0.00055496,-0.00055233,-
 0.00027059,-0.00014819,0.00019565,0.00015066,0.00005657,-0.00035335,-0
 .00034996,0.00000003,-0.02546936,0.02000826,-0.08495940,0.00044563,0.0
 0067224,-0.00222498,-0.15549647,-0.02924941,-0.16338827,0.18172156,0.0
 0241073,0.29504871,0.00651305,0.01070746,-0.02824668,-0.00265361,-0.00
 148547,0.00102708,0.00016330,0.00086258,0.00071699,0.00070104,0.000143
 67,-0.00018418,0.00011366,-0.00013354,-0.00008317,-0.00020086,0.000012
 12,0.00032825,-0.00023502,0.00000925,0.00000852,-0.00016480,-0.0003119
 0,-0.00038827,-0.00010716,-0.00006108,0.00011148,-0.00000391,-0.000023
 58,-0.00000886,-0.00007045,-0.00009522,-0.00001436,-0.04027493,-0.0045
 0241,-0.01344857,-0.00316800,-0.00114944,0.00133745,-0.04712825,-0.031
 77989,0.00793520,-0.01581229,0.01194786,-0.01293121,0.10232822,0.03478
 176,0.01409816,-0.01104222,-0.00546382,-0.00475460,0.00126646,0.000229
 22,0.00095679,0.00136281,-0.00020320,0.00073198,-0.00081586,-0.0002623
 5,-0.00073545,0.00014825,-0.00000574,0.00025920,-0.00019412,0.00019710
 ,-0.00022314,0.00034951,0.00043585,-0.00107859,-0.00117378,-0.00054660
 ,-0.00021309,0.00007346,0.00006668,0.00003462,0.00006075,-0.00028736,-
 0.00027553,0.00004300,-0.02550790,-0.01806620,-0.01794608,-0.00141635,
 0.00052439,0.00092485,-0.03063031,-0.00772319,0.01278594,0.01275342,-0
 .01886133,-0.01414038,0.01585960,0.03532599,-0.09502649,-0.04219983,-0
 .00500744,0.00375211,0.00656076,-0.00103655,0.00038278,-0.00085810,-0.
 00240044,-0.00019583,-0.00051485,0.00101498,0.00001104,0.00059363,-0.0
 0016126,0.00080208,-0.00082155,-0.00047110,0.00018090,0.00054267,-0.00
 001383,-0.00047921,0.00095924,0.00101854,0.00058970,0.00034223,-0.0001
 6762,-0.00000831,-0.00007858,-0.00003580,0.00063168,0.00063014,-0.0000
 6323,0.05065166,0.01008631,0.00830267,0.00612245,0.00098802,-0.0037009
 7,0.01217766,0.01563348,-0.01550075,-0.02343256,-0.02016097,-0.0076099
 6,0.04384034,0.02829740,0.02583278\\0.00000510,0.00000362,0.00000099,0
 .00000161,0.00000027,0.00000250,0.00000310,-0.00000029,-0.00000071,0.0
 0000260,0.00000089,0.00000274,0.00000108,0.00000111,0.00000268,0.00000
 204,0.00000183,0.00000454,0.00000505,0.00000005,0.00000266,0.00000226,
 -0.00000193,-0.00000257,0.00000477,-0.00000291,-0.00000286,0.00000154,
 -0.00000309,-0.00000488,0.00000065,-0.00000179,-0.00000339,-0.00001446
 ,-0.00000385,-0.00000005,-0.00000178,-0.00000121,-0.00000232,-0.000005
 35,0.00000157,-0.00000673,-0.00001009,-0.00000462,0.00001529,0.0000018
 8,0.00001035,-0.00000790\\\@


 ROSE IS A RED
 TY COBB IS BLUE
 'CAUSE PETE JUST HIT
 NO. 4592.
 Job cpu time:  0 days  1 hours 10 minutes 23.5 seconds.
 File lengths (MBytes):  RWF=    125 Int=      0 D2E=      0 Chk=      8 Scr=      1
 Normal termination of Gaussian 03 at Tue Jul 15 23:33:56 2014.
