 Entering Gaussian System, Link 0=g03
 Input=TS13freq.gjf
 Output=TS13freq.log
 Initial command:
 /opt/g03/l1.exe /scratch/nyee/Gau-21207.inp -scrdir=/scratch/nyee/
 Entering Link 1 = /opt/g03/l1.exe PID=     21209.
  
 Copyright (c) 1988,1990,1992,1993,1995,1998,2003,2004, Gaussian, Inc.
                  All Rights Reserved.
  
 This is the Gaussian(R) 03 program.  It is based on the
 the Gaussian(R) 98 system (copyright 1998, Gaussian, Inc.),
 the Gaussian(R) 94 system (copyright 1995, Gaussian, Inc.),
 the Gaussian 92(TM) system (copyright 1992, Gaussian, Inc.),
 the Gaussian 90(TM) system (copyright 1990, Gaussian, Inc.),
 the Gaussian 88(TM) system (copyright 1988, Gaussian, Inc.),
 the Gaussian 86(TM) system (copyright 1986, Carnegie Mellon
 University), and the Gaussian 82(TM) system (copyright 1983,
 Carnegie Mellon University). Gaussian is a federally registered
 trademark of Gaussian, Inc.
  
 This software contains proprietary and confidential information,
 including trade secrets, belonging to Gaussian, Inc.
  
 This software is provided under written license and may be
 used, copied, transmitted, or stored only in accord with that
 written license.
  
 The following legend is applicable only to US Government
 contracts under FAR:
  
                    RESTRICTED RIGHTS LEGEND
  
 Use, reproduction and disclosure by the US Government is
 subject to restrictions as set forth in subparagraphs (a)
 and (c) of the Commercial Computer Software - Restricted
 Rights clause in FAR 52.227-19.
  
 Gaussian, Inc.
 340 Quinnipiac St., Bldg. 40, Wallingford CT 06492
  
  
 ---------------------------------------------------------------
 Warning -- This program may not be used in any manner that
 competes with the business of Gaussian, Inc. or will provide
 assistance to any competitor of Gaussian, Inc.  The licensee
 of this program is prohibited from giving any competitor of
 Gaussian, Inc. access to this program.  By using this program,
 the user acknowledges that Gaussian, Inc. is engaged in the
 business of creating and licensing software in the field of
 computational chemistry and represents and warrants to the
 licensee that it is not a competitor of Gaussian, Inc. and that
 it will not use this program in any manner prohibited above.
 ---------------------------------------------------------------
  

 Cite this work as:
 Gaussian 03, Revision D.01,
 M. J. Frisch, G. W. Trucks, H. B. Schlegel, G. E. Scuseria, 
 M. A. Robb, J. R. Cheeseman, J. A. Montgomery, Jr., T. Vreven, 
 K. N. Kudin, J. C. Burant, J. M. Millam, S. S. Iyengar, J. Tomasi, 
 V. Barone, B. Mennucci, M. Cossi, G. Scalmani, N. Rega, 
 G. A. Petersson, H. Nakatsuji, M. Hada, M. Ehara, K. Toyota, 
 R. Fukuda, J. Hasegawa, M. Ishida, T. Nakajima, Y. Honda, O. Kitao, 
 H. Nakai, M. Klene, X. Li, J. E. Knox, H. P. Hratchian, J. B. Cross, 
 V. Bakken, C. Adamo, J. Jaramillo, R. Gomperts, R. E. Stratmann, 
 O. Yazyev, A. J. Austin, R. Cammi, C. Pomelli, J. W. Ochterski, 
 P. Y. Ayala, K. Morokuma, G. A. Voth, P. Salvador, J. J. Dannenberg, 
 V. G. Zakrzewski, S. Dapprich, A. D. Daniels, M. C. Strain, 
 O. Farkas, D. K. Malick, A. D. Rabuck, K. Raghavachari, 
 J. B. Foresman, J. V. Ortiz, Q. Cui, A. G. Baboul, S. Clifford, 
 J. Cioslowski, B. B. Stefanov, G. Liu, A. Liashenko, P. Piskorz, 
 I. Komaromi, R. L. Martin, D. J. Fox, T. Keith, M. A. Al-Laham, 
 C. Y. Peng, A. Nanayakkara, M. Challacombe, P. M. W. Gill, 
 B. Johnson, W. Chen, M. W. Wong, C. Gonzalez, and J. A. Pople, 
 Gaussian, Inc., Wallingford CT, 2004.
 
 ******************************************
 Gaussian 03:  AM64L-G03RevD.01 13-Oct-2005
                29-Jul-2014 
 ******************************************
 %chk=TS13freq.chk
 %mem=1000mb
 %nproc=8
 Will use up to    8 processors via shared memory.
 -------------------------------------
 # freq nosymm b3lyp/cbsb7 iop(7/33=1)
 -------------------------------------
 1/10=4,30=1,38=1/1,3;
 2/15=1,17=6,18=5,40=1/2;
 3/5=4,6=6,7=700,11=2,16=1,25=1,30=1,74=-5/1,2,3;
 4//1;
 5/5=2,38=5/2;
 8/6=4,10=90,11=11/1;
 11/6=1,8=1,9=11,15=111,16=1,31=1/1,2,10;
 10/6=1,31=1/2;
 6/7=2,8=2,9=2,10=2,18=1,28=1/1;
 7/8=1,10=1,25=1,30=1,33=1/1,2,3,16;
 1/10=4,30=1/3;
 99//99;
 -------------------
 Title Card Required
 -------------------
 Symbolic Z-matrix:
 Charge =  0 Multiplicity = 2
 C                     0.01457  -0.07865  -0.00004 
 C                     0.0599   -0.07233   1.76287 
 H                     1.08747  -0.0532   -0.25636 
 C                     0.70668   1.14275   2.12502 
 H                    -0.99904  -0.03376   2.01063 
 H                     0.18971   2.09423   2.15374 
 O                     2.03658   1.29898   2.1593 
 H                     2.46969   0.43515   2.12527 
 O                    -0.62804  -1.17854  -0.29983 
 O                    -0.62443  -1.27457  -2.17511 
 H                    -1.56283  -1.50977  -2.14347 
 C                     0.71087  -1.38284   2.19266 
 H                     0.16543  -2.21395   1.74803 
 H                     1.74444  -1.47047   1.83636 
 H                     0.70975  -1.48532   3.2809 
 H                    -0.47744   0.86593  -0.27675 
 

 GradGradGradGradGradGradGradGradGradGradGradGradGradGradGradGradGradGrad
 Berny optimization.
 Initialization pass.
 Trust Radius=3.00D-01 FncErr=1.00D-07 GrdErr=1.00D-07
 Number of steps in this run=   2 maximum allowed number of steps=   2.
 GradGradGradGradGradGradGradGradGradGradGradGradGradGradGradGradGradGrad

                          Input orientation:                          
 ---------------------------------------------------------------------
 Center     Atomic     Atomic              Coordinates (Angstroms)
 Number     Number      Type              X           Y           Z
 ---------------------------------------------------------------------
    1          6             0        0.014569   -0.078653   -0.000039
    2          6             0        0.059901   -0.072332    1.762868
    3          1             0        1.087475   -0.053203   -0.256358
    4          6             0        0.706683    1.142753    2.125017
    5          1             0       -0.999035   -0.033761    2.010628
    6          1             0        0.189710    2.094228    2.153737
    7          8             0        2.036580    1.298981    2.159301
    8          1             0        2.469689    0.435152    2.125265
    9          8             0       -0.628044   -1.178535   -0.299832
   10          8             0       -0.624431   -1.274569   -2.175108
   11          1             0       -1.562831   -1.509771   -2.143472
   12          6             0        0.710867   -1.382835    2.192657
   13          1             0        0.165434   -2.213953    1.748033
   14          1             0        1.744439   -1.470467    1.836355
   15          1             0        0.709753   -1.485320    3.280895
   16          1             0       -0.477440    0.865927   -0.276751
 ---------------------------------------------------------------------
                    Distance matrix (angstroms):
                    1          2          3          4          5
     1  C    0.000000
     2  C    1.763501   0.000000
     3  H    1.103392   2.265733   0.000000
     4  C    2.546903   1.423345   2.691888   0.000000
     5  H    2.252152   1.088218   3.081092   2.075270   0.000000
     6  H    3.064447   2.205360   3.350522   1.083232   2.441707
     7  O    3.263304   2.438220   2.926536   1.339481   3.318624
     8  H    3.287632   2.489166   2.796629   1.899708   3.502152
     9  O    1.308651   2.439607   2.052137   3.612446   2.605066
    10  O    2.563096   4.173888   2.846745   5.109441   4.381817
    11  H    3.021687   4.467548   3.564676   5.514216   4.444437
    12  C    2.644549   1.525088   2.812015   2.526497   2.185612
    13  H    2.763697   2.144271   3.088136   3.420898   2.485595
    14  H    2.881309   2.190400   2.611453   2.826514   3.101797
    15  H    3.636828   2.173304   3.834813   2.871033   2.576928
    16  H    1.100397   2.308487   1.814986   2.692075   2.512688
                    6          7          8          9         10
     6  H    0.000000
     7  O    2.010815   0.000000
     8  H    2.819867   0.966924   0.000000
     9  O    4.171295   4.391542   4.252180   0.000000
    10  O    5.545315   5.700109   5.566860   1.877737   0.000000
    11  H    5.875901   6.273651   6.185957   2.093455   0.967944
    12  C    3.516118   2.991783   2.530429   2.836710   4.568601
    13  H    4.327310   4.001379   3.531239   2.428055   4.110640
    14  H    3.901918   2.803477   2.059330   3.205806   4.662806
    15  H    3.788680   3.281886   2.849749   3.834765   5.620715
    16  H    2.803763   3.527348   3.826332   2.050131   2.864802
                   11         12         13         14         15
    11  H    0.000000
    12  C    4.897737   0.000000
    13  H    4.315853   1.089011   0.000000
    14  H    5.174805   1.096769   1.747521   0.000000
    15  H    5.881241   1.093054   1.782373   1.776933   0.000000
    16  H    3.210399   3.544994   3.741483   3.854958   4.426583
                   16
    16  H    0.000000
 Symmetry turned off by external request.
 Stoichiometry    C4H9O3(2)
 Framework group  C1[X(C4H9O3)]
 Deg. of freedom    42
 Full point group                 C1
 Rotational constants (GHZ):      4.9679810      1.1977145      1.0760329
 Standard basis: CBSB7 (5D, 7F)
 Integral buffers will be    131072 words long.
 Raffenetti 2 integral format.
 Two-electron integral symmetry is turned off.
   180 basis functions,   296 primitive gaussians,   187 cartesian basis functions
    29 alpha electrons       28 beta electrons
       nuclear repulsion energy       310.2885318830 Hartrees.
 NAtoms=   16 NActive=   16 NUniq=   16 SFac= 7.50D-01 NAtFMM=   80 NAOKFM=F Big=F
 One-electron integrals computed using PRISM.
 NBasis=   180 RedAO= T  NBF=   180
 NBsUse=   180 1.00D-06 NBFU=   180
 Harris functional with IExCor=  402 diagonalized for initial guess.
 ExpMin= 1.03D-01 ExpMax= 8.59D+03 ExpMxC= 1.30D+03 IAcc=1 IRadAn=         1 AccDes= 1.00D-06
 HarFok:  IExCor= 402 AccDes= 1.00D-06 IRadAn=         1 IDoV=1
 ScaDFX=  1.000000  1.000000  1.000000  1.000000
 <S**2> of initial guess= 0.7500
 Requested convergence on RMS density matrix=1.00D-08 within 128 cycles.
 Requested convergence on MAX density matrix=1.00D-06.
 Requested convergence on             energy=1.00D-06.
 No special actions if energy rises.
 Integral accuracy reduced to 1.0D-05 until final iterations.
 EnCoef did     3 forward-backward iterations
 EnCoef did     4 forward-backward iterations
 EnCoef did     3 forward-backward iterations
 EnCoef did     3 forward-backward iterations
 Initial convergence to 1.0D-05 achieved.  Increase integral accuracy.
 SCF Done:  E(UB+HF-LYP) =  -383.436533418     A.U. after   28 cycles
             Convg  =    0.8373D-08             -V/T =  2.0032
             S**2   =   0.8589
 Annihilation of the first spin contaminant:
 S**2 before annihilation     0.8589,   after     0.7509
 Range of M.O.s used for correlation:     1   180
 NBasis=   180 NAE=    29 NBE=    28 NFC=     0 NFV=     0
 NROrb=    180 NOA=    29 NOB=    28 NVA=   151 NVB=   152
 Symmetrizing basis deriv contribution to polar:
 IMax=3 JMax=2 DiffMx= 0.00D+00
 G2DrvN: will do   17 centers at a time, making    1 passes doing MaxLOS=2.
 FoFDir/FoFCou used for L=0 through L=2.
 DoAtom=TTTTTTTTTTTTTTTT
          Differentiating once with respect to electric field.
                with respect to dipole field.
          Differentiating once with respect to nuclear coordinates.
 Symmetry not used in FoFDir.
 MinBra= 0 MaxBra= 2 Meth= 1.
 IRaf=       0 NMat=  51 IRICut=      51 DoRegI=T DoRafI=T ISym2E= 0 JSym2E=0.
          There are  51 degrees of freedom in the 1st order CPHF.
    48 vectors were produced by pass  0.
 AX will form  48 AO Fock derivatives at one time.
    48 vectors were produced by pass  1.
    48 vectors were produced by pass  2.
    48 vectors were produced by pass  3.
    48 vectors were produced by pass  4.
    48 vectors were produced by pass  5.
    34 vectors were produced by pass  6.
     4 vectors were produced by pass  7.
     3 vectors were produced by pass  8.
 Inv2:  IOpt= 1 Iter= 1 AM= 2.74D-15 Conv= 1.00D-12.
 Inverted reduced A of dimension  329 with in-core refinement.
 Isotropic polarizability for W=    0.000000       91.98 Bohr**3.
 End of Minotr Frequency-dependent properties file   721 does not exist.

 **********************************************************************

            Population analysis using the SCF density.

 **********************************************************************

 Alpha  occ. eigenvalues --  -19.20200 -19.11083 -19.10022 -10.27225 -10.23068
 Alpha  occ. eigenvalues --  -10.21533 -10.18647  -1.11753  -1.00826  -0.92409
 Alpha  occ. eigenvalues --   -0.81930  -0.72454  -0.65685  -0.61113  -0.53754
 Alpha  occ. eigenvalues --   -0.52203  -0.47536  -0.45545  -0.44407  -0.42338
 Alpha  occ. eigenvalues --   -0.42223  -0.40792  -0.39073  -0.38264  -0.36856
 Alpha  occ. eigenvalues --   -0.31065  -0.27173  -0.23777  -0.19532
 Alpha virt. eigenvalues --   -0.09322   0.00577   0.03904   0.07466   0.07829
 Alpha virt. eigenvalues --    0.09502   0.09870   0.11071   0.12148   0.13528
 Alpha virt. eigenvalues --    0.14057   0.16073   0.22059   0.24573   0.27915
 Alpha virt. eigenvalues --    0.29003   0.30643   0.34101   0.35159   0.37413
 Alpha virt. eigenvalues --    0.41246   0.43033   0.43917   0.46684   0.47569
 Alpha virt. eigenvalues --    0.50036   0.51395   0.53749   0.54380   0.55979
 Alpha virt. eigenvalues --    0.56999   0.58309   0.60540   0.61018   0.62452
 Alpha virt. eigenvalues --    0.64211   0.66052   0.76794   0.79453   0.81897
 Alpha virt. eigenvalues --    0.83014   0.85293   0.87983   0.89154   0.92421
 Alpha virt. eigenvalues --    0.94858   0.97852   0.98192   1.01136   1.04397
 Alpha virt. eigenvalues --    1.10762   1.12724   1.16014   1.22472   1.28252
 Alpha virt. eigenvalues --    1.30472   1.34491   1.36568   1.39593   1.40763
 Alpha virt. eigenvalues --    1.42528   1.44737   1.45255   1.46238   1.48169
 Alpha virt. eigenvalues --    1.49195   1.51920   1.52627   1.57033   1.58997
 Alpha virt. eigenvalues --    1.61021   1.62366   1.64539   1.65131   1.68458
 Alpha virt. eigenvalues --    1.70504   1.76532   1.81551   1.83207   1.84972
 Alpha virt. eigenvalues --    1.88558   1.92238   1.98913   2.00069   2.03576
 Alpha virt. eigenvalues --    2.05196   2.06402   2.11292   2.19773   2.22989
 Alpha virt. eigenvalues --    2.27621   2.32143   2.33939   2.37099   2.40582
 Alpha virt. eigenvalues --    2.41420   2.44272   2.46314   2.48688   2.50090
 Alpha virt. eigenvalues --    2.53790   2.56562   2.58129   2.62245   2.66679
 Alpha virt. eigenvalues --    2.68419   2.73561   2.75466   2.83288   2.85485
 Alpha virt. eigenvalues --    2.89139   2.90775   2.91778   2.98335   3.04122
 Alpha virt. eigenvalues --    3.08688   3.12713   3.15068   3.16746   3.17014
 Alpha virt. eigenvalues --    3.24929   3.28260   3.35678   3.38850   3.44225
 Alpha virt. eigenvalues --    3.70244   3.73661   3.77597   3.79463   3.80543
 Alpha virt. eigenvalues --    3.82933   3.84384   3.96594   4.02494   4.24425
 Alpha virt. eigenvalues --    4.77248   4.81353   4.86952   4.96360   5.11503
 Alpha virt. eigenvalues --    5.22943   5.42706   5.57961   5.63016  23.66957
 Alpha virt. eigenvalues --   23.77893  23.88187  23.95715  49.80438  49.82835
 Alpha virt. eigenvalues --   49.91403
  Beta  occ. eigenvalues --  -19.19852 -19.11328 -19.08316 -10.26447 -10.22889
  Beta  occ. eigenvalues --  -10.21726 -10.18620  -1.10976  -1.00773  -0.88641
  Beta  occ. eigenvalues --   -0.81548  -0.71685  -0.65493  -0.60998  -0.53461
  Beta  occ. eigenvalues --   -0.51742  -0.47153  -0.44852  -0.43191  -0.42104
  Beta  occ. eigenvalues --   -0.41189  -0.39728  -0.38852  -0.37968  -0.36257
  Beta  occ. eigenvalues --   -0.27776  -0.26292  -0.23217
  Beta virt. eigenvalues --   -0.08537  -0.04330   0.00673   0.04026   0.07577
  Beta virt. eigenvalues --    0.08055   0.09579   0.10118   0.11122   0.12255
  Beta virt. eigenvalues --    0.13665   0.14084   0.16490   0.22558   0.24890
  Beta virt. eigenvalues --    0.28076   0.29074   0.30814   0.34648   0.35511
  Beta virt. eigenvalues --    0.37939   0.41883   0.43860   0.44311   0.46949
  Beta virt. eigenvalues --    0.48246   0.50487   0.51638   0.53780   0.54480
  Beta virt. eigenvalues --    0.56183   0.57074   0.58438   0.60512   0.61211
  Beta virt. eigenvalues --    0.62657   0.64576   0.66495   0.77359   0.80302
  Beta virt. eigenvalues --    0.82755   0.83718   0.85963   0.88557   0.89492
  Beta virt. eigenvalues --    0.94205   0.95073   0.98348   0.98804   1.01334
  Beta virt. eigenvalues --    1.04416   1.11462   1.13201   1.17190   1.23221
  Beta virt. eigenvalues --    1.28583   1.31117   1.34921   1.36553   1.39854
  Beta virt. eigenvalues --    1.40767   1.42738   1.45139   1.45517   1.46384
  Beta virt. eigenvalues --    1.48429   1.49540   1.52198   1.52791   1.57483
  Beta virt. eigenvalues --    1.59202   1.61237   1.62347   1.65227   1.65707
  Beta virt. eigenvalues --    1.68649   1.70651   1.76603   1.81702   1.83583
  Beta virt. eigenvalues --    1.85749   1.89116   1.92366   1.99312   2.00581
  Beta virt. eigenvalues --    2.03964   2.05319   2.06445   2.11371   2.19737
  Beta virt. eigenvalues --    2.23215   2.27728   2.32170   2.34028   2.37227
  Beta virt. eigenvalues --    2.40629   2.41512   2.44400   2.46476   2.48911
  Beta virt. eigenvalues --    2.50219   2.54489   2.56694   2.58223   2.62424
  Beta virt. eigenvalues --    2.67719   2.68847   2.73796   2.76020   2.83675
  Beta virt. eigenvalues --    2.86546   2.90258   2.91885   2.94007   2.98780
  Beta virt. eigenvalues --    3.05142   3.10602   3.15108   3.16564   3.17136
  Beta virt. eigenvalues --    3.18092   3.26236   3.28868   3.36018   3.38889
  Beta virt. eigenvalues --    3.44502   3.70339   3.74008   3.78328   3.80222
  Beta virt. eigenvalues --    3.80743   3.83084   3.84839   3.96653   4.02748
  Beta virt. eigenvalues --    4.24630   4.78724   4.82993   4.93307   4.96320
  Beta virt. eigenvalues --    5.10518   5.23330   5.44151   5.57949   5.63441
  Beta virt. eigenvalues --   23.67442  23.78090  23.88248  23.95882  49.82047
  Beta virt. eigenvalues --   49.83244  49.91233
          Condensed to atoms (all electrons):
              1          2          3          4          5          6
     1  C    4.743146   0.175251   0.374463  -0.046788  -0.027786   0.000428
     2  C    0.175251   5.458090  -0.030081   0.355592   0.377077  -0.050490
     3  H    0.374463  -0.030081   0.724898  -0.014228   0.013141  -0.001475
     4  C   -0.046788   0.355592  -0.014228   4.972844  -0.026254   0.415273
     5  H   -0.027786   0.377077   0.013141  -0.026254   0.573437  -0.005575
     6  H    0.000428  -0.050490  -0.001475   0.415273  -0.005575   0.518171
     7  O   -0.000568  -0.062587   0.009769   0.333753   0.003350  -0.032163
     8  H    0.000250  -0.009660   0.003782  -0.049024   0.000690   0.006960
     9  O    0.354886  -0.048892  -0.047320   0.001718   0.005889  -0.000130
    10  O   -0.005535   0.002124   0.001556  -0.000131  -0.000222  -0.000004
    11  H   -0.004084  -0.000531   0.000210   0.000041   0.000153  -0.000001
    12  C   -0.061182   0.281554  -0.027999  -0.063895  -0.043285   0.006139
    13  H   -0.006245  -0.034925  -0.000499   0.008716  -0.006638  -0.000178
    14  H   -0.005834  -0.032420   0.005061  -0.006156   0.008608  -0.000144
    15  H    0.006682  -0.040330  -0.000695  -0.000259  -0.006753   0.000068
    16  H    0.382000  -0.029405  -0.081233   0.000506  -0.016934   0.003325
              7          8          9         10         11         12
     1  C   -0.000568   0.000250   0.354886  -0.005535  -0.004084  -0.061182
     2  C   -0.062587  -0.009660  -0.048892   0.002124  -0.000531   0.281554
     3  H    0.009769   0.003782  -0.047320   0.001556   0.000210  -0.027999
     4  C    0.333753  -0.049024   0.001718  -0.000131   0.000041  -0.063895
     5  H    0.003350   0.000690   0.005889  -0.000222   0.000153  -0.043285
     6  H   -0.032163   0.006960  -0.000130  -0.000004  -0.000001   0.006139
     7  O    7.693799   0.326095   0.000030   0.000000   0.000000  -0.002811
     8  H    0.326095   0.446836  -0.000198   0.000000   0.000001   0.007100
     9  O    0.000030  -0.000198   8.067166   0.015726   0.005150  -0.003472
    10  O    0.000000   0.000000   0.015726   8.078700   0.259778  -0.000250
    11  H    0.000000   0.000001   0.005150   0.259778   0.500678   0.000054
    12  C   -0.002811   0.007100  -0.003472  -0.000250   0.000054   4.982609
    13  H    0.000054  -0.000606   0.022657  -0.000103   0.000019   0.399375
    14  H    0.000945   0.008281  -0.000407  -0.000046   0.000008   0.386252
    15  H    0.000417  -0.000556   0.000400   0.000011  -0.000006   0.402539
    16  H   -0.000382  -0.000635  -0.039888   0.004102   0.000000   0.011168
             13         14         15         16
     1  C   -0.006245  -0.005834   0.006682   0.382000
     2  C   -0.034925  -0.032420  -0.040330  -0.029405
     3  H   -0.000499   0.005061  -0.000695  -0.081233
     4  C    0.008716  -0.006156  -0.000259   0.000506
     5  H   -0.006638   0.008608  -0.006753  -0.016934
     6  H   -0.000178  -0.000144   0.000068   0.003325
     7  O    0.000054   0.000945   0.000417  -0.000382
     8  H   -0.000606   0.008281  -0.000556  -0.000635
     9  O    0.022657  -0.000407   0.000400  -0.039888
    10  O   -0.000103  -0.000046   0.000011   0.004102
    11  H    0.000019   0.000008  -0.000006   0.000000
    12  C    0.399375   0.386252   0.402539   0.011168
    13  H    0.502016  -0.022893  -0.019565   0.001864
    14  H   -0.022893   0.607785  -0.033790  -0.000204
    15  H   -0.019565  -0.033790   0.566731  -0.000129
    16  H    0.001864  -0.000204  -0.000129   0.689965
 Mulliken atomic charges:
              1
     1  C    0.120916
     2  C   -0.310367
     3  H    0.070651
     4  C    0.118292
     5  H    0.151100
     6  H    0.139795
     7  O   -0.269702
     8  H    0.260684
     9  O   -0.333315
    10  O   -0.355706
    11  H    0.238531
    12  C   -0.273897
    13  H    0.156950
    14  H    0.084953
    15  H    0.125233
    16  H    0.075881
 Sum of Mulliken charges=   0.00000
 Atomic charges with hydrogens summed into heavy atoms:
              1
     1  C    0.267448
     2  C   -0.159267
     3  H    0.000000
     4  C    0.258087
     5  H    0.000000
     6  H    0.000000
     7  O   -0.009017
     8  H    0.000000
     9  O   -0.333315
    10  O   -0.117175
    11  H    0.000000
    12  C    0.093238
    13  H    0.000000
    14  H    0.000000
    15  H    0.000000
    16  H    0.000000
 Sum of Mulliken charges=   0.00000
          Atomic-Atomic Spin Densities.
              1          2          3          4          5          6
     1  C    0.158566  -0.065059   0.007110  -0.020569  -0.004762  -0.001009
     2  C   -0.065059  -0.127796   0.006961   0.038138   0.008873   0.001377
     3  H    0.007110   0.006961  -0.014795  -0.009041  -0.000619  -0.000153
     4  C   -0.020569   0.038138  -0.009041   0.624385  -0.005504  -0.000522
     5  H   -0.004762   0.008873  -0.000619  -0.005504   0.007439   0.000469
     6  H   -0.001009   0.001377  -0.000153  -0.000522   0.000469  -0.027458
     7  O    0.002572  -0.003018   0.001666  -0.096200   0.000050   0.000716
     8  H    0.000195   0.000078   0.000108  -0.000536   0.000013  -0.000327
     9  O    0.027182   0.013950  -0.001952  -0.000574  -0.002016  -0.000002
    10  O   -0.005952  -0.000592   0.001210  -0.000117  -0.000063  -0.000001
    11  H    0.000059   0.000163  -0.000112   0.000033   0.000025   0.000001
    12  C   -0.019815   0.008269  -0.002710  -0.021101   0.003442   0.000264
    13  H    0.003936   0.002089  -0.000060   0.000211  -0.000789  -0.000012
    14  H   -0.000069   0.001258  -0.000273  -0.000519  -0.000047   0.000009
    15  H    0.000831   0.002097   0.000292   0.003880   0.000141  -0.000043
    16  H   -0.002625   0.005452  -0.001846   0.000272  -0.000303   0.000120
              7          8          9         10         11         12
     1  C    0.002572   0.000195   0.027182  -0.005952   0.000059  -0.019815
     2  C   -0.003018   0.000078   0.013950  -0.000592   0.000163   0.008269
     3  H    0.001666   0.000108  -0.001952   0.001210  -0.000112  -0.002710
     4  C   -0.096200  -0.000536  -0.000574  -0.000117   0.000033  -0.021101
     5  H    0.000050   0.000013  -0.002016  -0.000063   0.000025   0.003442
     6  H    0.000716  -0.000327  -0.000002  -0.000001   0.000001   0.000264
     7  O    0.182932   0.001024   0.000002   0.000000  -0.000001   0.001355
     8  H    0.001024  -0.002950  -0.000003   0.000001   0.000000  -0.000139
     9  O    0.000002  -0.000003  -0.100065  -0.082866   0.006323  -0.002422
    10  O    0.000000   0.000001  -0.082866   0.708654  -0.001274  -0.000143
    11  H   -0.000001   0.000000   0.006323  -0.001274  -0.016107   0.000048
    12  C    0.001355  -0.000139  -0.002422  -0.000143   0.000048   0.051947
    13  H    0.000004   0.000018  -0.001127   0.000208  -0.000056  -0.006140
    14  H    0.000022   0.000047  -0.000137  -0.000009   0.000001  -0.000266
    15  H   -0.000416  -0.000003   0.000368   0.000007  -0.000003  -0.008956
    16  H   -0.000174  -0.000020   0.000499  -0.000754   0.000010   0.000210
             13         14         15         16
     1  C    0.003936  -0.000069   0.000831  -0.002625
     2  C    0.002089   0.001258   0.002097   0.005452
     3  H   -0.000060  -0.000273   0.000292  -0.001846
     4  C    0.000211  -0.000519   0.003880   0.000272
     5  H   -0.000789  -0.000047   0.000141  -0.000303
     6  H   -0.000012   0.000009  -0.000043   0.000120
     7  O    0.000004   0.000022  -0.000416  -0.000174
     8  H    0.000018   0.000047  -0.000003  -0.000020
     9  O   -0.001127  -0.000137   0.000368   0.000499
    10  O    0.000208  -0.000009   0.000007  -0.000754
    11  H   -0.000056   0.000001  -0.000003   0.000010
    12  C   -0.006140  -0.000266  -0.008956   0.000210
    13  H    0.000509  -0.000216   0.002399  -0.000109
    14  H   -0.000216  -0.001610   0.000494  -0.000014
    15  H    0.002399   0.000494  -0.002339   0.000005
    16  H   -0.000109  -0.000014   0.000005  -0.006120
 Mulliken atomic spin densities:
              1
     1  C    0.080593
     2  C   -0.107759
     3  H   -0.014214
     4  C    0.512239
     5  H    0.006351
     6  H   -0.026572
     7  O    0.090535
     8  H   -0.002492
     9  O   -0.142839
    10  O    0.618310
    11  H   -0.010890
    12  C    0.003844
    13  H    0.000866
    14  H   -0.001329
    15  H   -0.001247
    16  H   -0.005396
 Sum of Mulliken spin densities=   1.00000
 APT atomic charges:
              1
     1  C    0.115006
     2  C    0.360023
     3  H   -0.038972
     4  C    0.224119
     5  H   -0.009237
     6  H    0.083229
     7  O   -0.666005
     8  H    0.259412
     9  O    0.151004
    10  O   -0.736453
    11  H    0.266800
    12  C    0.055714
    13  H    0.044772
    14  H   -0.027805
    15  H   -0.015065
    16  H   -0.066543
 Sum of APT charges=   0.00000
 APT Atomic charges with hydrogens summed into heavy atoms:
              1
     1  C    0.009492
     2  C    0.350786
     3  H    0.000000
     4  C    0.307348
     5  H    0.000000
     6  H    0.000000
     7  O   -0.406592
     8  H    0.000000
     9  O    0.151004
    10  O   -0.469653
    11  H    0.000000
    12  C    0.057616
    13  H    0.000000
    14  H    0.000000
    15  H    0.000000
    16  H    0.000000
 Sum of APT charges=   0.00000
 Electronic spatial extent (au):  <R**2>=  1234.2301
 Charge=     0.0000 electrons
 Dipole moment (field-independent basis, Debye):
    X=     0.6307    Y=     1.5148    Z=     4.0188  Tot=     4.3409
 Quadrupole moment (field-independent basis, Debye-Ang):
   XX=   -37.4477   YY=   -45.2018   ZZ=   -42.7488
   XY=    -2.2041   XZ=     3.4381   YZ=    -3.1059
 Traceless Quadrupole moment (field-independent basis, Debye-Ang):
   XX=     4.3517   YY=    -3.4024   ZZ=    -0.9493
   XY=    -2.2041   XZ=     3.4381   YZ=    -3.1059
 Octapole moment (field-independent basis, Debye-Ang**2):
  XXX=   -37.5157  YYY=    37.6108  ZZZ=   -98.8341  XYY=   -22.4448
  XXY=    -0.2673  XXZ=   -37.4650  XZZ=   -18.0358  YZZ=     8.4963
  YYZ=   -34.0263  XYZ=   -11.2158
 Hexadecapole moment (field-independent basis, Debye-Ang**3):
 XXXX=  -240.0141 YYYY=  -360.4286 ZZZZ=  -889.5827 XXXY=   -67.1423
 XXXZ=  -136.7537 YYYX=   -64.2574 YYYZ=   -74.7071 ZZZX=  -154.6986
 ZZZY=   -92.3504 XXYY=  -116.2391 XXZZ=  -168.7723 YYZZ=  -209.2341
 XXYZ=   -28.4331 YYXZ=   -61.1514 ZZXY=   -24.3149
 N-N= 3.102885318830D+02 E-N=-1.520455381250D+03  KE= 3.821966318278D+02
  Exact polarizability:  68.800  19.385  79.793  33.873  40.063 127.356
 Approx polarizability: 109.774  47.609 143.531  62.402  95.895 223.578
                          Isotropic Fermi Contact Couplings
        Atom                 a.u.       MegaHertz       Gauss      10(-4) cm-1
     1  C(13)              0.06902      77.58818      27.68539      25.88063
     2  C(13)             -0.01487     -16.71212      -5.96330      -5.57456
     3  H(1)              -0.00544     -24.32492      -8.67973      -8.11392
     4  C(13)              0.04660      52.38879      18.69362      17.47502
     5  H(1)               0.00434      19.41856       6.92902       6.47733
     6  H(1)              -0.00747     -33.37669     -11.90963     -11.13327
     7  O(17)              0.01615      -9.78925      -3.49305      -3.26534
     8  H(1)              -0.00160      -7.14221      -2.54852      -2.38238
     9  O(17)              0.20055    -121.56981     -43.37913     -40.55132
    10  O(17)              0.07409     -44.91587     -16.02710     -14.98232
    11  H(1)              -0.00948     -42.37976     -15.12215     -14.13636
    12  C(13)              0.01643      18.46955       6.59040       6.16078
    13  H(1)              -0.00016      -0.71045      -0.25351      -0.23698
    14  H(1)              -0.00065      -2.90809      -1.03768      -0.97004
    15  H(1)              -0.00157      -7.02264      -2.50585      -2.34250
    16  H(1)              -0.00181      -8.09725      -2.88930      -2.70095
 --------------------------------------------------------
       Center         ----  Spin Dipole Couplings  ----
                      3XX-RR        3YY-RR        3ZZ-RR
 --------------------------------------------------------
     1   Atom       -0.036608     -0.041532      0.078141
     2   Atom        0.056012      0.072949     -0.128961
     3   Atom        0.000554     -0.005432      0.004878
     4   Atom       -0.311323     -0.284271      0.595594
     5   Atom       -0.001728      0.004873     -0.003144
     6   Atom       -0.021185      0.023861     -0.002676
     7   Atom       -0.282996     -0.273081      0.556077
     8   Atom       -0.001075      0.011113     -0.010038
     9   Atom        0.245002      0.280078     -0.525080
    10   Atom       -1.262274     -1.239499      2.501773
    11   Atom        0.101462     -0.068654     -0.032808
    12   Atom       -0.002613      0.007424     -0.004811
    13   Atom       -0.001863      0.002273     -0.000410
    14   Atom       -0.002313      0.003821     -0.001508
    15   Atom       -0.003336      0.004913     -0.001577
    16   Atom       -0.007190      0.002138      0.005052
 --------------------------------------------------------
                        XY            XZ            YZ
 --------------------------------------------------------
     1   Atom       -0.000996     -0.015813     -0.004010
     2   Atom        0.006813     -0.004532     -0.014665
     3   Atom        0.002981      0.000478      0.007225
     4   Atom        0.008774     -0.080257     -0.184908
     5   Atom        0.009520      0.004422      0.000523
     6   Atom       -0.032412     -0.004085     -0.003147
     7   Atom        0.004092     -0.097605     -0.124768
     8   Atom       -0.021104     -0.003746      0.002701
     9   Atom        0.014347      0.205707     -0.045391
    10   Atom        0.019780      0.071605      0.412550
    11   Atom        0.047489     -0.000210      0.005505
    12   Atom       -0.005760      0.000600      0.002001
    13   Atom        0.001545     -0.000485      0.001235
    14   Atom       -0.001731     -0.000002      0.001278
    15   Atom        0.000386      0.000058     -0.002781
    16   Atom       -0.000743      0.005773      0.002751
 --------------------------------------------------------


 ---------------------------------------------------------------------------------
              Anisotropic Spin Dipole Couplings in Principal Axis System
 ---------------------------------------------------------------------------------

       Atom             a.u.   MegaHertz   Gauss  10(-4) cm-1        Axes

              Baa    -0.0423    -5.677    -2.026    -1.894  0.3863  0.9188  0.0813
     1 C(13)  Bbb    -0.0381    -5.112    -1.824    -1.705  0.9126 -0.3935  0.1106
              Bcc     0.0804    10.789     3.850     3.599 -0.1336 -0.0315  0.9905
 
              Baa    -0.1301   -17.459    -6.230    -5.824  0.0217  0.0713  0.9972
     2 C(13)  Bbb     0.0536     7.194     2.567     2.400  0.9439 -0.3303  0.0031
              Bcc     0.0765    10.265     3.663     3.424  0.3296  0.9412 -0.0744
 
              Baa    -0.0097    -5.195    -1.854    -1.733 -0.2336  0.8746 -0.4247
     3 H(1)   Bbb     0.0007     0.397     0.142     0.132  0.9482  0.1082 -0.2987
              Bcc     0.0090     4.799     1.712     1.601  0.2153  0.4725  0.8546
 
              Baa    -0.3273   -43.917   -15.671   -14.649  0.6181  0.7587  0.2058
     4 C(13)  Bbb    -0.3124   -41.921   -14.959   -13.983  0.7816 -0.6211 -0.0574
              Bcc     0.6397    85.838    30.629    28.632 -0.0843 -0.1963  0.9769
 
              Baa    -0.0102    -5.418    -1.933    -1.807  0.7628 -0.4678 -0.4464
     5 H(1)   Bbb    -0.0021    -1.118    -0.399    -0.373  0.2561 -0.4153  0.8729
              Bcc     0.0122     6.536     2.332     2.180  0.5937  0.7802  0.1970
 
              Baa    -0.0388   -20.726    -7.395    -6.913  0.8768  0.4602  0.1391
     6 H(1)   Bbb    -0.0020    -1.057    -0.377    -0.353 -0.1329 -0.0461  0.9901
              Bcc     0.0408    21.783     7.773     7.266 -0.4620  0.8866 -0.0208
 
              Baa    -0.3028    21.913     7.819     7.309  0.7434  0.6447  0.1781
     7 O(17)  Bbb    -0.2825    20.440     7.294     6.818 -0.6595  0.7509  0.0350
              Bcc     0.5853   -42.353   -15.113   -14.128 -0.1112 -0.1435  0.9834
 
              Baa    -0.0172    -9.191    -3.279    -3.066  0.7950  0.5731  0.1990
     8 H(1)   Bbb    -0.0103    -5.484    -1.957    -1.829 -0.0906 -0.2122  0.9730
              Bcc     0.0275    14.675     5.236     4.895 -0.5998  0.7916  0.1168
 
              Baa    -0.5792    41.911    14.955    13.980 -0.2427  0.0552  0.9685
     9 O(17)  Bbb     0.2821   -20.414    -7.284    -6.810 -0.1778  0.9789 -0.1004
              Bcc     0.2971   -21.497    -7.671    -7.171  0.9537  0.1966  0.2278
 
              Baa    -1.2899    93.334    33.304    31.133 -0.4139  0.9058 -0.0907
    10 O(17)  Bbb    -1.2583    91.048    32.488    30.370  0.9101  0.4096 -0.0623
              Bcc     2.5481  -184.381   -65.792   -61.503  0.0192  0.1084  0.9939
 
              Baa    -0.0816   -43.541   -15.537   -14.524 -0.2497  0.9621 -0.1096
    11 H(1)   Bbb    -0.0322   -17.193    -6.135    -5.735 -0.0354  0.1041  0.9939
              Bcc     0.1138    60.734    21.672    20.259  0.9677  0.2521  0.0081
 
              Baa    -0.0065    -0.869    -0.310    -0.290 -0.6469 -0.3644  0.6699
    12 C(13)  Bbb    -0.0037    -0.501    -0.179    -0.167  0.6472  0.2023  0.7350
              Bcc     0.0102     1.370     0.489     0.457 -0.4034  0.9090  0.1050
 
              Baa    -0.0027    -1.450    -0.517    -0.484  0.8570 -0.3572  0.3715
    13 H(1)   Bbb    -0.0004    -0.201    -0.072    -0.067 -0.4456 -0.1514  0.8824
              Bcc     0.0031     1.651     0.589     0.551  0.2590  0.9217  0.2889
 
              Baa    -0.0029    -1.526    -0.544    -0.509  0.9173  0.2899 -0.2729
    14 H(1)   Bbb    -0.0017    -0.891    -0.318    -0.297  0.3175 -0.1189  0.9408
              Bcc     0.0045     2.417     0.862     0.806 -0.2403  0.9496  0.2011
 
              Baa    -0.0034    -1.810    -0.646    -0.604  0.9721 -0.1138 -0.2051
    15 H(1)   Bbb    -0.0026    -1.366    -0.488    -0.456  0.2317  0.3287  0.9156
              Bcc     0.0060     3.177     1.134     1.060  0.0368  0.9376 -0.3459
 
              Baa    -0.0097    -5.194    -1.853    -1.733  0.9121  0.1458 -0.3832
    16 H(1)   Bbb     0.0015     0.806     0.288     0.269 -0.2660  0.9217 -0.2823
              Bcc     0.0082     4.388     1.566     1.464  0.3121  0.3594  0.8795
 

 ---------------------------------------------------------------------------------

 Use density number 0.
 Entering OneElI...
 Calculate overlap and kinetic energy integrals
    NBasis = 187  MinDer = 2  MaxDer = 2
 Requested accuracy = 0.1000D-12
 PrsmSu:  NPrtUS=   1 ThrOK=F
 PRISM was handed   130763415 working-precision words and  2513 shell-pairs
 Entering OneElI...
 Calculate potential energy integrals
    NBasis = 187  MinDer = 2  MaxDer = 2
 Requested accuracy = 0.1000D-12
 PrsmSu:  NPrtUS=   8 ThrOK=T
 PRISM was handed    16303627 working-precision words and  2314 shell-pairs
 PRISM was handed    16303627 working-precision words and  2314 shell-pairs
 PRISM was handed    16303627 working-precision words and  2314 shell-pairs
 PRISM was handed    16303627 working-precision words and  2314 shell-pairs
 PRISM was handed    16303627 working-precision words and  2314 shell-pairs
 PRISM was handed    16303627 working-precision words and  2314 shell-pairs
 PRISM was handed    16303627 working-precision words and  2314 shell-pairs
 PRISM was handed    16303627 working-precision words and  2314 shell-pairs
 Polarizability after L701:
                1             2             3
      1  0.687997D+02
      2  0.193854D+02  0.797930D+02
      3  0.338726D+02  0.400626D+02  0.127356D+03
 Dipole Derivatives after L701:
               1            2            3            4            5
      1 0.332292D+00-0.289230D+00-0.169205D+00 0.105178D+00 0.522313D-01
      2-0.241851D+00 0.184864D+00-0.291038D+00 0.113699D+00 0.190113D+00
      3-0.388879D+00-0.543682D+00-0.172138D+00 0.150560D+00 0.103956D+00
               6            7            8            9           10
      1 0.299812D+00-0.181136D+00 0.333790D-01 0.349160D-01 0.132877D+01
      2 0.411381D+00 0.508717D-01 0.291557D-01 0.246473D-01 0.825476D+00
      3 0.784778D+00 0.131040D+00 0.404428D-01 0.350653D-01 0.106109D+01
              11           12           13           14           15
      1-0.781341D-01-0.212023D+00-0.553581D-01 0.377539D-01-0.633382D-02
      2 0.742496D-01-0.329047D+00 0.349718D-01 0.387216D-01-0.269294D-01
      3-0.241963D+00-0.730662D+00 0.281164D-01 0.453076D-01-0.110755D-01
              16           17           18           19           20
      1 0.364168D-01 0.587603D-01 0.247381D-01-0.159663D+01-0.408685D-01
      2 0.157926D-01-0.738752D-02 0.628122D-01-0.103470D+01-0.274759D+00
      3 0.567461D-02 0.345676D-01 0.220657D+00-0.138112D+01-0.846210D-02
              21           22           23           24           25
      1 0.475384D-01 0.392223D+00-0.159231D-01 0.103731D-01-0.317863D+00
      2 0.892474D-01 0.674902D-01 0.129787D+00-0.373830D-01 0.488919D-01
      3-0.126626D+00 0.901089D-01-0.155029D+00 0.256226D+00 0.269966D+00
              26           27           28           29           30
      1 0.163577D+00 0.609919D+00-0.214585D+00 0.105544D-01-0.652099D+00
      2-0.209066D+00 0.894345D+00-0.445171D-02-0.457509D+00-0.884922D+00
      3 0.565904D+00 0.979942D+00-0.180563D+00-0.791520D-01-0.153727D+01
              31           32           33           34           35
      1 0.149166D+00-0.296055D-01 0.622534D-01 0.103681D+00-0.900172D-02
      2 0.342431D-01 0.331206D+00 0.502310D-01 0.590989D-02-0.232690D-01
      3 0.202141D+00 0.567268D-01 0.320029D+00 0.534648D-01-0.136904D-01
              36           37           38           39           40
      1-0.398191D-01 0.357802D-01 0.586091D-02-0.430477D-01-0.147262D+00
      2 0.176712D-01-0.752495D-01 0.496890D-01-0.962687D-01 0.229495D-01
      3 0.867306D-01-0.329103D-01 0.456104D-01 0.488472D-01 0.520805D-01
              41           42           43           44           45
      1-0.403181D-01 0.698691D-01 0.650739D-01 0.154794D-01-0.937923D-02
      2 0.413202D-01 0.280498D-02 0.305649D-01 0.319579D-01 0.571786D-01
      3 0.122851D-01 0.225279D-01-0.232429D-01 0.177118D-01-0.142227D+00
              46           47           48
      1-0.357452D-01 0.125485D+00-0.275127D-01
      2 0.105387D+00-0.129075D+00 0.552686D-01
      3-0.375257D-01 0.119466D+00-0.348080D-01
 Hessian after L701:
                1             2             3             4             5
      1  0.175361D+02
      2 -0.484074D+01  0.126258D+02
      3 -0.221456D+01 -0.281428D+01  0.183311D+02
      4 -0.335055D+01  0.416918D-01  0.360173D+00  0.157244D+02
      5  0.428768D-01 -0.328424D+01  0.394929D+00 -0.128536D+01  0.117239D+02
      6  0.371663D+00  0.415929D+00  0.127451D+01 -0.153502D+01 -0.835159D+00
      7 -0.118020D+01  0.208318D+00 -0.717272D+00 -0.128289D+00  0.993820D-01
      8  0.296848D+00 -0.472054D+01 -0.656830D-01  0.636707D-01  0.810344D-01
      9 -0.914798D+00 -0.463999D-01 -0.452016D+01  0.232160D+00 -0.179449D+00
     10 -0.852351D-01  0.844668D-02  0.909115D-01 -0.593103D+01  0.292049D+01
     11 -0.480177D-01 -0.152095D+00  0.129338D-02  0.301110D+01 -0.204952D+01
     12  0.911923D-01  0.907703D-01  0.328768D+00  0.859216D+00  0.169341D+01
     13  0.969194D-01 -0.124491D-01  0.264310D-01 -0.162924D+01 -0.190753D+00
     14 -0.677776D-02  0.771253D-01  0.133136D-01 -0.194194D+00 -0.469271D+01
     15  0.580695D-01  0.767137D-02 -0.111901D+00 -0.765650D+00  0.341938D-01
     16 -0.314653D-01 -0.150101D-01 -0.103383D-01  0.191189D+00 -0.490297D-01
     17  0.828571D-02  0.462011D-01  0.566639D-01 -0.409425D-01 -0.221930D+00
     18  0.450359D-02  0.487934D-01  0.941331D-02  0.231651D-02 -0.407350D-01
     19  0.243994D-01  0.157261D+00  0.218202D+00  0.469277D-01  0.400591D+00
     20  0.209265D+00 -0.992999D-01  0.159001D+00  0.321475D+00  0.332269D+00
     21  0.280889D+00  0.176041D+00  0.271007D-01  0.376592D-01 -0.250499D-01
     22  0.287168D-01  0.127951D-01  0.292363D-01 -0.199330D+00  0.366604D-01
     23 -0.260434D-01 -0.304225D-01 -0.125045D-01 -0.315262D-01  0.201616D-01
     24  0.249591D-01  0.455872D-02 -0.300774D-03  0.264048D-02  0.150581D-01
     25 -0.859884D+01  0.566199D+01  0.167425D+01  0.297086D-02 -0.194316D+00
     26  0.560716D+01 -0.222525D+01  0.265307D+01 -0.137200D+00 -0.390283D+00
     27  0.170853D+01  0.270612D+01 -0.115560D+02  0.207053D+00  0.149498D-01
     28 -0.378818D+00  0.208298D-01  0.132601D+00 -0.122417D+00  0.119277D-01
     29  0.307765D-01 -0.269006D+00  0.372884D+00  0.226649D-01 -0.875132D-01
     30  0.136819D+00  0.330274D+00  0.411137D+00  0.103656D+00  0.124963D+00
     31  0.245257D-01  0.207311D-01  0.350503D-01  0.881237D-02  0.378880D-02
     32  0.132236D-01 -0.156586D-02  0.132182D-01  0.445753D-02 -0.579902D-02
     33  0.104168D-01  0.519400D-02 -0.873640D-02  0.369117D-02 -0.876184D-03
     34  0.266162D-01 -0.703857D-02  0.249146D-01 -0.481292D+01 -0.199279D+01
     35  0.708483D-02 -0.451247D-01  0.415170D-01 -0.199238D+01 -0.141747D+01
     36  0.371299D-01 -0.380610D-01  0.122479D+00  0.722960D+00 -0.150754D+01
     37 -0.911809D-02  0.230996D-01 -0.177285D-01  0.759190D-01  0.666551D-01
     38  0.530014D-02  0.339093D-01 -0.284378D-02  0.688599D-02 -0.368367D-01
     39 -0.855655D-02  0.133501D-01 -0.330634D-01  0.136340D-01  0.979888D-01
     40  0.880821D-02 -0.668250D-02  0.107678D-01  0.435912D-01  0.231121D-01
     41  0.450335D-02 -0.208157D-01  0.769891D-02  0.857397D-01  0.253508D-01
     42 -0.420598D-02  0.799687D-02 -0.843944D-02 -0.237411D-01  0.306090D-02
     43 -0.370127D-01 -0.143904D-01  0.312377D-01  0.922652D-01  0.188289D-02
     44 -0.143656D-01 -0.139054D-01 -0.752163D-01  0.848510D-02  0.256144D-01
     45  0.349193D-01 -0.792647D-01  0.140201D+00 -0.961322D-02  0.455256D-01
     46 -0.407483D+01 -0.125885D+01  0.326124D+00 -0.123125D-01  0.104880D+00
     47 -0.128938D+01 -0.192079D+01 -0.743057D+00  0.115429D+00 -0.220268D-01
     48  0.383022D+00 -0.828690D+00 -0.440604D+01 -0.211132D+00  0.164734D+00
                6             7             8             9            10
      6  0.158259D+02
      7  0.125048D+00  0.952129D+00
      8 -0.139988D+00 -0.493437D+00  0.487209D+01
      9  0.108291D+00  0.667859D+00  0.656384D-01  0.389527D+01
     10  0.842014D+00  0.348365D-01 -0.137209D-01 -0.273302D-01  0.820108D+01
     11  0.158524D+01 -0.949452D-02 -0.123233D-01 -0.509160D-01 -0.294542D+01
     12 -0.867089D+01 -0.355868D-01 -0.429559D-01 -0.979122D-02 -0.139402D+01
     13 -0.605530D+00  0.812233D-01  0.138217D-02 -0.131698D+00 -0.590715D-01
     14  0.194361D-01 -0.587862D-02 -0.482334D-01  0.293932D-02 -0.963560D-01
     15 -0.451842D+01 -0.128116D+00 -0.393210D-02  0.777673D-01 -0.911985D-02
     16  0.482271D-03  0.624856D-02  0.666426D-03 -0.540816D-03 -0.373690D+01
     17  0.180893D-02 -0.812845D-02 -0.264180D-02 -0.261788D-02 -0.144044D+01
     18  0.171077D+00 -0.295598D-03 -0.616761D-02 -0.587481D-02 -0.119056D+00
     19  0.499002D-01 -0.617963D-01  0.558195D-01  0.848811D-01  0.165964D+01
     20 -0.180490D-01  0.213277D-01 -0.542384D-02  0.135157D+00  0.134496D+01
     21  0.134837D+00  0.273445D-01  0.100919D+00  0.761765D-01  0.400241D+00
     22  0.176795D-01 -0.833916D-02  0.571740D-02  0.334768D-01  0.129007D+00
     23  0.241830D-02  0.784893D-02 -0.156348D-01 -0.983378D-03 -0.703403D-01
     24  0.297311D-01  0.167165D-01  0.791769D-02  0.252787D-01  0.583387D-02
     25  0.169893D+00  0.566409D+00 -0.272539D+00 -0.593957D-01 -0.904903D-01
     26  0.319569D-01 -0.285088D+00 -0.302178D+00 -0.321503D-01  0.139652D+00
     27  0.310094D+00 -0.601122D-01 -0.453274D-01  0.176479D+00  0.132700D+00
     28  0.460122D-01 -0.102990D-01  0.204890D-01  0.349820D-01 -0.516907D-01
     29  0.106823D+00  0.554253D-01 -0.128092D-01  0.482128D-01  0.191107D-01
     30  0.318151D+00  0.869051D-01  0.434879D-01  0.245083D-01  0.466987D-01
     31  0.174629D-01  0.147930D-01  0.415310D-02  0.196048D-02  0.242292D-02
     32  0.400672D-02  0.694641D-02 -0.731183D-03  0.985262D-03  0.381496D-02
     33 -0.322392D-02  0.586864D-02  0.214524D-02 -0.158575D-02  0.360162D-02
     34  0.661333D+00  0.750252D-01 -0.932227D-02  0.282585D-01 -0.506215D-02
     35 -0.138433D+01 -0.221648D-01  0.432452D-01  0.130337D+00  0.100046D+00
     36 -0.516296D+01  0.426182D-01  0.105999D+00 -0.221424D+00 -0.322210D-01
     37  0.123795D-01  0.449237D-02  0.391143D-02 -0.506232D-02 -0.455060D-01
     38  0.205254D-01  0.116678D-01  0.477231D-02 -0.760086D-02  0.438366D-01
     39  0.754500D-01  0.185907D-03 -0.539625D-03 -0.216305D-02  0.885805D-02
     40  0.168080D-01 -0.276846D-01 -0.207056D-01  0.325864D-01 -0.693819D-03
     41 -0.253842D-01 -0.702195D-02  0.495413D-02 -0.474487D-01  0.340060D-02
     42  0.747693D-01  0.115572D-01 -0.388946D-01  0.359759D-01 -0.806016D-02
     43 -0.174181D-01  0.744319D-04 -0.117885D-03 -0.643585D-05 -0.320613D-01
     44  0.884652D-01  0.144844D-02 -0.709883D-03  0.123629D-02  0.120604D-01
     45  0.685498D-01 -0.833939D-02  0.316329D-03  0.178625D-03 -0.816250D-02
     46 -0.172703D+00 -0.318621D+00  0.357185D+00  0.226669D-01  0.107527D-01
     47  0.126302D+00  0.418849D+00  0.115123D+00 -0.169397D-01 -0.295324D-01
     48 -0.358420D-01 -0.343803D-01  0.170650D-01  0.341076D+00  0.671067D-01
               11            12            13            14            15
     11  0.133422D+02
     12 -0.201302D+01  0.222525D+02
     13 -0.530263D-01 -0.129471D-01  0.119696D+01
     14  0.333803D-01  0.625232D-02  0.148311D+00  0.475022D+01
     15  0.598053D-02  0.608358D-01  0.815242D+00 -0.194749D+00  0.441161D+01
     16 -0.143320D+01 -0.705302D-01 -0.589343D-02 -0.228547D-01  0.615417D-03
     17 -0.212325D+01  0.992978D-01 -0.466096D-02 -0.237601D-01 -0.193213D-02
     18  0.184963D+00 -0.449007D+01 -0.245512D-02 -0.372100D-02  0.983682D-02
     19  0.107614D+01  0.322598D+00  0.169792D+00  0.623439D-01 -0.161246D-01
     20 -0.953241D+01  0.386040D-01  0.105701D+00 -0.217840D-01 -0.117785D-01
     21  0.245409D-01 -0.983747D+01 -0.489115D-02 -0.793180D-02 -0.428471D-01
     22  0.114641D+00  0.384011D-01  0.300036D-01  0.332865D-02 -0.661376D-03
     23  0.158444D+00 -0.190709D-01 -0.111430D-01 -0.532181D-02  0.112485D-02
     24 -0.202115D-02  0.151845D+00  0.926299D-03  0.275436D-03 -0.468404D-02
     25  0.135736D+00  0.136537D+00 -0.936479D-01  0.375652D-01  0.763916D-01
     26  0.783421D-01  0.248993D+00 -0.105526D-01 -0.666306D-01  0.531981D-01
     27  0.272056D+00  0.109448D+00 -0.268259D-01  0.474325D-01  0.118531D+00
     28  0.127875D-01  0.194680D-01 -0.329486D-02 -0.343258D-02 -0.901064D-02
     29 -0.306429D-01  0.500244D-01 -0.712378D-02 -0.807296D-02  0.693193D-02
     30  0.166354D-01  0.207655D-01 -0.280488D-01  0.112890D-01  0.141380D-01
     31  0.404808D-02  0.113583D-01 -0.788567D-02  0.181128D-02  0.477538D-02
     32 -0.936251D-03  0.651524D-02 -0.200951D-02 -0.285501D-03  0.297708D-02
     33  0.518387D-02  0.348456D-02 -0.151434D-02  0.215161D-02  0.466202D-02
     34  0.100484D+00 -0.259083D-01  0.691840D-01  0.101506D+00 -0.247134D-01
     35  0.135617D+00 -0.125145D+00  0.840588D-01  0.206903D-01  0.735753D-02
     36 -0.105260D-01  0.864696D-01 -0.405421D-01  0.199574D-01  0.106996D+00
     37  0.498664D-01  0.520626D-02 -0.453033D-02  0.310478D-01  0.669686D-02
     38  0.192452D+00  0.479091D-01  0.179444D-01 -0.340267D-01 -0.778838D-02
     39  0.485168D-01 -0.459044D-01 -0.508789D-02 -0.167318D-02  0.180645D-01
     40 -0.121843D-01 -0.168866D-02  0.128902D+00 -0.704699D-01 -0.176504D-01
     41 -0.306311D-01  0.887514D-03 -0.818390D-01 -0.680039D-03  0.969586D-02
     42  0.186948D-01 -0.268738D-02 -0.123648D-01  0.588214D-02 -0.331807D-01
     43  0.694662D-02 -0.407473D-02 -0.110677D-01  0.241420D-01 -0.203336D-01
     44  0.328125D-01 -0.345671D-01  0.251510D-01 -0.582073D-02  0.182174D-01
     45 -0.675722D-01  0.138221D-01 -0.103529D-01  0.184473D-01  0.379635D-04
     46 -0.104092D-01  0.607755D-01  0.416395D-01 -0.100927D-01  0.295886D-01
     47 -0.414536D-01 -0.479067D-01 -0.899179D-02  0.259179D-01  0.728322D-01
     48 -0.190481D-01  0.288709D-01  0.396591D-01  0.606987D-01 -0.111446D+00
               16            17            18            19            20
     16  0.379197D+01
     17  0.168436D+01  0.186478D+01
     18  0.704783D-01 -0.227118D+00  0.429201D+01
     19 -0.223448D+00 -0.906391D-01  0.262163D-01  0.360344D+01
     20  0.400681D-02  0.173091D+00 -0.453103D-02  0.213482D+00  0.113287D+02
     21  0.222253D-01 -0.119106D-01  0.489755D-01 -0.861594D+00 -0.645869D+00
     22  0.884605D-01 -0.108750D+00 -0.466498D-02 -0.504161D+01 -0.281722D+01
     23 -0.963065D-01  0.530454D-01  0.237443D-02 -0.234705D+01 -0.263046D+01
     24 -0.723738D-03 -0.593985D-04 -0.268244D-01 -0.731170D-01  0.951674D-01
     25 -0.189027D-01  0.171828D-01  0.672102D-02  0.300810D-01  0.159618D+00
     26 -0.119911D-01  0.447672D-01  0.246801D-01  0.155079D+00  0.290865D-01
     27 -0.895766D-02  0.372971D-01  0.611594D-03  0.150000D+00  0.130118D+00
     28 -0.507788D-02 -0.179134D-02  0.940093D-03 -0.297134D-01  0.343421D-01
     29 -0.406914D-02  0.105934D-01  0.101563D-01  0.337668D-01 -0.168943D-01
     30 -0.570737D-02  0.246769D-01  0.731107D-02  0.292713D-01  0.739377D-01
     31 -0.304698D-02  0.692438D-02  0.178077D-02  0.108928D-01  0.156320D-01
     32 -0.823985D-03  0.234743D-02  0.102794D-02  0.602926D-02  0.161167D-02
     33 -0.288090D-03  0.145344D-02  0.242856D-03  0.566141D-02  0.408756D-02
     34 -0.397402D-01 -0.283529D-01 -0.251167D-02 -0.136939D+00  0.373296D+00
     35 -0.470467D-01  0.165503D+00  0.564727D-03  0.231914D+00  0.260791D+00
     36 -0.389445D-02 -0.497088D-02 -0.429202D-01  0.497954D-01  0.600604D-01
     37 -0.257120D-02  0.632050D-02  0.753610D-03  0.427418D-02  0.443828D-01
     38 -0.601800D-02  0.796474D-02  0.297450D-03  0.374110D-01  0.575059D-01
     39 -0.171910D-02  0.523810D-02 -0.481576D-04  0.736304D-02  0.222596D-01
     40  0.563454D-02 -0.126513D-01 -0.722960D-03 -0.654318D-01 -0.812184D-01
     41 -0.460282D-02  0.660061D-02  0.803106D-03 -0.107890D-01  0.109880D+00
     42 -0.239176D-02  0.414329D-02 -0.163499D-02 -0.268160D-02  0.307519D-01
     43 -0.194837D-02 -0.160682D-02  0.445107D-03 -0.158101D-01  0.384975D-01
     44 -0.393440D-02  0.104085D-01 -0.273234D-02  0.345048D-01  0.482708D-01
     45  0.638998D-02 -0.155087D-01 -0.894679D-03 -0.307197D-01 -0.788235D-01
     46 -0.145044D-01  0.148895D-01  0.155512D-01  0.253041D-01  0.124600D-01
     47  0.585110D-02 -0.137267D-01  0.113454D-01 -0.158581D-01 -0.349354D-01
     48  0.490022D-02  0.335387D-01  0.287836D-01  0.403479D-01  0.990713D-02
               21            22            23            24            25
     21  0.165691D+02
     22 -0.153984D+00  0.488659D+01
     23  0.191288D+00  0.251205D+01  0.245704D+01
     24 -0.667517D+01  0.726546D-02 -0.137960D+00  0.662510D+01
     25  0.128138D+00  0.234002D-01 -0.168663D-01  0.143953D-01  0.101369D+02
     26  0.125554D+00  0.199109D-01 -0.239758D-01  0.747822D-02 -0.494103D+01
     27 -0.503877D-02  0.232468D-01 -0.102133D-01 -0.249826D-02 -0.267130D+01
     28  0.502529D-01  0.205198D-02 -0.279132D-02  0.600106D-02 -0.173716D+01
     29  0.550614D-01  0.559068D-02 -0.892364D-02  0.371576D-02 -0.771911D-01
     30  0.428170D-01  0.159353D-01 -0.133698D-01  0.339416D-02  0.332070D-02
     31  0.136370D-01  0.435113D-02 -0.488684D-02  0.132170D-02  0.128033D-02
     32  0.557848D-02  0.132047D-02 -0.158395D-02  0.411188D-03  0.357975D-01
     33  0.107830D-02  0.848617D-03 -0.399062D-03  0.876750D-04  0.622032D-01
     34  0.362330D-01  0.886538D-01  0.658011D-01 -0.930004D-02 -0.235896D+00
     35  0.454464D-01  0.145378D+00 -0.154170D-01 -0.111218D-01  0.740603D-01
     36 -0.277799D+00 -0.107113D-01 -0.143021D-01 -0.809290D-01  0.263725D+00
     37  0.552937D-02  0.409140D-02 -0.613170D-02 -0.214388D-03 -0.127408D+00
     38  0.772954D-02  0.573054D-02 -0.106962D-01 -0.720642D-04 -0.932202D-01
     39 -0.140323D-01  0.298027D-02 -0.446253D-02 -0.945017D-03  0.123607D+00
     40 -0.110503D-01 -0.375867D-01  0.367025D-01  0.469552D-02  0.560463D-01
     41  0.556995D-03  0.642749D-01  0.542517D-01  0.175030D-01 -0.115394D-01
     42 -0.550680D-01  0.121053D-01  0.110132D-01 -0.416076D-01  0.307007D-01
     43 -0.127420D-01  0.532834D-03 -0.344426D-02  0.423794D-03 -0.116423D-01
     44 -0.236166D-01  0.384071D-02 -0.793845D-02 -0.178758D-03 -0.451251D-02
     45 -0.690963D-02 -0.111647D-01  0.940254D-02  0.707987D-04  0.357066D-01
     46  0.421115D-01  0.100312D-02 -0.586782D-02 -0.182391D-02  0.968482D-01
     47 -0.183370D-01 -0.526482D-02  0.743341D-02 -0.671989D-03 -0.510729D+00
     48  0.142684D-01  0.105092D-04 -0.435492D-02 -0.253939D-02  0.510715D-02
               26            27            28            29            30
     26  0.493979D+01
     27 -0.330441D+01  0.877693D+01
     28 -0.769591D-01 -0.112286D+00  0.404444D+01
     29 -0.170485D+01  0.222959D+00 -0.105013D+01  0.771816D+01
     30  0.245943D+00  0.135718D+01 -0.291505D+00 -0.929278D+00  0.307870D+01
     31  0.391430D-01  0.195024D+00 -0.156458D+01  0.987937D+00 -0.176502D+00
     32 -0.944112D-01  0.649582D-01  0.102461D+01 -0.549892D+01 -0.232202D-01
     33  0.316499D-01  0.357138D-01  0.376504D-01  0.282965D-01 -0.546511D+01
     34  0.248290D-01  0.288088D+00 -0.735520D-01 -0.713230D-02  0.583070D-01
     35 -0.297467D+00  0.138238D+00 -0.159816D-02 -0.854631D-01  0.243576D-01
     36  0.757198D-01  0.380127D+00  0.510487D-01 -0.179878D-01  0.115821D+00
     37 -0.301918D-01  0.839184D-01 -0.148568D-01  0.180848D-02 -0.799682D-02
     38 -0.105434D+00 -0.195455D+00 -0.605959D-03 -0.411996D-02 -0.308781D-01
     39 -0.851541D-01  0.965674D-01  0.487484D-02 -0.877024D-02  0.129451D-01
     40 -0.169801D-02  0.708461D-01  0.237665D-02 -0.324125D-02  0.322441D-01
     41 -0.325269D-01 -0.900265D-02 -0.151079D-02 -0.107888D-01 -0.442482D-02
     42 -0.394651D-02 -0.382375D-02  0.102284D-01 -0.797203D-03  0.601926D-02
     43  0.147522D-02  0.232462D-01 -0.579010D-02 -0.638017D-03  0.424605D-02
     44 -0.216615D-01 -0.934816D-02 -0.114489D-03 -0.572351D-02 -0.164320D-02
     45  0.548696D-02  0.740758D-01  0.985015D-03 -0.288775D-02  0.259339D-01
     46 -0.492532D+00 -0.317840D-02 -0.516210D-01 -0.755310D-02 -0.764393D-02
     47  0.172678D+00 -0.603771D-01  0.139472D-01  0.149831D-01  0.107249D+00
     48 -0.780719D-01  0.131629D+00  0.177566D-01  0.546553D-01  0.262874D-01
               31            32            33            34            35
     31  0.150331D+01
     32 -0.109664D+01  0.560110D+01
     33 -0.140026D+00 -0.852226D-01  0.542146D+01
     34  0.413557D-02  0.147894D-02  0.802438D-02  0.146667D+02
     35  0.941545D-02 -0.461554D-02  0.249048D-02  0.677959D+00  0.122582D+02
     36  0.207537D-01  0.293391D-02  0.888960D-02 -0.862830D+00  0.712984D+00
     37 -0.327857D-02 -0.507684D-03  0.228725D-03 -0.368588D+01  0.104804D+01
     38 -0.699841D-02 -0.205021D-02 -0.235242D-02  0.120533D+01 -0.262217D+01
     39  0.115021D-02 -0.360442D-03  0.101763D-02  0.514133D+00  0.804837D+00
     40  0.768180D-02  0.144921D-02  0.228426D-02 -0.177461D+01 -0.235886D+00
     41 -0.778576D-03 -0.928215D-03 -0.862820D-04 -0.421362D+00 -0.432990D+01
     42  0.948914D-03  0.253287D-04  0.316403D-03 -0.800930D+00  0.672044D-01
     43  0.579798D-03  0.210305D-03  0.512110D-03 -0.415361D+01 -0.563478D-02
     44 -0.482526D-03 -0.625370D-03 -0.504503D-04 -0.385149D-02 -0.412228D+01
     45  0.712577D-02  0.141868D-02  0.170503D-02  0.215426D-01 -0.319412D+00
     46 -0.399263D-02  0.644850D-03  0.837172D-03 -0.121528D-01 -0.732382D-01
     47  0.162064D-01  0.739560D-02  0.633433D-02 -0.808378D-01  0.558071D-01
     48  0.417874D-02  0.474709D-02 -0.413825D-05  0.853596D-01 -0.135330D+00
               36            37            38            39            40
     36  0.143476D+02
     37  0.598414D+00  0.378536D+01
     38  0.106261D+01 -0.118001D+01  0.239659D+01
     39 -0.396824D+01 -0.641930D+00 -0.830985D+00  0.381773D+01
     40 -0.965558D+00 -0.166240D-01 -0.265137D-01  0.199234D-01  0.163997D+01
     41  0.156819D+00 -0.519941D-01  0.473375D-01  0.146621D-01  0.431935D+00
     42 -0.405396D+01 -0.277016D-01 -0.621369D-02  0.603443D-01  0.672329D+00
     43  0.409909D-01  0.434745D-01 -0.924932D-02 -0.430411D-01  0.249554D-01
     44 -0.449193D+00 -0.477589D-02  0.414429D-01 -0.559500D-01 -0.121982D-01
     45 -0.145308D+01 -0.143306D-01 -0.308387D-01 -0.215926D-01  0.130292D+00
     46  0.883212D-01 -0.783664D-02 -0.114936D-01  0.362467D-02  0.466396D-02
     47 -0.154496D+00 -0.151693D-02  0.333596D-01 -0.189569D-01 -0.974936D-02
     48  0.929608D-01  0.183768D-02 -0.240390D-01  0.386992D-02  0.389312D-02
               41            42            43            44            45
     41  0.406672D+01
     42 -0.108791D+00  0.408739D+01
     43  0.338620D-02  0.144708D+00  0.410712D+01
     44  0.109388D+00  0.956083D-02 -0.405040D-01  0.390935D+01
     45 -0.122631D-01 -0.624881D-01 -0.148077D+00  0.534491D+00  0.121735D+01
     46 -0.180220D-02 -0.501171D-03 -0.601469D-04 -0.751370D-03  0.379810D-02
     47  0.179014D-02  0.309328D-03 -0.955216D-03  0.137487D-02 -0.851857D-02
     48 -0.122564D-02 -0.192658D-02 -0.117573D-03  0.525547D-03  0.303729D-02
               46            47            48
     46  0.431572D+01
     47  0.138253D+01  0.159707D+01
     48 -0.407549D+00  0.744888D+00  0.388702D+01
 ReadGW:  IGet=0 IStart=         114 Next=        7255 LGW=        7141.
 ICntrl=12127.
 Symmetry not used in FoFDir.
 MinBra= 0 MaxBra= 2 Meth= 1.
 IRaf=       0 NMat=   1 IRICut=       1 DoRegI=T DoRafI=F ISym2E= 0 JSym2E=0.
 PrsmSu:  NPrtUS=   8 ThrOK=T
 PRISM was handed    16289618 working-precision words and  2400 shell-pairs
 PRISM was handed    16289618 working-precision words and  2400 shell-pairs
 PRISM was handed    16289618 working-precision words and  2400 shell-pairs
 PRISM was handed    16289618 working-precision words and  2400 shell-pairs
 PRISM was handed    16289618 working-precision words and  2400 shell-pairs
 PRISM was handed    16289618 working-precision words and  2400 shell-pairs
 PRISM was handed    16289618 working-precision words and  2400 shell-pairs
 PRISM was handed    16289618 working-precision words and  2400 shell-pairs
 Pruned (  75, 302) grid will be used in CalDFT.
 CkSvGd:  ISavGI=        -1 IRadAn=       4 IRASav=       4 ISavGd=        -1.
 CalDSu:  NPrtUS=   8 ThrOK=T
 IPart= 0 IRanGd=          0 ScrnBf=T ScrnGd=T RCrit=4.00D+00 DoMicB=T.
 IPart= 2 IRanGd=          0 ScrnBf=T ScrnGd=T RCrit=4.00D+00 DoMicB=T.
 CutRad = 1000.00    CtRdIn =    0.00    XCrit =  15.00   ICut = 0
 CutRad = 1000.00    CtRdIn =    0.00    XCrit =  15.00   ICut = 0
 IPart= 4 IRanGd=          0 ScrnBf=T ScrnGd=T RCrit=4.00D+00 DoMicB=T.
 IPart= 6 IRanGd=          0 ScrnBf=T ScrnGd=T RCrit=4.00D+00 DoMicB=T.
 CutRad = 1000.00    CtRdIn =    0.00    XCrit =  15.00   ICut = 0
 CutRad = 1000.00    CtRdIn =    0.00    XCrit =  15.00   ICut = 0
 IPart= 1 IRanGd=          0 ScrnBf=T ScrnGd=T RCrit=4.00D+00 DoMicB=T.
 IPart= 7 IRanGd=          0 ScrnBf=T ScrnGd=T RCrit=4.00D+00 DoMicB=T.
 IPart= 5 IRanGd=          0 ScrnBf=T ScrnGd=T RCrit=4.00D+00 DoMicB=T.
 CutRad = 1000.00    CtRdIn =    0.00    XCrit =  15.00   ICut = 0
 IPart= 3 IRanGd=          0 ScrnBf=T ScrnGd=T RCrit=4.00D+00 DoMicB=T.
 CutRad = 1000.00    CtRdIn =    0.00    XCrit =  15.00   ICut = 0
 CutRad = 1000.00    CtRdIn =    0.00    XCrit =  15.00   ICut = 0
 CutRad = 1000.00    CtRdIn =    0.00    XCrit =  15.00   ICut = 0
 IPart= 5        14358 of        16918 points in      38 batches and      124 microbatches, Max-NSigAt=      16 Max-NSgAt2=      16
 IPart= 1        13284 of        15146 points in      33 batches and      108 microbatches, Max-NSigAt=      16 Max-NSgAt2=      16
 IPart= 4        14387 of        16492 points in      34 batches and       97 microbatches, Max-NSigAt=      16 Max-NSgAt2=      16
 IPart= 3        14289 of        15916 points in      32 batches and       90 microbatches, Max-NSigAt=      16 Max-NSgAt2=      16
 IPart= 7        14334 of        16632 points in      34 batches and       98 microbatches, Max-NSigAt=      16 Max-NSgAt2=      16
 IPart= 6        14846 of        16420 points in      33 batches and       95 microbatches, Max-NSigAt=      16 Max-NSgAt2=      16
 IPart= 2        13913 of        15454 points in      30 batches and       77 microbatches, Max-NSigAt=      16 Max-NSgAt2=      16
 IPart= 0        13162 of        15396 points in      32 batches and       99 microbatches, Max-NSigAt=      16 Max-NSgAt2=      16
 Polarizability after L703:
                1             2             3
      1  0.687997D+02
      2  0.193854D+02  0.797930D+02
      3  0.338726D+02  0.400626D+02  0.127356D+03
 Dipole Derivatives after L703:
               1            2            3            4            5
      1 0.332292D+00-0.289230D+00-0.169205D+00 0.105178D+00 0.522313D-01
      2-0.241851D+00 0.184864D+00-0.291038D+00 0.113699D+00 0.190113D+00
      3-0.388879D+00-0.543682D+00-0.172138D+00 0.150560D+00 0.103956D+00
               6            7            8            9           10
      1 0.299812D+00-0.181136D+00 0.333790D-01 0.349160D-01 0.132877D+01
      2 0.411381D+00 0.508717D-01 0.291557D-01 0.246473D-01 0.825476D+00
      3 0.784778D+00 0.131040D+00 0.404428D-01 0.350653D-01 0.106109D+01
              11           12           13           14           15
      1-0.781341D-01-0.212023D+00-0.553581D-01 0.377539D-01-0.633382D-02
      2 0.742496D-01-0.329047D+00 0.349718D-01 0.387216D-01-0.269294D-01
      3-0.241963D+00-0.730662D+00 0.281164D-01 0.453076D-01-0.110755D-01
              16           17           18           19           20
      1 0.364168D-01 0.587603D-01 0.247381D-01-0.159663D+01-0.408685D-01
      2 0.157926D-01-0.738752D-02 0.628122D-01-0.103470D+01-0.274759D+00
      3 0.567461D-02 0.345676D-01 0.220657D+00-0.138112D+01-0.846210D-02
              21           22           23           24           25
      1 0.475384D-01 0.392223D+00-0.159231D-01 0.103731D-01-0.317863D+00
      2 0.892474D-01 0.674902D-01 0.129787D+00-0.373830D-01 0.488919D-01
      3-0.126626D+00 0.901089D-01-0.155029D+00 0.256226D+00 0.269966D+00
              26           27           28           29           30
      1 0.163577D+00 0.609919D+00-0.214585D+00 0.105544D-01-0.652099D+00
      2-0.209066D+00 0.894345D+00-0.445171D-02-0.457509D+00-0.884922D+00
      3 0.565904D+00 0.979942D+00-0.180563D+00-0.791520D-01-0.153727D+01
              31           32           33           34           35
      1 0.149166D+00-0.296055D-01 0.622534D-01 0.103681D+00-0.900172D-02
      2 0.342431D-01 0.331206D+00 0.502310D-01 0.590989D-02-0.232690D-01
      3 0.202141D+00 0.567268D-01 0.320029D+00 0.534648D-01-0.136904D-01
              36           37           38           39           40
      1-0.398191D-01 0.357802D-01 0.586091D-02-0.430477D-01-0.147262D+00
      2 0.176712D-01-0.752495D-01 0.496890D-01-0.962687D-01 0.229495D-01
      3 0.867306D-01-0.329103D-01 0.456104D-01 0.488472D-01 0.520805D-01
              41           42           43           44           45
      1-0.403181D-01 0.698691D-01 0.650739D-01 0.154794D-01-0.937923D-02
      2 0.413202D-01 0.280498D-02 0.305649D-01 0.319579D-01 0.571786D-01
      3 0.122851D-01 0.225279D-01-0.232429D-01 0.177118D-01-0.142227D+00
              46           47           48
      1-0.357452D-01 0.125485D+00-0.275127D-01
      2 0.105387D+00-0.129075D+00 0.552686D-01
      3-0.375257D-01 0.119466D+00-0.348080D-01
 Hessian after L703:
                1             2             3             4             5
      1  0.570875D+00
      2 -0.132501D-01  0.583831D+00
      3 -0.418645D-01 -0.752918D-01  0.156826D+00
      4 -0.296492D-01  0.236428D-01  0.348598D-01  0.620862D+00
      5  0.234245D-01 -0.108728D-01  0.635771D-01  0.226838D-01  0.536349D+00
      6  0.528141D-01  0.733090D-01  0.948817D-01 -0.518078D-01 -0.395799D-01
      7 -0.258002D+00  0.217139D-01  0.566024D-01 -0.145580D-02 -0.823951D-03
      8  0.132690D-01 -0.559046D-01 -0.160515D-02  0.859270D-03  0.534900D-03
      9  0.615223D-01  0.975945D-02 -0.467246D-01  0.153314D-01 -0.685278D-02
     10  0.481430D-03  0.129688D-02 -0.238793D-01 -0.135167D+00 -0.765332D-01
     11 -0.218911D-01 -0.349761D-01 -0.616244D-01 -0.591866D-01 -0.244389D+00
     12 -0.206047D-01 -0.334741D-01 -0.417947D-01 -0.972706D-02 -0.302284D-01
     13 -0.620432D-03 -0.429338D-03 -0.193583D-03 -0.309017D+00  0.721681D-02
     14  0.131045D-02  0.174038D-02  0.932566D-03  0.919384D-02 -0.537343D-01
     15  0.182468D-01 -0.646099D-02 -0.224569D-01  0.669058D-01  0.439478D-02
     16  0.530520D-04  0.197659D-03 -0.212089D-03  0.103349D-01 -0.126357D-01
     17  0.982541D-03  0.245492D-03  0.136714D-02  0.127775D-01 -0.137907D-01
     18  0.527753D-03  0.971548D-03  0.942686D-03  0.156110D-02 -0.124599D-01
     19 -0.164227D-01 -0.197261D-01  0.222189D-03 -0.315604D-01  0.219326D-02
     20  0.497315D-03  0.141906D-02  0.454032D-02 -0.368808D-01  0.417748D-02
     21  0.361106D-02  0.366360D-02  0.409979D-02 -0.158342D-01 -0.805008D-02
     22 -0.583836D-04  0.410453D-03 -0.784205D-03  0.142520D-02  0.523374D-03
     23 -0.155197D-02 -0.225658D-02 -0.193448D-04 -0.424334D-02  0.168304D-02
     24 -0.310387D-02 -0.147327D-02  0.104748D-02  0.296420D-03  0.198901D-02
     25 -0.146490D+00 -0.112424D+00  0.178529D-01 -0.128987D-01 -0.192526D-01
     26 -0.105801D+00 -0.272833D+00  0.285912D-01 -0.220311D-01 -0.330584D-01
     27  0.116422D-01  0.106223D-01  0.322384D-02 -0.306233D-01 -0.513546D-01
     28  0.976206D-03  0.593904D-03 -0.977659D-02 -0.320615D-03 -0.882489D-03
     29 -0.113144D-02 -0.394251D-02 -0.171029D-01  0.714074D-03  0.735720D-03
     30 -0.391971D-01 -0.581409D-01 -0.670073D-01  0.156730D-01  0.256929D-01
     31 -0.550340D-03 -0.967248D-03  0.618298D-04  0.278352D-03  0.408923D-03
     32 -0.123279D-02 -0.359384D-03  0.676448D-03 -0.116654D-03 -0.270619D-03
     33  0.479460D-03  0.371907D-03 -0.354675D-02 -0.680125D-03 -0.141166D-02
     34  0.808729D-03  0.357758D-02 -0.947130D-03 -0.107529D+00  0.356651D-01
     35  0.299175D-02 -0.102308D-02  0.497485D-02  0.413931D-01 -0.157672D+00
     36 -0.153349D-01  0.183102D-01 -0.258257D-01 -0.919401D-02  0.316677D-01
     37  0.234188D-04 -0.675538D-03  0.607895D-03  0.837092D-02  0.144797D-01
     38 -0.752779D-03 -0.127264D-03 -0.103851D-02 -0.145931D-01 -0.251673D-01
     39  0.286356D-03 -0.723589D-04 -0.510192D-05  0.658694D-02  0.100735D-01
     40 -0.392176D-03  0.147932D-04  0.131444D-02 -0.129662D-01  0.172825D-02
     41  0.755361D-04  0.331642D-03 -0.204446D-02  0.291872D-01  0.166179D-03
     42 -0.158850D-02 -0.154406D-03  0.916133D-03 -0.108912D-01 -0.613664D-03
     43 -0.144613D-02  0.100964D-02 -0.146997D-02 -0.364126D-03  0.130782D-02
     44  0.197705D-02 -0.426216D-02  0.160843D-02 -0.166126D-02 -0.599768D-02
     45 -0.141382D-02  0.186686D-03 -0.548688D-03 -0.735775D-04  0.137677D-02
     46 -0.119585D+00  0.950152D-01 -0.323940D-01 -0.342933D-03  0.496292D-03
     47  0.101083D+00 -0.201011D+00  0.524585D-01 -0.173882D-02  0.130552D-02
     48 -0.260226D-01  0.578731D-01 -0.540284D-01 -0.123832D-01  0.117793D-01
                6             7             8             9            10
      6  0.112219D+00
      7 -0.366327D-02  0.291705D+00
      8  0.483635D-03  0.334717D-02  0.607330D-01
      9 -0.250477D-01 -0.572346D-01  0.277415D-02  0.587550D-01
     10 -0.622820D-02 -0.326571D-02 -0.402869D-03  0.724285D-02  0.641832D+00
     11  0.843080D-02  0.157400D-02  0.424876D-03  0.458233D-02 -0.265680D-01
     12 -0.258194D-01  0.383255D-03  0.830774D-04 -0.760397D-05  0.320395D-01
     13  0.595707D-01  0.511805D-03 -0.343277D-03 -0.140785D-03 -0.168490D-01
     14 -0.212325D-02 -0.152581D-03  0.172323D-03 -0.148256D-03 -0.287224D-01
     15 -0.390684D-01 -0.386216D-03 -0.306347D-03 -0.352984D-02 -0.143621D-01
     16  0.851424D-03 -0.771707D-04 -0.780608D-05 -0.251565D-04 -0.109850D+00
     17  0.287824D-02 -0.269662D-03 -0.217390D-04  0.280919D-04  0.119568D+00
     18  0.390227D-02  0.976885D-05 -0.632306D-04 -0.240222D-04  0.110112D-02
     19  0.771706D-02  0.571861D-02  0.184998D-02 -0.127157D-02 -0.350844D+00
     20 -0.388520D-03  0.130145D-03 -0.278665D-03  0.560662D-03 -0.485338D-02
     21  0.243468D-02 -0.297038D-03  0.281910D-03  0.183498D-02 -0.123237D-02
     22 -0.637016D-03  0.310760D-04 -0.182610D-03 -0.318207D-03 -0.323417D-01
     23  0.808409D-04  0.447890D-03  0.520329D-03 -0.106102D-04  0.417063D-02
     24 -0.153977D-02  0.902024D-03 -0.666569D-04 -0.965151D-03  0.502746D-03
     25 -0.443444D-01 -0.243165D-01 -0.422086D-01 -0.150925D-01  0.147168D-02
     26 -0.788928D-01 -0.285864D-01 -0.675326D-02 -0.126930D-01  0.224982D-02
     27 -0.997268D-01 -0.850699D-02  0.242172D-02 -0.823403D-03 -0.105955D-01
     28  0.251661D-03  0.113818D-02  0.100851D-02 -0.336585D-03  0.108562D-02
     29  0.406054D-02  0.477290D-03  0.306801D-03  0.114913D-02  0.558920D-03
     30  0.625252D-01  0.573010D-02  0.145727D-02  0.727935D-02  0.125685D-01
     31 -0.452734D-03  0.517846D-03  0.263094D-03 -0.209669D-03 -0.177941D-02
     32 -0.101196D-02  0.380142D-03 -0.115871D-03 -0.252326D-03 -0.508668D-03
     33 -0.192327D-02  0.548248D-03  0.451436D-03 -0.117761D-04 -0.776396D-03
     34 -0.128113D-01  0.319613D-03 -0.114638D-02  0.126811D-02  0.122864D-01
     35  0.276946D-01 -0.708487D-04  0.316834D-04 -0.463894D-03  0.460442D-02
     36 -0.660234D-01 -0.292312D-03  0.531453D-03  0.263899D-02  0.123014D-02
     37  0.545213D-02  0.988553D-04 -0.109455D-03 -0.157266D-03 -0.267305D-02
     38 -0.101663D-01 -0.766182D-05 -0.112125D-03  0.197961D-03  0.321435D-02
     39  0.457561D-02 -0.775579D-04 -0.504865D-05 -0.196836D-03  0.540843D-03
     40  0.309773D-02  0.579992D-03  0.134728D-03 -0.955525D-03 -0.369475D-02
     41 -0.903421D-02 -0.724224D-03  0.178641D-03  0.348269D-03  0.182687D-02
     42  0.186656D-02  0.503553D-03  0.856738D-04  0.121027D-03  0.212150D-02
     43 -0.128882D-01  0.323706D-03  0.123690D-03 -0.272621D-03  0.467671D-05
     44  0.266949D-01  0.154381D-04 -0.450976D-04 -0.449794D-03  0.246240D-02
     45 -0.600611D-02 -0.121109D-05 -0.123804D-03  0.430388D-03 -0.113955D-02
     46  0.307808D-02 -0.138267D-01  0.235455D-01 -0.935021D-02 -0.696689D-03
     47 -0.243558D-02  0.254944D-02  0.328773D-03  0.147059D-02 -0.236413D-02
     48 -0.172504D-01  0.577982D-02 -0.640007D-02  0.627123D-02  0.866333D-03
               11            12            13            14            15
     11  0.678248D+00
     12  0.601054D-01  0.127284D+00
     13  0.177078D-02  0.294754D-02  0.330303D+00
     14  0.490195D-02  0.705093D-02 -0.749692D-02  0.576403D-01
     15 -0.500890D-02 -0.341867D-02 -0.621881D-01  0.172949D-02  0.589617D-01
     16  0.108769D+00  0.193249D-02  0.817636D-03  0.401414D-03  0.495027D-03
     17 -0.285601D+00 -0.145298D-01 -0.284378D-03  0.427675D-03  0.368478D-03
     18 -0.243543D-02 -0.287310D-01 -0.695396D-03  0.268851D-03 -0.168614D-02
     19 -0.587221D-01 -0.203164D-01  0.117683D-02 -0.358641D-02 -0.228663D-02
     20 -0.116187D+00 -0.108971D-01 -0.306448D-02 -0.506942D-02 -0.306018D-02
     21 -0.376961D-02 -0.281587D-01 -0.292352D-05 -0.276055D-02  0.419093D-02
     22  0.464304D-01  0.280275D-02  0.702341D-03  0.566479D-03  0.387346D-03
     23  0.432718D-02 -0.132446D-03  0.210103D-03 -0.855318D-03  0.305161D-04
     24 -0.472971D-03 -0.154762D-03  0.240563D-03  0.300992D-03 -0.153313D-03
     25  0.171571D-01  0.681168D-02  0.153023D-02  0.157545D-03  0.337708D-02
     26  0.284346D-01  0.117515D-01 -0.390083D-04 -0.104070D-02  0.660299D-02
     27  0.391776D-01  0.205894D-01 -0.149571D-02 -0.173879D-02  0.891748D-02
     28 -0.179872D-03 -0.876060D-03 -0.573131D-04 -0.130603D-03 -0.492157D-03
     29 -0.119502D-02 -0.136438D-02  0.745532D-04  0.363938D-04 -0.385611D-03
     30 -0.307881D-01 -0.207378D-01  0.387459D-03  0.134993D-02 -0.554608D-02
     31  0.129462D-03  0.114692D-02 -0.104434D-04 -0.105294D-03 -0.326832D-04
     32  0.354908D-03  0.568087D-03  0.240482D-05 -0.351679D-04 -0.268561D-04
     33  0.935326D-03  0.728486D-03  0.559610D-04 -0.118895D-03 -0.305515D-04
     34 -0.814752D-02  0.542881D-02 -0.102724D-01  0.271102D-01 -0.939115D-02
     35 -0.347855D-01  0.762477D-02  0.100406D-02 -0.113017D-02  0.517586D-03
     36 -0.132768D-01  0.182703D-03  0.267825D-02 -0.692601D-02  0.191344D-02
     37  0.167628D-02 -0.163867D-02  0.612367D-03 -0.218679D-03  0.566912D-03
     38 -0.333334D-02  0.203244D-02  0.149134D-05  0.100152D-02 -0.216379D-03
     39  0.120465D-03 -0.144391D-02 -0.161919D-04 -0.543368D-03  0.931911D-04
     40 -0.131812D-02 -0.900542D-03  0.362311D-03  0.261895D-02 -0.643555D-03
     41  0.369710D-03 -0.576727D-03  0.159072D-02 -0.484416D-02  0.157827D-02
     42 -0.348145D-03  0.532055D-03 -0.111643D-02  0.211867D-02 -0.742151D-04
     43 -0.122663D-02  0.221573D-03  0.998374D-04 -0.511863D-03 -0.959505D-04
     44  0.170923D-02  0.161168D-02  0.159933D-04  0.902942D-03 -0.406509D-03
     45 -0.148693D-02  0.934259D-03 -0.356734D-03  0.224498D-03  0.110710D-03
     46 -0.267458D-03  0.348975D-03  0.710716D-03 -0.434139D-03 -0.100401D-03
     47  0.169666D-02  0.375040D-03 -0.229508D-03 -0.114260D-03  0.649674D-03
     48  0.585924D-02  0.156858D-04  0.325369D-03  0.383192D-03  0.177660D-02
               16            17            18            19            20
     16  0.133611D+00
     17 -0.125584D+00  0.291055D+00
     18 -0.795340D-03  0.126984D-01  0.178341D-01
     19 -0.284292D-01 -0.163044D-02  0.817595D-04  0.528187D+00
     20  0.330882D-01  0.800096D-02  0.935842D-03 -0.131102D+00  0.525458D+00
     21  0.335555D-03  0.755820D-03 -0.624538D-03  0.114190D-01  0.274035D-01
     22 -0.569597D-02 -0.240964D-02 -0.394452D-03 -0.121824D+00  0.146356D+00
     23 -0.112854D-02  0.198606D-02 -0.638560D-03  0.190665D+00 -0.417079D+00
     24 -0.498240D-03 -0.766050D-04  0.546171D-02  0.557607D-02 -0.164555D-01
     25 -0.859835D-04 -0.522708D-03  0.639432D-03  0.768069D-02 -0.904182D-03
     26 -0.119565D-03 -0.226129D-03  0.397695D-03  0.123949D-01 -0.121932D-02
     27 -0.529266D-03 -0.213363D-02 -0.229457D-03  0.278286D-01 -0.457163D-02
     28 -0.637960D-04 -0.286600D-04  0.305672D-04 -0.991909D-03 -0.477881D-04
     29  0.218694D-04  0.996498D-04  0.153226D-03 -0.165720D-02  0.683537D-04
     30  0.493194D-03  0.166169D-02  0.939793D-03 -0.290491D-01  0.273007D-02
     31 -0.126708D-04 -0.619006D-04 -0.162025D-03  0.226827D-02  0.484547D-04
     32 -0.202525D-04 -0.598903D-04 -0.894311D-04  0.901004D-03 -0.243739D-04
     33 -0.445991D-04 -0.957414D-04 -0.726201D-04  0.135006D-02 -0.667425D-04
     34 -0.132438D-02 -0.313475D-02 -0.230504D-02  0.498025D-03  0.251040D-05
     35 -0.189862D-02 -0.134407D-02  0.507788D-03  0.730913D-02  0.651293D-04
     36 -0.194992D-02 -0.303475D-02  0.179259D-02  0.262972D-02 -0.185992D-02
     37  0.419209D-03  0.745321D-03  0.366749D-03  0.657564D-03 -0.724993D-03
     38 -0.870834D-03 -0.120189D-02 -0.140112D-03  0.171035D-02  0.430638D-03
     39  0.185560D-03  0.522756D-03  0.662337D-03 -0.227422D-02  0.113045D-02
     40  0.283912D-03  0.200404D-03  0.176311D-03  0.306782D-02 -0.234121D-02
     41 -0.169211D-03  0.842778D-05  0.301321D-03 -0.229970D-02 -0.716073D-04
     42 -0.121667D-03 -0.234581D-04 -0.399865D-04 -0.130982D-02  0.473662D-03
     43 -0.104359D-03 -0.622499D-04  0.234098D-03  0.151856D-03  0.147492D-03
     44  0.177721D-03  0.219853D-03 -0.464193D-03 -0.164737D-02  0.254943D-03
     45  0.712158D-04  0.123440D-03 -0.487536D-04  0.109040D-02  0.464741D-03
     46  0.124260D-03 -0.286183D-03 -0.376412D-03  0.665290D-03 -0.350437D-03
     47 -0.222090D-03  0.202259D-03  0.562106D-04  0.334778D-02  0.544635D-04
     48 -0.188188D-03 -0.510090D-03 -0.789188D-04 -0.140717D-02 -0.939716D-03
               21            22            23            24            25
     21  0.288516D-01
     22  0.417317D-02  0.156211D+00
     23 -0.147779D-01 -0.190022D+00  0.410301D+00
     24 -0.125030D-01 -0.606416D-02  0.152666D-01  0.102054D-01
     25 -0.214394D-02  0.105763D-03  0.575093D-03  0.113801D-02  0.167126D+00
     26 -0.508576D-03 -0.166749D-03  0.824095D-03  0.741498D-03  0.167405D+00
     27 -0.903703D-03 -0.262762D-03  0.339547D-02 -0.553497D-04  0.965821D-02
     28  0.347838D-03  0.114917D-03 -0.692451D-04 -0.389238D-04 -0.136211D-01
     29  0.330668D-04  0.992216D-04 -0.260536D-03 -0.320715D-05 -0.584216D-02
     30  0.237763D-02  0.793547D-03 -0.337554D-02 -0.660738D-03  0.361696D-01
     31 -0.254908D-03 -0.172738D-03  0.232628D-03  0.847928D-04  0.103736D-02
     32 -0.580524D-04 -0.616534D-04  0.124228D-03  0.000000D+00  0.718706D-03
[...]
    Z6        4.06997   0.00000   0.00000  -0.00155  -0.00160   4.06837
    X7        3.84858   0.00001   0.00000  -0.00053  -0.00067   3.84791
    Y7        2.45472  -0.00001   0.00000   0.00047   0.00057   2.45529
    Z7        4.08049   0.00000   0.00000   0.00072   0.00062   4.08111
    X8        4.66704   0.00000   0.00000  -0.00028  -0.00031   4.66672
    Y8        0.82232  -0.00001   0.00000   0.00055   0.00070   0.82302
    Z8        4.01617   0.00000   0.00000   0.00182   0.00170   4.01787
    X9       -1.18683   0.00000   0.00000   0.00200   0.00210  -1.18473
    Y9       -2.22711   0.00000   0.00000  -0.00153  -0.00175  -2.22886
    Z9       -0.56660   0.00000   0.00000  -0.00029  -0.00032  -0.56692
   X10       -1.18000  -0.00002   0.00000  -0.00215  -0.00209  -1.18209
   Y10       -2.40859   0.00001   0.00000   0.00099   0.00076  -2.40782
   Z10       -4.11036   0.00000   0.00000  -0.00032  -0.00035  -4.11071
   X11       -2.95332   0.00002   0.00000  -0.00288  -0.00279  -2.95611
   Y11       -2.85305   0.00001   0.00000   0.00426   0.00392  -2.84913
   Z11       -4.05058   0.00000   0.00000   0.00126   0.00125  -4.04932
   X12        1.34334   0.00000   0.00000   0.00018   0.00037   1.34371
   Y12       -2.61318   0.00000   0.00000   0.00010   0.00004  -2.61314
   Z12        4.14352   0.00000   0.00000   0.00058   0.00051   4.14403
   X13        0.31262  -0.00001   0.00000   0.00032   0.00060   0.31322
   Y13       -4.18376   0.00000   0.00000  -0.00021  -0.00033  -4.18410
   Z13        3.30330   0.00000   0.00000   0.00096   0.00090   3.30421
   X14        3.29651   0.00000   0.00000   0.00024   0.00043   3.29695
   Y14       -2.77878  -0.00001   0.00000  -0.00005   0.00001  -2.77877
   Z14        3.47021   0.00000   0.00000   0.00083   0.00073   3.47094
   X15        1.34124  -0.00001   0.00000  -0.00009   0.00014   1.34138
   Y15       -2.80685   0.00000   0.00000   0.00072   0.00065  -2.80619
   Z15        6.19999   0.00000   0.00000   0.00064   0.00057   6.20056
   X16       -0.90223   0.00001   0.00000   0.00097   0.00083  -0.90141
   Y16        1.63636   0.00001   0.00000  -0.00147  -0.00167   1.63469
   Z16       -0.52298   0.00000   0.00000  -0.00117  -0.00121  -0.52419
         Item               Value     Threshold  Converged?
 Maximum Force            0.000019     0.000450     YES
 RMS     Force            0.000006     0.000300     YES
 Maximum Displacement     0.003923     0.001800     NO 
 RMS     Displacement     0.001142     0.001200     YES
 Predicted change in Energy=-1.040382D-08
 GradGradGradGradGradGradGradGradGradGradGradGradGradGradGradGradGradGrad


 Test job not archived.
 1\1\GINC-NODE46\Freq\UB3LYP\CBSB7\C4H9O3(2)\NYEE\29-Jul-2014\0\\# freq
  nosymm b3lyp/cbsb7 iop(7/33=1)\\Title Card Required\\0,2\C,0.014569,-
 0.078653,-0.000039\C,0.059901,-0.072332,1.762868\H,1.087475,-0.053203,
 -0.256358\C,0.706683,1.142753,2.125017\H,-0.999035,-0.033761,2.010628\
 H,0.18971,2.094228,2.153737\O,2.03658,1.298981,2.159301\H,2.469689,0.4
 35152,2.125265\O,-0.628044,-1.178535,-0.299832\O,-0.624431,-1.274569,-
 2.175108\H,-1.562831,-1.509771,-2.143472\C,0.710867,-1.382835,2.192657
 \H,0.165434,-2.213953,1.748033\H,1.744439,-1.470467,1.836355\H,0.70975
 3,-1.48532,3.280895\H,-0.47744,0.865927,-0.276751\\Version=AM64L-G03Re
 vD.01\HF=-383.4365334\S2=0.858851\S2-1=0.\S2A=0.750851\RMSD=8.373e-09\
 RMSF=5.525e-06\ZeroPoint=0.126918\Thermal=0.1364978\Dipole=0.2481207,0
 .5959645,1.5811322\DipoleDeriv=0.3322918,-0.2418508,-0.3888789,-0.2892
 305,0.1848642,-0.5436821,-0.1692054,-0.2910383,-0.1721381,0.1051775,0.
 1136993,0.1505603,0.0522313,0.1901133,0.1039556,0.2998124,0.4113813,0.
 7847779,-0.1811361,0.0508717,0.1310397,0.033379,0.0291557,0.0404428,0.
 034916,0.0246473,0.0350653,1.3287691,0.8254759,1.0610911,-0.0781341,0.
 0742496,-0.2419625,-0.2120229,-0.3290467,-0.7306625,-0.0553581,0.03497
 18,0.0281164,0.0377539,0.0387216,0.0453076,-0.0063338,-0.0269294,-0.01
 10755,0.0364168,0.0157926,0.0056746,0.0587603,-0.0073875,0.0345676,0.0
 247381,0.0628122,0.2206571,-1.5966293,-1.034696,-1.3811233,-0.0408685,
 -0.2747586,-0.0084621,0.0475384,0.0892474,-0.1266259,0.3922233,0.06749
 02,0.0901089,-0.0159231,0.1297867,-0.155029,0.0103731,-0.037383,0.2562
 263,-0.3178632,0.0488919,0.2699663,0.1635775,-0.2090656,0.565904,0.609
 919,0.8943455,0.9799415,-0.214585,-0.0044517,-0.180563,0.0105544,-0.45
 75088,-0.079152,-0.6520987,-0.8849219,-1.5372652,0.1491661,0.0342431,0
 .2021415,-0.0296055,0.3312058,0.0567268,0.0622534,0.050231,0.3200285,0
 .1036806,0.0059099,0.0534648,-0.0090017,-0.023269,-0.0136904,-0.039819
 1,0.0176712,0.0867306,0.0357802,-0.0752495,-0.0329103,0.0058609,0.0496
 89,0.0456104,-0.0430477,-0.0962687,0.0488472,-0.1472624,0.0229495,0.05
 20805,-0.0403181,0.0413202,0.0122851,0.0698691,0.002805,0.0225279,0.06
 50739,0.0305649,-0.0232429,0.0154794,0.0319579,0.0177118,-0.0093792,0.
 0571786,-0.1422273,-0.0357452,0.1053872,-0.0375257,0.1254848,-0.129074
 6,0.1194665,-0.0275127,0.0552686,-0.034808\Polar=68.7996522,19.3854025
 ,79.7929955,33.872645,40.0626031,127.3561927\PG=C01 [X(C4H9O3)]\NImag=
 1\\0.57087462,-0.01325012,0.58383122,-0.04186449,-0.07529175,0.1568264
 4,-0.02964916,0.02364279,0.03485982,0.62086186,0.02342454,-0.01087282,
 0.06357705,0.02268378,0.53634910,0.05281410,0.07330897,0.09488169,-0.0
 5180781,-0.03957990,0.11221917,-0.25800244,0.02171386,0.05660239,-0.00
 145580,-0.00082395,-0.00366327,0.29170469,0.01326904,-0.05590459,-0.00
 160515,0.00085927,0.00053490,0.00048364,0.00334717,0.06073302,0.061522
 27,0.00975945,-0.04672464,0.01533141,-0.00685278,-0.02504768,-0.057234
 56,0.00277415,0.05875501,0.00048143,0.00129688,-0.02387934,-0.13516733
 ,-0.07653319,-0.00622820,-0.00326571,-0.00040287,0.00724285,0.64183188
 ,-0.02189109,-0.03497612,-0.06162437,-0.05918660,-0.24438857,0.0084308
 0,0.00157400,0.00042488,0.00458233,-0.02656804,0.67824762,-0.02060469,
 -0.03347413,-0.04179466,-0.00972706,-0.03022843,-0.02581938,0.00038325
 ,0.00008308,-0.00000760,0.03203948,0.06010539,0.12728390,-0.00062043,-
 0.00042934,-0.00019358,-0.30901728,0.00721681,0.05957074,0.00051180,-0
 .00034328,-0.00014078,-0.01684904,0.00177078,0.00294754,0.33030285,0.0
 0131045,0.00174038,0.00093257,0.00919384,-0.05373433,-0.00212325,-0.00
 015258,0.00017232,-0.00014826,-0.02872240,0.00490195,0.00705093,-0.007
 49692,0.05764034,0.01824682,-0.00646099,-0.02245686,0.06690577,0.00439
 478,-0.03906838,-0.00038622,-0.00030635,-0.00352984,-0.01436209,-0.005
 00890,-0.00341867,-0.06218813,0.00172949,0.05896170,0.00005305,0.00019
 766,-0.00021209,0.01033489,-0.01263568,0.00085142,-0.00007717,-0.00000
 781,-0.00002516,-0.10985022,0.10876936,0.00193249,0.00081764,0.0004014
 1,0.00049503,0.13361076,0.00098254,0.00024549,0.00136714,0.01277751,-0
 .01379071,0.00287824,-0.00026966,-0.00002174,0.00002809,0.11956839,-0.
 28560133,-0.01452976,-0.00028438,0.00042767,0.00036848,-0.12558360,0.2
 9105538,0.00052775,0.00097155,0.00094269,0.00156110,-0.01245991,0.0039
 0227,0.00000977,-0.00006323,-0.00002402,0.00110112,-0.00243543,-0.0287
 3099,-0.00069540,0.00026885,-0.00168614,-0.00079534,0.01269838,0.01783
 405,-0.01642272,-0.01972608,0.00022219,-0.03156040,0.00219326,0.007717
 06,0.00571861,0.00184998,-0.00127157,-0.35084376,-0.05872209,-0.020316
 43,0.00117683,-0.00358641,-0.00228663,-0.02842916,-0.00163044,0.000081
 76,0.52818733,0.00049732,0.00141906,0.00454032,-0.03688076,0.00417748,
 -0.00038852,0.00013014,-0.00027867,0.00056066,-0.00485338,-0.11618688,
 -0.01089708,-0.00306448,-0.00506942,-0.00306018,0.03308819,0.00800096,
 0.00093584,-0.13110241,0.52545835,0.00361106,0.00366360,0.00409979,-0.
 01583423,-0.00805008,0.00243468,-0.00029704,0.00028191,0.00183498,-0.0
 0123237,-0.00376961,-0.02815865,-0.00000292,-0.00276055,0.00419093,0.0
 0033555,0.00075582,-0.00062454,0.01141902,0.02740350,0.02885159,-0.000
 05838,0.00041045,-0.00078421,0.00142520,0.00052337,-0.00063702,0.00003
 108,-0.00018261,-0.00031821,-0.03234170,0.04643042,0.00280275,0.000702
 34,0.00056648,0.00038735,-0.00569597,-0.00240964,-0.00039445,-0.121824
 34,0.14635553,0.00417317,0.15621087,-0.00155197,-0.00225658,-0.0000193
 4,-0.00424334,0.00168304,0.00008084,0.00044789,0.00052033,-0.00001061,
 0.00417063,0.00432718,-0.00013245,0.00021010,-0.00085532,0.00003052,-0
 .00112854,0.00198606,-0.00063856,0.19066527,-0.41707912,-0.01477788,-0
 .19002191,0.41030116,-0.00310387,-0.00147327,0.00104748,0.00029642,0.0
 0198901,-0.00153977,0.00090202,-0.00006666,-0.00096515,0.00050275,-0.0
 0047297,-0.00015476,0.00024056,0.00030099,-0.00015331,-0.00049824,-0.0
 0007660,0.00546171,0.00557607,-0.01645545,-0.01250302,-0.00606416,0.01
 526661,0.01020535,-0.14649046,-0.11242441,0.01785286,-0.01289868,-0.01
 925255,-0.04434435,-0.02431652,-0.04220863,-0.01509249,0.00147168,0.01
 715713,0.00681168,0.00153023,0.00015754,0.00337708,-0.00008598,-0.0005
 2271,0.00063943,0.00768069,-0.00090418,-0.00214394,0.00010576,0.000575
 09,0.00113801,0.16712637,-0.10580078,-0.27283263,0.02859120,-0.0220310
 5,-0.03305842,-0.07889279,-0.02858644,-0.00675326,-0.01269298,0.002249
 82,0.02843463,0.01175154,-0.00003901,-0.00104070,0.00660299,-0.0001195
 7,-0.00022613,0.00039770,0.01239492,-0.00121932,-0.00050858,-0.0001667
 5,0.00082410,0.00074150,0.16740533,0.34062910,0.01164216,0.01062235,0.
 00322384,-0.03062334,-0.05135462,-0.09972680,-0.00850699,0.00242172,-0
 .00082340,-0.01059554,0.03917763,0.02058938,-0.00149571,-0.00173879,0.
 00891748,-0.00052927,-0.00213363,-0.00022946,0.02782864,-0.00457163,-0
 .00090370,-0.00026276,0.00339547,-0.00005535,0.00965821,0.00329969,0.0
 2787525,0.00097621,0.00059390,-0.00977659,-0.00032061,-0.00088249,0.00
 025166,0.00113818,0.00100851,-0.00033659,0.00108562,-0.00017987,-0.000
 87606,-0.00005731,-0.00013060,-0.00049216,-0.00006380,-0.00002866,0.00
 003057,-0.00099191,-0.00004779,0.00034784,0.00011492,-0.00006925,-0.00
 003892,-0.01362108,-0.00666345,-0.00248410,0.49722992,-0.00113144,-0.0
 0394251,-0.01710292,0.00071407,0.00073572,0.00406054,0.00047729,0.0003
 0680,0.00114913,0.00055892,-0.00119502,-0.00136438,0.00007455,0.000036
 39,-0.00038561,0.00002187,0.00009965,0.00015323,-0.00165720,0.00006835
 ,0.00003307,0.00009922,-0.00026054,-0.00000321,-0.00584216,-0.00701465
 ,0.00850860,0.12801600,0.03912339,-0.03919709,-0.05814087,-0.06700733,
 0.01567303,0.02569289,0.06252518,0.00573010,0.00145727,0.00727935,0.01
 256847,-0.03078808,-0.02073784,0.00038746,0.00134993,-0.00554608,0.000
 49319,0.00166169,0.00093979,-0.02904907,0.00273007,0.00237763,0.000793
 55,-0.00337554,-0.00066074,0.03616961,0.05261439,0.04402549,-0.0208350
 1,-0.00386698,-0.01018651,-0.00055034,-0.00096725,0.00006183,0.0002783
 5,0.00040892,-0.00045273,0.00051785,0.00026309,-0.00020967,-0.00177941
 ,0.00012946,0.00114692,-0.00001044,-0.00010529,-0.00003268,-0.00001267
 ,-0.00006190,-0.00016203,0.00226827,0.00004845,-0.00025491,-0.00017274
 ,0.00023263,0.00008479,0.00103736,0.00018101,0.00327349,-0.48506567,-0
 .12142843,0.01624436,0.48369068,-0.00123279,-0.00035938,0.00067645,-0.
 00011665,-0.00027062,-0.00101196,0.00038014,-0.00011587,-0.00025233,-0
 .00050867,0.00035491,0.00056809,0.00000240,-0.00003517,-0.00002686,-0.
 00002025,-0.00005989,-0.00008943,0.00090100,-0.00002437,-0.00005805,-0
 .00006165,0.00012423,0.00000080,0.00071871,0.00054217,0.00042597,-0.12
 077523,-0.03093887,0.00343835,0.12095840,0.03117692,0.00047946,0.00037
 191,-0.00354675,-0.00068012,-0.00141166,-0.00192327,0.00054825,0.00045
 144,-0.00001178,-0.00077640,0.00093533,0.00072849,0.00005596,-0.000118
 89,-0.00003055,-0.00004460,-0.00009574,-0.00007262,0.00135006,-0.00006
 674,-0.00010647,-0.00009261,0.00012825,-0.00003750,-0.01447335,-0.0060
 4589,-0.00958561,0.03345569,0.00961576,-0.01108428,-0.01971115,-0.0037
 8184,0.02534522,0.00080873,0.00357758,-0.00094713,-0.10752873,0.035665
 13,-0.01281133,0.00031961,-0.00114638,0.00126811,0.01228637,-0.0081475
 2,0.00542881,-0.01027243,0.02711020,-0.00939115,-0.00132438,-0.0031347
 5,-0.00230504,0.00049802,0.00000251,0.00110308,0.00002406,-0.00291484,
 -0.00085490,-0.00044627,-0.00065564,-0.00289184,0.00013247,0.00004761,
 0.00228565,-0.00022027,-0.00004809,-0.00009223,0.53750109,0.00299175,-
 0.00102308,0.00497485,0.04139312,-0.15767153,0.02769459,-0.00007085,0.
 00003168,-0.00046389,0.00460442,-0.03478552,0.00762477,0.00100406,-0.0
 0113017,0.00051759,-0.00189862,-0.00134407,0.00050779,0.00730913,0.000
 06513,-0.00189279,-0.00031213,0.00324512,0.00008047,-0.00051925,-0.000
 15968,0.00039351,-0.00012194,-0.00023851,0.00013966,0.00004097,0.00009
 543,-0.00014859,0.03910202,0.49110098,-0.01533489,0.01831015,-0.025825
 66,-0.00919401,0.03166773,-0.06602340,-0.00029231,0.00053145,0.0026389
 9,0.00123014,-0.01327675,0.00018270,0.00267825,-0.00692601,0.00191344,
 -0.00194992,-0.00303475,0.00179259,0.00262972,-0.00185992,-0.00134670,
 0.00082536,0.00282896,0.00009477,0.00151366,0.00812249,0.00193340,-0.0
 0004220,-0.00064086,-0.00250319,-0.00005677,0.00012225,0.00009471,-0.0
 0561353,0.03196854,0.56336134,0.00002342,-0.00067554,0.00060790,0.0083
 7092,0.01447970,0.00545213,0.00009886,-0.00010945,-0.00015727,-0.00267
 305,0.00167628,-0.00163867,0.00061237,-0.00021868,0.00056691,0.0004192
 1,0.00074532,0.00036675,0.00065756,-0.00072499,0.00019199,0.00046653,0
 .00126770,-0.00009613,-0.00066138,0.00062186,-0.00000659,-0.00012551,-
 0.00002020,-0.00073265,-0.00000883,-0.00001029,-0.00002501,-0.11648457
 ,-0.10873467,-0.05565212,0.12576534,-0.00075278,-0.00012726,-0.0010385
 1,-0.01459307,-0.02516726,-0.01016626,-0.00000766,-0.00011213,0.000197
 96,0.00321435,-0.00333334,0.00203244,0.00000149,0.00100152,-0.00021638
 ,-0.00087083,-0.00120189,-0.00014011,0.00171035,0.00043064,-0.00033542
 ,0.00011150,0.00018064,0.00017945,-0.00007175,0.00075416,-0.00347512,-
 0.00002167,0.00026980,0.00194380,-0.00003935,0.00000067,-0.00001181,-0
 .10561301,-0.20217553,-0.08358945,0.11244402,0.22313926,0.00028636,-0.
 00007236,-0.00000510,0.00658694,0.01007354,0.00457561,-0.00007756,-0.0
 0000505,-0.00019684,0.00054084,0.00012046,-0.00144391,-0.00001619,-0.0
 0054337,0.00009319,0.00018556,0.00052276,0.00066234,-0.00227422,0.0011
 3045,0.00049577,-0.00027769,-0.00134546,-0.00056480,-0.00039404,0.0006
 0336,0.00079894,0.00010622,-0.00032696,-0.00244904,-0.00005052,0.00004
 290,0.00002956,-0.05735168,-0.08734887,-0.09094352,0.06215721,0.091495
 15,0.09567655,-0.00039218,0.00001479,0.00131444,-0.01296617,0.00172825
 ,0.00309773,0.00057999,0.00013473,-0.00095553,-0.00369475,-0.00131812,
 -0.00090054,0.00036231,0.00261895,-0.00064356,0.00028391,0.00020040,0.
 00017631,0.00306782,-0.00234121,-0.00022328,0.00096598,0.00198419,0.00
 049627,0.00037021,0.00000482,-0.00077810,0.00000591,-0.00001082,0.0001
 8264,0.00002955,0.00000353,-0.00001181,-0.26742878,0.01538536,0.077314
 82,-0.01689332,0.00134439,0.00698522,0.29458417,0.00007554,0.00033164,
 -0.00204446,0.02918717,0.00016618,-0.00903421,-0.00072422,0.00017864,0
 .00034827,0.00182687,0.00036971,-0.00057673,0.00159072,-0.00484416,0.0
 0157827,-0.00016921,0.00000843,0.00030132,-0.00229970,-0.00007161,0.00
 018920,-0.00095519,-0.00278534,-0.00071931,0.00015518,-0.00001823,0.00
 075709,0.00003276,0.00000941,-0.00070443,0.00003508,0.00001730,0.00005
 869,0.01664842,-0.04779039,-0.00439016,-0.02351011,0.00236896,0.009665
 58,-0.01883503,0.05299432,-0.00158850,-0.00015441,0.00091613,-0.010891
 18,-0.00061366,0.00186656,0.00050355,0.00008567,0.00012103,0.00212150,
 -0.00034814,0.00053206,-0.00111643,0.00211867,-0.00007422,-0.00012167,
 -0.00002346,-0.00003999,-0.00130982,0.00047366,-0.00025707,-0.00030017
 ,-0.00148839,0.00073240,0.00065693,-0.00012939,0.00051529,0.00000537,0
 .00001038,-0.00051297,0.00002006,0.00000475,-0.00000273,0.07942387,-0.
 00420318,-0.07436351,-0.01228662,0.00156391,0.00424674,-0.08605515,0.0
 0440906,0.07514065,-0.00144613,0.00100964,-0.00146997,-0.00036413,0.00
 130782,-0.01288821,0.00032371,0.00012369,-0.00027262,0.00000468,-0.001
 22663,0.00022157,0.00009984,-0.00051186,-0.00009595,-0.00010436,-0.000
 06225,0.00023410,0.00015186,0.00014749,-0.00083574,-0.00007456,0.00016
 457,0.00094226,0.00042527,0.00146262,0.00018807,-0.00001216,-0.0001767
 3,-0.00053396,0.00004246,0.00002915,0.00002371,-0.04792950,-0.00044062
 ,0.00227861,0.00050375,0.00322635,-0.01622242,0.00067754,-0.00278809,0
 .03081777,0.04736828,0.00197705,-0.00426216,0.00160843,-0.00166126,-0.
 00599768,0.02669485,0.00001544,-0.00004510,-0.00044979,0.00246240,0.00
 170923,0.00161168,0.00001599,0.00090294,-0.00040651,0.00017772,0.00021
 985,-0.00046419,-0.00164737,0.00025494,-0.00016585,-0.00020831,-0.0003
 4822,0.00068699,-0.00092502,0.00028635,-0.00201397,0.00006387,0.000261
 58,0.00062810,0.00000730,-0.00004336,0.00004393,-0.00018048,-0.0481148
 7,0.02108581,0.00278863,0.00399905,-0.02366099,-0.00082448,-0.00102372
 ,-0.00168350,-0.00219004,0.05180066,-0.00141382,0.00018669,-0.00054869
 ,-0.00007358,0.00137677,-0.00600611,-0.00000121,-0.00012380,0.00043039
 ,-0.00113955,-0.00148693,0.00093426,-0.00035673,0.00022450,0.00011071,
 0.00007122,0.00012344,-0.00004875,0.00109040,0.00046474,-0.00001797,-0
 .00006507,0.00004706,-0.00062364,0.00018703,0.00151741,0.00011127,-0.0
 0003255,-0.00010149,-0.00031686,0.00004142,0.00002868,0.00004905,0.002
 45290,0.02096707,-0.30660484,0.00116512,0.00151972,-0.01125255,0.00010
 044,0.00020374,-0.00884000,-0.00191798,-0.02482132,0.33296288,-0.11958
 519,0.09501517,-0.03239403,-0.00034293,0.00049629,0.00307808,-0.013826
 72,0.02354555,-0.00935021,-0.00069669,-0.00026746,0.00034897,0.0007107
 2,-0.00043414,-0.00010040,0.00012426,-0.00028618,-0.00037641,0.0006652
 9,-0.00035044,-0.00035729,0.00012095,0.00021178,0.00047705,0.01877279,
 -0.02025769,0.00558365,-0.00042516,0.00025746,-0.00018029,-0.00004414,
 -0.00021971,-0.00000585,0.00006459,0.00026726,-0.00033479,-0.00007129,
 -0.00008233,-0.00018402,0.00044780,-0.00027016,0.00012048,0.00033348,0
 .00012856,-0.00010803,0.11375226,0.10108276,-0.20101067,0.05245850,-0.
 00173882,0.00130552,-0.00243558,0.00254944,0.00032877,0.00147059,-0.00
 236413,0.00169666,0.00037504,-0.00022951,-0.00011426,0.00064967,-0.000
 22209,0.00020226,0.00005621,0.00334778,0.00005446,-0.00000830,-0.00017
 878,0.00039326,0.00002165,-0.00349832,-0.04914750,-0.00371426,-0.00079
 408,0.00267899,0.00521976,0.00029689,-0.00046410,0.00007587,-0.0003127
 7,-0.00010500,-0.00091948,-0.00001955,-0.00002729,-0.00035114,-0.00008
 976,0.00008886,-0.00002197,-0.00007512,0.00040048,-0.00012628,-0.09775
 395,0.24371955,-0.02602263,0.05787311,-0.05402838,-0.01238318,0.011779
 26,-0.01725037,0.00577982,-0.00640007,0.00627123,0.00086633,0.00585924
 ,0.00001569,0.00032537,0.00038319,0.00177660,-0.00018819,-0.00051009,-
 0.00007892,-0.00140717,-0.00093972,-0.00036723,0.00021418,0.00001053,-
 0.00028366,-0.00155633,-0.01597263,0.00333399,0.00071684,0.00026170,0.
 00385738,0.00005759,-0.00008778,0.00015452,0.00029640,-0.00081150,-0.0
 0440112,0.00008706,0.00004064,0.00027703,-0.00009992,-0.00004193,0.000
 01963,-0.00046925,0.00130633,-0.00033914,0.03378308,-0.05275027,0.0610
 4276\\-0.00000116,-0.00000196,0.00000638,0.00000070,-0.00000095,-0.000
 00363,-0.00000350,0.00000137,-0.00000315,-0.00000294,0.00000264,-0.000
 00118,0.00000189,-0.00000373,0.00000134,-0.00000711,0.00000016,-0.0000
 0111,-0.00000507,0.00000763,-0.00000425,-0.00000090,0.00000712,-0.0000
 0302,-0.00000303,0.00000338,0.00000006,0.00001933,-0.00000768,-0.00000
 057,-0.00001535,-0.00001362,0.00000236,0.00000441,0.00000208,0.0000019
 3,0.00000743,0.00000042,0.00000181,0.00000490,0.00000571,0.00000031,0.
 00000575,0.00000304,0.00000064,-0.00000535,-0.00000560,0.00000209\\\@


 REFRAIN FROM ILLUSIONS, INSIST ON WORK AND NOT WORDS,
 PATIENTLY SEEK DIVINE AND SCIENTIFIC TRUTH.
 LAST WORDS OF MARIA MENDELEEVA TO HER SON DMITRI, C. 1850
 Job cpu time:  0 days  1 hours  5 minutes 40.5 seconds.
 File lengths (MBytes):  RWF=    125 Int=      0 D2E=      0 Chk=      8 Scr=      1
 Normal termination of Gaussian 03 at Tue Jul 29 11:01:46 2014.
