 Entering Gaussian System, Link 0=g03
 Input=freq.gjf
 Output=freq.log
 Initial command:
 /opt/g03/l1.exe /scratch/goldmanm/Gau-11191.inp -scrdir=/scratch/goldmanm/
 Entering Link 1 = /opt/g03/l1.exe PID=     11193.
  
 Copyright (c) 1988,1990,1992,1993,1995,1998,2003,2004, Gaussian, Inc.
                  All Rights Reserved.
  
 This is the Gaussian(R) 03 program.  It is based on the
 the Gaussian(R) 98 system (copyright 1998, Gaussian, Inc.),
 the Gaussian(R) 94 system (copyright 1995, Gaussian, Inc.),
 the Gaussian 92(TM) system (copyright 1992, Gaussian, Inc.),
 the Gaussian 90(TM) system (copyright 1990, Gaussian, Inc.),
 the Gaussian 88(TM) system (copyright 1988, Gaussian, Inc.),
 the Gaussian 86(TM) system (copyright 1986, Carnegie Mellon
 University), and the Gaussian 82(TM) system (copyright 1983,
 Carnegie Mellon University). Gaussian is a federally registered
 trademark of Gaussian, Inc.
  
 This software contains proprietary and confidential information,
 including trade secrets, belonging to Gaussian, Inc.
  
 This software is provided under written license and may be
 used, copied, transmitted, or stored only in accord with that
 written license.
  
 The following legend is applicable only to US Government
 contracts under FAR:
  
                    RESTRICTED RIGHTS LEGEND
  
 Use, reproduction and disclosure by the US Government is
 subject to restrictions as set forth in subparagraphs (a)
 and (c) of the Commercial Computer Software - Restricted
 Rights clause in FAR 52.227-19.
  
 Gaussian, Inc.
 340 Quinnipiac St., Bldg. 40, Wallingford CT 06492
  
  
 ---------------------------------------------------------------
 Warning -- This program may not be used in any manner that
 competes with the business of Gaussian, Inc. or will provide
 assistance to any competitor of Gaussian, Inc.  The licensee
 of this program is prohibited from giving any competitor of
 Gaussian, Inc. access to this program.  By using this program,
 the user acknowledges that Gaussian, Inc. is engaged in the
 business of creating and licensing software in the field of
 computational chemistry and represents and warrants to the
 licensee that it is not a competitor of Gaussian, Inc. and that
 it will not use this program in any manner prohibited above.
 ---------------------------------------------------------------
  

 Cite this work as:
 Gaussian 03, Revision D.01,
 M. J. Frisch, G. W. Trucks, H. B. Schlegel, G. E. Scuseria, 
 M. A. Robb, J. R. Cheeseman, J. A. Montgomery, Jr., T. Vreven, 
 K. N. Kudin, J. C. Burant, J. M. Millam, S. S. Iyengar, J. Tomasi, 
 V. Barone, B. Mennucci, M. Cossi, G. Scalmani, N. Rega, 
 G. A. Petersson, H. Nakatsuji, M. Hada, M. Ehara, K. Toyota, 
 R. Fukuda, J. Hasegawa, M. Ishida, T. Nakajima, Y. Honda, O. Kitao, 
 H. Nakai, M. Klene, X. Li, J. E. Knox, H. P. Hratchian, J. B. Cross, 
 V. Bakken, C. Adamo, J. Jaramillo, R. Gomperts, R. E. Stratmann, 
 O. Yazyev, A. J. Austin, R. Cammi, C. Pomelli, J. W. Ochterski, 
 P. Y. Ayala, K. Morokuma, G. A. Voth, P. Salvador, J. J. Dannenberg, 
 V. G. Zakrzewski, S. Dapprich, A. D. Daniels, M. C. Strain, 
 O. Farkas, D. K. Malick, A. D. Rabuck, K. Raghavachari, 
 J. B. Foresman, J. V. Ortiz, Q. Cui, A. G. Baboul, S. Clifford, 
 J. Cioslowski, B. B. Stefanov, G. Liu, A. Liashenko, P. Piskorz, 
 I. Komaromi, R. L. Martin, D. J. Fox, T. Keith, M. A. Al-Laham, 
 C. Y. Peng, A. Nanayakkara, M. Challacombe, P. M. W. Gill, 
 B. Johnson, W. Chen, M. W. Wong, C. Gonzalez, and J. A. Pople, 
 Gaussian, Inc., Wallingford CT, 2004.
 
 ******************************************
 Gaussian 03:  AM64L-G03RevD.01 13-Oct-2005
                 6-Aug-2019 
 ******************************************
 %chk=input.chk
 %mem=1500mb
 %nproc=8
 Will use up to    8 processors via shared memory.
 -------------------------------------
 # freq nosymm b3lyp/cbsb7 iop(7/33=1)
 -------------------------------------
 1/10=4,30=1,38=1/1,3;
 2/15=1,17=6,18=5,40=1/2;
 3/5=4,6=6,7=700,11=2,16=1,25=1,30=1,74=-5/1,2,3;
 4//1;
 5/5=2,38=5/2;
 8/6=4,10=90,11=11/1;
 11/6=1,8=1,9=11,15=111,16=1,31=1/1,2,10;
 10/6=1,31=1/2;
 6/7=2,8=2,9=2,10=2,18=1,28=1/1;
 7/8=1,10=1,25=1,30=1,33=1/1,2,3,16;
 1/10=4,30=1/3;
 99//99;
 -------
 NBO NRT
 -------
 Symbolic Z-matrix:
 Charge =  0 Multiplicity = 2
 C                     0.54316  -0.80191   0.1557 
 C                     0.13487  -0.43351   1.94501 
 H                     0.23665  -1.84448   0.0235 
 C                     0.61635   1.00572   2.16756 
 H                    -0.94993  -0.50385   1.88947 
 H                     0.49858   1.23966   3.22927 
 O                    -0.13845   1.96164   1.46694 
 H                    -0.12503   1.70221   0.53239 
 O                    -0.16511   0.09653  -0.47841 
 O                     0.14009  -0.14377  -2.2657 
 H                    -0.81311  -0.17616  -2.4374 
 C                     0.77258  -1.47535   2.63847 
 H                     0.28599  -2.43068   2.79392 
 H                     1.81759  -1.40169   2.92302 
 H                     1.69191   1.06644   1.93623 
 H                     1.63039  -0.66561   0.15932 
 

 GradGradGradGradGradGradGradGradGradGradGradGradGradGradGradGradGradGrad
 Berny optimization.
 Initialization pass.
 Trust Radius=3.00D-01 FncErr=1.00D-07 GrdErr=1.00D-07
 Number of steps in this run=   2 maximum allowed number of steps=   2.
 GradGradGradGradGradGradGradGradGradGradGradGradGradGradGradGradGradGrad

                          Input orientation:                          
 ---------------------------------------------------------------------
 Center     Atomic     Atomic              Coordinates (Angstroms)
 Number     Number      Type              X           Y           Z
 ---------------------------------------------------------------------
    1          6             0        0.543160   -0.801910    0.155700
    2          6             0        0.134870   -0.433510    1.945010
    3          1             0        0.236650   -1.844480    0.023500
    4          6             0        0.616350    1.005720    2.167560
    5          1             0       -0.949930   -0.503850    1.889470
    6          1             0        0.498580    1.239660    3.229270
    7          8             0       -0.138450    1.961640    1.466940
    8          1             0       -0.125030    1.702210    0.532390
    9          8             0       -0.165110    0.096530   -0.478410
   10          8             0        0.140090   -0.143770   -2.265700
   11          1             0       -0.813110   -0.176160   -2.437400
   12          6             0        0.772580   -1.475350    2.638470
   13          1             0        0.285990   -2.430680    2.793920
   14          1             0        1.817590   -1.401690    2.923020
   15          1             0        1.691910    1.066440    1.936230
   16          1             0        1.630390   -0.665610    0.159320
 ---------------------------------------------------------------------
                    Distance matrix (angstroms):
                    1          2          3          4          5
     1  C    0.000000
     2  C    1.871911   0.000000
     3  H    1.094704   2.386084   0.000000
     4  C    2.705636   1.533863   3.586754   0.000000
     5  H    2.307405   1.088496   2.585944   2.193027   0.000000
     6  H    3.690099   2.140352   4.456174   1.093538   2.633073
     7  O    3.133872   2.457641   4.087881   1.405124   2.629767
     8  H    2.618967   2.573780   3.601221   1.925753   2.718240
     9  O    1.308028   2.498779   2.044711   2.904903   2.565785
    10  O    2.541415   4.220670   2.853450   4.604557   4.310828
    11  H    2.992524   4.491148   3.152985   4.964459   4.341417
    12  C    2.582693   1.404632   2.694726   2.530192   2.114676
    13  H    3.111147   2.175356   2.832189   3.508605   2.461341
    14  H    3.105152   2.173804   3.332064   2.794516   3.087638
    15  H    2.825004   2.162013   3.774887   1.101830   3.073649
    16  H    1.095746   2.340756   1.830490   2.802615   3.110890
                    6          7          8          9         10
     6  H    0.000000
     7  O    2.008201   0.000000
     8  H    2.806422   0.969983   0.000000
     9  O    3.936257   2.695131   1.897770   0.000000
    10  O    5.677771   4.294524   3.362624   1.829015   0.000000
    11  H    5.986337   4.502136   3.580696   2.081323   0.969082
    12  C    2.792024   3.743709   3.916397   3.614555   5.120941
    13  H    3.702178   4.607982   4.729084   4.159138   5.554368
    14  H    2.968216   4.154305   4.372994   4.212539   5.596355
    15  H    1.768048   2.090893   2.382486   3.196832   4.639932
    16  H    3.786244   3.426530   2.971069   2.052164   2.893792
                   11         12         13         14         15
    11  H    0.000000
    12  C    5.474191   0.000000
    13  H    5.801516   1.083324   0.000000
    14  H    6.095622   1.085560   1.849672   0.000000
    15  H    5.191129   2.792670   3.865500   2.661055   0.000000
    16  H    3.599057   2.745487   3.444416   2.866164   2.482175
                   16
    16  H    0.000000
 Symmetry turned off by external request.
 Stoichiometry    C4H9O3(2)
 Framework group  C1[X(C4H9O3)]
 Deg. of freedom    42
 Full point group                 C1
 Rotational constants (GHZ):      3.4945025      1.6210149      1.1756718
 Standard basis: CBSB7 (5D, 7F)
 Integral buffers will be    131072 words long.
 Raffenetti 2 integral format.
 Two-electron integral symmetry is turned off.
   180 basis functions,   296 primitive gaussians,   187 cartesian basis functions
    29 alpha electrons       28 beta electrons
       nuclear repulsion energy       314.5875607153 Hartrees.
 NAtoms=   16 NActive=   16 NUniq=   16 SFac= 7.50D-01 NAtFMM=   80 NAOKFM=F Big=F
 One-electron integrals computed using PRISM.
 NBasis=   180 RedAO= T  NBF=   180
 NBsUse=   180 1.00D-06 NBFU=   180
 Harris functional with IExCor=  402 diagonalized for initial guess.
 ExpMin= 1.03D-01 ExpMax= 8.59D+03 ExpMxC= 1.30D+03 IAcc=1 IRadAn=         1 AccDes= 1.00D-06
 HarFok:  IExCor= 402 AccDes= 1.00D-06 IRadAn=         1 IDoV=1
 ScaDFX=  1.000000  1.000000  1.000000  1.000000
 <S**2> of initial guess= 0.7500
 Requested convergence on RMS density matrix=1.00D-08 within 128 cycles.
 Requested convergence on MAX density matrix=1.00D-06.
 Requested convergence on             energy=1.00D-06.
 No special actions if energy rises.
 Integral accuracy reduced to 1.0D-05 until final iterations.
 EnCoef did     4 forward-backward iterations
 Initial convergence to 1.0D-05 achieved.  Increase integral accuracy.
 SCF Done:  E(UB+HF-LYP) =  -383.418642620     A.U. after   26 cycles
             Convg  =    0.5888D-08             -V/T =  2.0032
             S**2   =   0.8819
 Annihilation of the first spin contaminant:
 S**2 before annihilation     0.8819,   after     0.7518
 Range of M.O.s used for correlation:     1   180
 NBasis=   180 NAE=    29 NBE=    28 NFC=     0 NFV=     0
 NROrb=    180 NOA=    29 NOB=    28 NVA=   151 NVB=   152
 Symmetrizing basis deriv contribution to polar:
 IMax=3 JMax=2 DiffMx= 0.00D+00
 G2DrvN: will do   17 centers at a time, making    1 passes doing MaxLOS=2.
 FoFDir/FoFCou used for L=0 through L=2.
 DoAtom=TTTTTTTTTTTTTTTT
          Differentiating once with respect to electric field.
                with respect to dipole field.
          Differentiating once with respect to nuclear coordinates.
 Symmetry not used in FoFDir.
 MinBra= 0 MaxBra= 2 Meth= 1.
 IRaf=       0 NMat=  51 IRICut=      51 DoRegI=T DoRafI=T ISym2E= 0 JSym2E=0.
          There are  51 degrees of freedom in the 1st order CPHF.
    48 vectors were produced by pass  0.
 AX will form  48 AO Fock derivatives at one time.
    48 vectors were produced by pass  1.
    48 vectors were produced by pass  2.
    48 vectors were produced by pass  3.
    48 vectors were produced by pass  4.
    48 vectors were produced by pass  5.
    34 vectors were produced by pass  6.
     5 vectors were produced by pass  7.
     3 vectors were produced by pass  8.
 Inv2:  IOpt= 1 Iter= 1 AM= 2.73D-15 Conv= 1.00D-12.
 Inverted reduced A of dimension  330 with in-core refinement.
 Isotropic polarizability for W=    0.000000       82.76 Bohr**3.
 End of Minotr Frequency-dependent properties file   721 does not exist.

 **********************************************************************

            Population analysis using the SCF density.

 **********************************************************************

 Alpha  occ. eigenvalues --  -19.15266 -19.13261 -19.10510 -10.25526 -10.22981
 Alpha  occ. eigenvalues --  -10.21826 -10.21682  -1.04845  -1.01765  -0.95223
 Alpha  occ. eigenvalues --   -0.82032  -0.69272  -0.65200  -0.60068  -0.53471
 Alpha  occ. eigenvalues --   -0.48495  -0.47613  -0.46813  -0.45531  -0.45021
 Alpha  occ. eigenvalues --   -0.43488  -0.40323  -0.38875  -0.35269  -0.32102
 Alpha  occ. eigenvalues --   -0.30063  -0.27553  -0.27025  -0.23646
 Alpha virt. eigenvalues --   -0.10768   0.03044   0.04732   0.05612   0.07449
 Alpha virt. eigenvalues --    0.07781   0.09330   0.10190   0.11492   0.12712
 Alpha virt. eigenvalues --    0.14140   0.19587   0.20662   0.22682   0.26019
 Alpha virt. eigenvalues --    0.31950   0.32816   0.34824   0.36645   0.38356
 Alpha virt. eigenvalues --    0.41164   0.41640   0.42748   0.44717   0.48017
 Alpha virt. eigenvalues --    0.49851   0.51914   0.52715   0.55258   0.56195
 Alpha virt. eigenvalues --    0.57401   0.58218   0.60324   0.61018   0.62431
 Alpha virt. eigenvalues --    0.63985   0.67677   0.74120   0.79889   0.83019
 Alpha virt. eigenvalues --    0.86188   0.87036   0.89663   0.89880   0.91988
 Alpha virt. eigenvalues --    0.94407   0.95701   1.00566   1.04911   1.06416
 Alpha virt. eigenvalues --    1.11042   1.11512   1.16262   1.22374   1.27805
 Alpha virt. eigenvalues --    1.31076   1.33070   1.37838   1.38327   1.39333
 Alpha virt. eigenvalues --    1.42444   1.43354   1.45568   1.46051   1.49463
 Alpha virt. eigenvalues --    1.51289   1.52925   1.54620   1.57850   1.58910
 Alpha virt. eigenvalues --    1.60986   1.62529   1.64346   1.66638   1.69448
 Alpha virt. eigenvalues --    1.75619   1.77131   1.79594   1.83314   1.89343
 Alpha virt. eigenvalues --    1.90788   1.93023   1.95752   1.98006   2.03308
 Alpha virt. eigenvalues --    2.07395   2.10194   2.11572   2.15911   2.18512
 Alpha virt. eigenvalues --    2.20512   2.28548   2.30514   2.33435   2.37748
 Alpha virt. eigenvalues --    2.39430   2.42032   2.44301   2.48332   2.54324
 Alpha virt. eigenvalues --    2.55543   2.58227   2.60684   2.62546   2.68730
 Alpha virt. eigenvalues --    2.70260   2.72362   2.74170   2.83015   2.84951
 Alpha virt. eigenvalues --    2.87234   2.90078   2.91237   2.95566   3.05398
 Alpha virt. eigenvalues --    3.08395   3.11029   3.13829   3.16537   3.20860
 Alpha virt. eigenvalues --    3.24610   3.27260   3.33970   3.37247   3.47646
 Alpha virt. eigenvalues --    3.59160   3.66040   3.69257   3.73427   3.76226
 Alpha virt. eigenvalues --    3.87756   3.93088   3.94446   4.02459   4.22663
 Alpha virt. eigenvalues --    4.78650   4.84282   4.89339   4.94026   5.18337
 Alpha virt. eigenvalues --    5.28709   5.40327   5.54530   5.68583  23.71170
 Alpha virt. eigenvalues --   23.76325  23.79477  23.99950  49.77575  49.87811
 Alpha virt. eigenvalues --   49.91244
  Beta  occ. eigenvalues --  -19.15645 -19.11622 -19.10518 -10.25220 -10.22946
  Beta  occ. eigenvalues --  -10.22103 -10.20743  -1.04963  -1.01740  -0.91654
  Beta  occ. eigenvalues --   -0.81312  -0.68414  -0.64843  -0.59770  -0.53395
  Beta  occ. eigenvalues --   -0.47946  -0.47447  -0.46434  -0.45104  -0.44748
  Beta  occ. eigenvalues --   -0.42835  -0.39648  -0.38459  -0.34802  -0.29515
  Beta  occ. eigenvalues --   -0.29107  -0.27494  -0.26462
  Beta virt. eigenvalues --   -0.11696  -0.06450   0.03290   0.04909   0.05688
  Beta virt. eigenvalues --    0.07672   0.07944   0.09678   0.10288   0.11550
  Beta virt. eigenvalues --    0.12751   0.14189   0.19738   0.20702   0.23025
  Beta virt. eigenvalues --    0.26156   0.32173   0.33590   0.35019   0.37264
  Beta virt. eigenvalues --    0.38490   0.41968   0.42122   0.43797   0.45664
  Beta virt. eigenvalues --    0.48881   0.50043   0.51920   0.52920   0.55419
  Beta virt. eigenvalues --    0.56440   0.57866   0.58413   0.60591   0.61030
  Beta virt. eigenvalues --    0.62669   0.64402   0.68442   0.74537   0.81358
  Beta virt. eigenvalues --    0.83619   0.86457   0.87823   0.89946   0.91511
  Beta virt. eigenvalues --    0.92167   0.95036   0.96187   1.00665   1.06180
  Beta virt. eigenvalues --    1.06776   1.11201   1.12284   1.16285   1.23204
  Beta virt. eigenvalues --    1.28409   1.31368   1.33397   1.38000   1.38832
  Beta virt. eigenvalues --    1.39417   1.42962   1.43576   1.45715   1.46290
  Beta virt. eigenvalues --    1.49428   1.51651   1.52957   1.54779   1.58446
  Beta virt. eigenvalues --    1.59125   1.61261   1.62666   1.64513   1.67010
  Beta virt. eigenvalues --    1.69891   1.76054   1.77719   1.79776   1.83526
  Beta virt. eigenvalues --    1.90429   1.91194   1.93794   1.96146   1.98465
  Beta virt. eigenvalues --    2.03398   2.07755   2.10580   2.11646   2.16009
  Beta virt. eigenvalues --    2.18731   2.20616   2.28753   2.30591   2.33493
  Beta virt. eigenvalues --    2.37767   2.39614   2.42246   2.44464   2.48405
  Beta virt. eigenvalues --    2.54401   2.55764   2.58381   2.61009   2.62631
  Beta virt. eigenvalues --    2.69454   2.72298   2.73143   2.74686   2.83695
  Beta virt. eigenvalues --    2.86680   2.89672   2.90592   2.91099   2.95763
  Beta virt. eigenvalues --    3.05984   3.10801   3.12141   3.14718   3.16469
  Beta virt. eigenvalues --    3.21439   3.24803   3.28345   3.34351   3.37290
  Beta virt. eigenvalues --    3.47789   3.59123   3.66172   3.70509   3.73602
  Beta virt. eigenvalues --    3.77637   3.87761   3.93096   3.94547   4.02624
  Beta virt. eigenvalues --    4.23065   4.80252   4.89264   4.90721   4.93517
  Beta virt. eigenvalues --    5.17068   5.28624   5.41631   5.54487   5.68562
  Beta virt. eigenvalues --   23.71514  23.76552  23.79607  24.00405  49.79195
  Beta virt. eigenvalues --   49.87495  49.91236
          Condensed to atoms (all electrons):
              1          2          3          4          5          6
     1  C    4.800812   0.183160   0.384275  -0.043448  -0.037097   0.005906
     2  C    0.183160   5.355586  -0.016127   0.308596   0.382232  -0.037217
     3  H    0.384275  -0.016127   0.637839   0.006700  -0.009637  -0.000174
     4  C   -0.043448   0.308596   0.006700   4.731204  -0.043717   0.402518
     5  H   -0.037097   0.382232  -0.009637  -0.043717   0.548501  -0.007679
     6  H    0.005906  -0.037217  -0.000174   0.402518  -0.007679   0.589617
     7  O   -0.000012  -0.038062  -0.000449   0.298941   0.013249  -0.032602
     8  H   -0.001863  -0.007946   0.001671  -0.042519  -0.002888   0.007568
     9  O    0.313961  -0.034835  -0.036486   0.005276   0.005959   0.000157
    10  O   -0.008763   0.002192   0.003224  -0.000281  -0.000291   0.000012
    11  H   -0.003148  -0.000547   0.000259   0.000061   0.000158  -0.000005
    12  C   -0.050393   0.344969  -0.004903  -0.050355  -0.023091  -0.002311
    13  H    0.001436  -0.023782   0.001948   0.004558  -0.010412   0.000008
    14  H   -0.001412  -0.043827  -0.000848  -0.005914   0.007404  -0.000602
    15  H   -0.013350  -0.051638   0.000046   0.380859   0.011462  -0.045776
    16  H    0.384323  -0.021229  -0.066224  -0.015308   0.008631  -0.000297
              7          8          9         10         11         12
     1  C   -0.000012  -0.001863   0.313961  -0.008763  -0.003148  -0.050393
     2  C   -0.038062  -0.007946  -0.034835   0.002192  -0.000547   0.344969
     3  H   -0.000449   0.001671  -0.036486   0.003224   0.000259  -0.004903
     4  C    0.298941  -0.042519   0.005276  -0.000281   0.000061  -0.050355
     5  H    0.013249  -0.002888   0.005959  -0.000291   0.000158  -0.023091
     6  H   -0.032602   0.007568   0.000157   0.000012  -0.000005  -0.002311
     7  O    7.866816   0.326181  -0.014741   0.000054  -0.000014   0.006320
     8  H    0.326181   0.436872   0.036968   0.000912  -0.000161  -0.000403
     9  O   -0.014741   0.036968   8.073404   0.016039   0.002756   0.000783
    10  O    0.000054   0.000912   0.016039   8.053713   0.261193  -0.000103
    11  H   -0.000014  -0.000161   0.002756   0.261193   0.489408   0.000041
    12  C    0.006320  -0.000403   0.000783  -0.000103   0.000041   5.116625
    13  H   -0.000218   0.000054  -0.000094  -0.000003  -0.000001   0.397955
    14  H    0.000074  -0.000057  -0.000097   0.000000   0.000001   0.408330
    15  H   -0.033195  -0.006036   0.000337  -0.000078   0.000012   0.002659
    16  H    0.001146  -0.002222  -0.041045  -0.000821   0.000339  -0.005907
             13         14         15         16
     1  C    0.001436  -0.001412  -0.013350   0.384323
     2  C   -0.023782  -0.043827  -0.051638  -0.021229
     3  H    0.001948  -0.000848   0.000046  -0.066224
     4  C    0.004558  -0.005914   0.380859  -0.015308
     5  H   -0.010412   0.007404   0.011462   0.008631
     6  H    0.000008  -0.000602  -0.045776  -0.000297
     7  O   -0.000218   0.000074  -0.033195   0.001146
     8  H    0.000054  -0.000057  -0.006036  -0.002222
     9  O   -0.000094  -0.000097   0.000337  -0.041045
    10  O   -0.000003   0.000000  -0.000078  -0.000821
    11  H   -0.000001   0.000001   0.000012   0.000339
    12  C    0.397955   0.408330   0.002659  -0.005907
    13  H    0.529903  -0.035061  -0.000673  -0.000841
    14  H   -0.035061   0.537208   0.006448   0.002514
    15  H   -0.000673   0.006448   0.652585   0.004372
    16  H   -0.000841   0.002514   0.004372   0.643971
 Mulliken atomic charges:
              1
     1  C    0.085614
     2  C   -0.301525
     3  H    0.098887
     4  C    0.062828
     5  H    0.157215
     6  H    0.120878
     7  O   -0.393487
     8  H    0.253870
     9  O   -0.328342
    10  O   -0.326999
    11  H    0.249649
    12  C   -0.140217
    13  H    0.135224
    14  H    0.125840
    15  H    0.091966
    16  H    0.108600
 Sum of Mulliken charges=   0.00000
 Atomic charges with hydrogens summed into heavy atoms:
              1
     1  C    0.293101
     2  C   -0.144309
     3  H    0.000000
     4  C    0.275672
     5  H    0.000000
     6  H    0.000000
     7  O   -0.139617
     8  H    0.000000
     9  O   -0.328342
    10  O   -0.077351
    11  H    0.000000
    12  C    0.120847
    13  H    0.000000
    14  H    0.000000
    15  H    0.000000
    16  H    0.000000
 Sum of Mulliken charges=   0.00000
          Atomic-Atomic Spin Densities.
              1          2          3          4          5          6
     1  C    0.218906  -0.039377  -0.002672  -0.007615  -0.008138   0.000860
     2  C   -0.039377  -0.197515   0.005005   0.018443   0.009999   0.001801
     3  H   -0.002672   0.005005  -0.009859  -0.000042  -0.000226   0.000012
     4  C   -0.007615   0.018443  -0.000042   0.021193   0.002693  -0.005801
     5  H   -0.008138   0.009999  -0.000226   0.002693   0.015057   0.000075
     6  H    0.000860   0.001801   0.000012  -0.005801   0.000075  -0.010328
     7  O    0.000147  -0.000884   0.000012  -0.002303  -0.000293   0.001478
     8  H    0.000144  -0.000129   0.000030  -0.000063  -0.000037   0.000022
     9  O    0.021957   0.014218   0.000471  -0.001977  -0.002095   0.000298
    10  O   -0.005256  -0.000005  -0.000624  -0.000034  -0.000159   0.000007
    11  H    0.000047   0.000033   0.000015   0.000011   0.000055  -0.000003
    12  C   -0.033911  -0.009462   0.000468  -0.010019  -0.004941   0.004213
    13  H   -0.000099  -0.002255  -0.000034  -0.000149   0.000611  -0.000031
    14  H   -0.000368  -0.001265   0.000063   0.000663  -0.000138  -0.000078
    15  H    0.000586   0.001378  -0.000040  -0.001378  -0.000134   0.001416
    16  H   -0.005762   0.009381  -0.000868  -0.000360  -0.000132   0.000084
              7          8          9         10         11         12
     1  C    0.000147   0.000144   0.021957  -0.005256   0.000047  -0.033911
     2  C   -0.000884  -0.000129   0.014218  -0.000005   0.000033  -0.009462
     3  H    0.000012   0.000030   0.000471  -0.000624   0.000015   0.000468
     4  C   -0.002303  -0.000063  -0.001977  -0.000034   0.000011  -0.010019
     5  H   -0.000293  -0.000037  -0.002095  -0.000159   0.000055  -0.004941
     6  H    0.001478   0.000022   0.000298   0.000007  -0.000003   0.004213
     7  O   -0.001413  -0.000843   0.001448  -0.000005   0.000003   0.000324
     8  H   -0.000843   0.000969   0.001298  -0.000055  -0.000005   0.000013
     9  O    0.001448   0.001298  -0.152253  -0.074253   0.005733   0.000060
    10  O   -0.000005  -0.000055  -0.074253   0.678936  -0.001586  -0.000130
    11  H    0.000003  -0.000005   0.005733  -0.001586  -0.014621   0.000042
    12  C    0.000324   0.000013   0.000060  -0.000130   0.000042   0.764879
    13  H    0.000001   0.000000   0.000001   0.000000   0.000000   0.002702
    14  H   -0.000014  -0.000003   0.000009  -0.000001   0.000000   0.001856
    15  H   -0.000038   0.000036  -0.000246   0.000004  -0.000001  -0.000475
    16  H    0.000062  -0.000096   0.003019  -0.002523   0.000248   0.001766
             13         14         15         16
     1  C   -0.000099  -0.000368   0.000586  -0.005762
     2  C   -0.002255  -0.001265   0.001378   0.009381
     3  H   -0.000034   0.000063  -0.000040  -0.000868
     4  C   -0.000149   0.000663  -0.001378  -0.000360
     5  H    0.000611  -0.000138  -0.000134  -0.000132
     6  H   -0.000031  -0.000078   0.001416   0.000084
     7  O    0.000001  -0.000014  -0.000038   0.000062
     8  H    0.000000  -0.000003   0.000036  -0.000096
     9  O    0.000001   0.000009  -0.000246   0.003019
    10  O    0.000000  -0.000001   0.000004  -0.002523
    11  H    0.000000   0.000000  -0.000001   0.000248
    12  C    0.002702   0.001856  -0.000475   0.001766
    13  H   -0.036862   0.002869   0.000018   0.000062
    14  H    0.002869  -0.035834  -0.000053   0.000081
    15  H    0.000018  -0.000053  -0.002197  -0.000529
    16  H    0.000062   0.000081  -0.000529  -0.015737
 Mulliken atomic spin densities:
              1
     1  C    0.139451
     2  C   -0.190633
     3  H   -0.008290
     4  C    0.013262
     5  H    0.012196
     6  H   -0.005974
     7  O   -0.002317
     8  H    0.001280
     9  O   -0.182313
    10  O    0.594315
    11  H   -0.010027
    12  C    0.717385
    13  H   -0.033168
    14  H   -0.032212
    15  H   -0.001653
    16  H   -0.011302
 Sum of Mulliken spin densities=   1.00000
 APT atomic charges:
              1
     1  C    0.198098
     2  C    0.258265
     3  H   -0.043097
     4  C    0.449702
     5  H   -0.009854
     6  H   -0.027050
     7  O   -0.571326
     8  H    0.308028
     9  O    0.086929
    10  O   -0.651528
    11  H    0.257821
    12  C   -0.244156
    13  H    0.048526
    14  H    0.044632
    15  H   -0.071685
    16  H   -0.033305
 Sum of APT charges=   0.00000
 APT Atomic charges with hydrogens summed into heavy atoms:
              1
     1  C    0.121696
     2  C    0.248411
     3  H    0.000000
     4  C    0.350967
     5  H    0.000000
     6  H    0.000000
     7  O   -0.263299
     8  H    0.000000
     9  O    0.086929
    10  O   -0.393707
    11  H    0.000000
    12  C   -0.150998
    13  H    0.000000
    14  H    0.000000
    15  H    0.000000
    16  H    0.000000
 Sum of APT charges=   0.00000
 Electronic spatial extent (au):  <R**2>=  1111.7621
 Charge=     0.0000 electrons
 Dipole moment (field-independent basis, Debye):
    X=     0.3268    Y=    -3.1414    Z=     2.2303  Tot=     3.8664
 Quadrupole moment (field-independent basis, Debye-Ang):
   XX=   -40.0668   YY=   -45.3111   ZZ=   -40.8960
   XY=     0.7303   XZ=     6.6195   YZ=    -5.2289
 Traceless Quadrupole moment (field-independent basis, Debye-Ang):
   XX=     2.0245   YY=    -3.2198   ZZ=     1.1953
   XY=     0.7303   XZ=     6.6195   YZ=    -5.2289
 Octapole moment (field-independent basis, Debye-Ang**2):
  XXX=   -36.8140  YYY=   -15.6794  ZZZ=  -101.2436  XYY=   -11.4221
  XXY=    -0.8328  XXZ=   -36.0407  XZZ=   -17.0176  YZZ=    -7.7466
  YYZ=   -40.3067  XYZ=     0.4861
 Hexadecapole moment (field-independent basis, Debye-Ang**3):
 XXXX=  -119.9265 YYYY=  -385.3226 ZZZZ=  -900.9404 XXXY=    23.5203
 XXXZ=   -64.5958 YYYX=    28.5371 YYYZ=   -38.1927 ZZZX=   -33.4594
 ZZZY=    -3.2252 XXYY=   -83.0892 XXZZ=  -161.1558 YYZZ=  -217.3072
 XXYZ=    -3.5846 YYXZ=   -18.8129 ZZXY=    10.1809
 N-N= 3.145875607153D+02 E-N=-1.529164381135D+03  KE= 3.821789244957D+02
  Exact polarizability:  53.319  -5.567  64.171  15.476 -16.284 130.798
 Approx polarizability:  79.635 -14.237  94.440  26.417 -42.183 230.295
                          Isotropic Fermi Contact Couplings
        Atom                 a.u.       MegaHertz       Gauss      10(-4) cm-1
     1  C(13)              0.09896     111.24648      39.69551      37.10783
     2  C(13)             -0.02611     -29.35356     -10.47408      -9.79129
     3  H(1)              -0.00368     -16.46140      -5.87384      -5.49093
     4  C(13)              0.01680      18.88230       6.73767       6.29846
     5  H(1)               0.00660      29.50763      10.52906       9.84269
     6  H(1)              -0.00431     -19.27751      -6.87869      -6.43029
     7  O(17)              0.00133      -0.80687      -0.28791      -0.26914
     8  H(1)               0.00006       0.27876       0.09947       0.09298
     9  O(17)              0.21122    -128.04231     -45.68868     -42.71032
    10  O(17)              0.05889     -35.69645     -12.73738     -11.90705
    11  H(1)              -0.00905     -40.44049     -14.43017     -13.48950
    12  C(13)              0.04333      48.70983      17.38088      16.24785
    13  H(1)              -0.00927     -41.41361     -14.77740     -13.81409
    14  H(1)              -0.00912     -40.74979     -14.54054     -13.59267
    15  H(1)              -0.00083      -3.69743      -1.31933      -1.23333
    16  H(1)              -0.00507     -22.64668      -8.08090      -7.55412
 --------------------------------------------------------
       Center         ----  Spin Dipole Couplings  ----
                      3XX-RR        3YY-RR        3ZZ-RR
 --------------------------------------------------------
     1   Atom       -0.058833     -0.071173      0.130005
     2   Atom        0.073605      0.087795     -0.161400
     3   Atom       -0.012507      0.004760      0.007748
     4   Atom       -0.003813      0.011347     -0.007534
     5   Atom       -0.005992      0.006001     -0.000008
     6   Atom       -0.004003      0.006677     -0.002674
     7   Atom        0.005398     -0.005133     -0.000265
     8   Atom        0.000648     -0.001225      0.000578
     9   Atom        0.215859      0.356608     -0.572467
    10   Atom       -1.117660     -1.233704      2.351364
    11   Atom        0.102822     -0.077698     -0.025124
    12   Atom       -0.268110     -0.247509      0.515618
    13   Atom       -0.022615      0.031547     -0.008932
    14   Atom        0.045636     -0.041870     -0.003767
    15   Atom       -0.003053      0.003847     -0.000794
    16   Atom        0.006223     -0.011348      0.005124
 --------------------------------------------------------
                        XY            XZ            YZ
 --------------------------------------------------------
     1   Atom       -0.009492     -0.066841      0.044695
     2   Atom       -0.001883      0.059165     -0.062071
     3   Atom        0.002423      0.003564      0.002131
     4   Atom        0.008196     -0.001710     -0.008393
     5   Atom       -0.007671      0.005284     -0.003723
     6   Atom       -0.001357      0.000140      0.001703
     7   Atom       -0.002308     -0.024037     -0.034118
     8   Atom       -0.001975      0.000170     -0.002093
     9   Atom        0.063739      0.430949     -0.154756
    10   Atom       -0.039496     -0.583259      0.180247
    11   Atom        0.004593      0.027582      0.002449
    12   Atom       -0.117732     -0.320749      0.360003
    13   Atom        0.034829     -0.019442      0.002570
    14   Atom        0.003504      0.012367      0.017092
    15   Atom        0.001891     -0.000754     -0.001639
    16   Atom        0.001051     -0.002420     -0.004665
 --------------------------------------------------------


 ---------------------------------------------------------------------------------
              Anisotropic Spin Dipole Couplings in Principal Axis System
 ---------------------------------------------------------------------------------

       Atom             a.u.   MegaHertz   Gauss  10(-4) cm-1        Axes

              Baa    -0.0845   -11.342    -4.047    -3.783 -0.6329  0.6946 -0.3419
     1 C(13)  Bbb    -0.0757   -10.156    -3.624    -3.388  0.7162  0.6930  0.0822
              Bcc     0.1602    21.498     7.671     7.171 -0.2940  0.1929  0.9361
 
              Baa    -0.1885   -25.296    -9.026    -8.438 -0.2137  0.2127  0.9535
     2 C(13)  Bbb     0.0771    10.352     3.694     3.453  0.8386  0.5406  0.0673
              Bcc     0.1114    14.944     5.333     4.985 -0.5011  0.8140 -0.2939
 
              Baa    -0.0133    -7.122    -2.541    -2.375  0.9815 -0.1132 -0.1544
     3 H(1)   Bbb     0.0037     1.955     0.698     0.652  0.0256  0.8769 -0.4800
              Bcc     0.0097     5.167     1.844     1.723  0.1897  0.4671  0.8636
 
              Baa    -0.0111    -1.489    -0.531    -0.497 -0.2726  0.4227  0.8643
     4 C(13)  Bbb    -0.0066    -0.889    -0.317    -0.296  0.8925 -0.2243  0.3913
              Bcc     0.0177     2.378     0.849     0.793  0.3593  0.8781 -0.3161
 
              Baa    -0.0108    -5.756    -2.054    -1.920  0.8867  0.3344 -0.3192
     5 H(1)   Bbb    -0.0016    -0.869    -0.310    -0.290  0.1080  0.5216  0.8463
              Bcc     0.0124     6.625     2.364     2.210 -0.4495  0.7849 -0.4264
 
              Baa    -0.0043    -2.275    -0.812    -0.759  0.9545  0.1577 -0.2532
     6 H(1)   Bbb    -0.0029    -1.530    -0.546    -0.510  0.2744 -0.1310  0.9527
              Bcc     0.0071     3.806     1.358     1.269 -0.1171  0.9788  0.1683
 
              Baa    -0.0440     3.184     1.136     1.062  0.3645  0.6264  0.6890
     7 O(17)  Bbb     0.0040    -0.292    -0.104    -0.097  0.8072 -0.5815  0.1016
              Bcc     0.0400    -2.892    -1.032    -0.965 -0.4643 -0.5191  0.7176
 
              Baa    -0.0033    -1.745    -0.623    -0.582  0.3924  0.8151  0.4261
     8 H(1)   Bbb     0.0004     0.237     0.085     0.079  0.7214  0.0146 -0.6923
              Bcc     0.0028     1.508     0.538     0.503  0.5706 -0.5791  0.5824
 
              Baa    -0.7868    56.933    20.315    18.991 -0.3985  0.1448  0.9057
     9 O(17)  Bbb     0.3805   -27.529    -9.823    -9.183  0.2015  0.9772 -0.0676
              Bcc     0.4064   -29.404   -10.492    -9.808  0.8948 -0.1556  0.4185
 
              Baa    -1.2459    90.150    32.168    30.071  0.2920  0.9564 -0.0006
    10 O(17)  Bbb    -1.2101    87.564    31.245    29.208  0.9427 -0.2877  0.1689
              Bcc     2.4560  -177.715   -63.413   -59.279 -0.1614  0.0499  0.9856
 
              Baa    -0.0779   -41.552   -14.827   -13.860 -0.0199  0.9992 -0.0360
    11 H(1)   Bbb    -0.0308   -16.418    -5.858    -5.476 -0.2031  0.0312  0.9787
              Bcc     0.1086    57.970    20.685    19.337  0.9789  0.0268  0.2023
 
              Baa    -0.3954   -53.061   -18.934   -17.699 -0.4709  0.7512 -0.4626
    12 C(13)  Bbb    -0.3755   -50.390   -17.980   -16.808  0.8251  0.5606  0.0705
              Bcc     0.7709   103.451    36.914    34.508 -0.3123  0.3485  0.8838
 
              Baa    -0.0485   -25.868    -9.230    -8.629  0.8232 -0.3720  0.4288
    13 H(1)   Bbb    -0.0008    -0.436    -0.156    -0.145 -0.3357  0.2901  0.8962
              Bcc     0.0493    26.304     9.386     8.774  0.4578  0.8817 -0.1139
 
              Baa    -0.0484   -25.839    -9.220    -8.619  0.0126  0.9327 -0.3604
    14 H(1)   Bbb    -0.0008    -0.402    -0.144    -0.134 -0.2659  0.3506  0.8980
              Bcc     0.0492    26.241     9.363     8.753  0.9639  0.0845  0.2524
 
              Baa    -0.0036    -1.911    -0.682    -0.637  0.9670 -0.2165  0.1345
    15 H(1)   Bbb    -0.0013    -0.697    -0.249    -0.232 -0.0592  0.3222  0.9448
              Bcc     0.0049     2.608     0.930     0.870  0.2479  0.9216 -0.2987
 
              Baa    -0.0126    -6.715    -2.396    -2.240 -0.0217  0.9675  0.2519
    16 H(1)   Bbb     0.0037     1.966     0.701     0.656  0.7151 -0.1611  0.6802
              Bcc     0.0089     4.749     1.695     1.584  0.6987  0.1949 -0.6884
 

 ---------------------------------------------------------------------------------

 Use density number 0.
 Entering OneElI...
 Calculate overlap and kinetic energy integrals
    NBasis = 187  MinDer = 2  MaxDer = 2
 Requested accuracy = 0.1000D-12
 PrsmSu:  NPrtUS=   1 ThrOK=F
 PRISM was handed   196298454 working-precision words and  2529 shell-pairs
 Entering OneElI...
 Calculate potential energy integrals
    NBasis = 187  MinDer = 2  MaxDer = 2
 Requested accuracy = 0.1000D-12
 PrsmSu:  NPrtUS=   8 ThrOK=T
 PRISM was handed    24495510 working-precision words and  2314 shell-pairs
 PRISM was handed    24495510 working-precision words and  2314 shell-pairs
 PRISM was handed    24495510 working-precision words and  2314 shell-pairs
 PRISM was handed    24495510 working-precision words and  2314 shell-pairs
 PRISM was handed    24495510 working-precision words and  2314 shell-pairs
 PRISM was handed    24495510 working-precision words and  2314 shell-pairs
 PRISM was handed    24495510 working-precision words and  2314 shell-pairs
 PRISM was handed    24495510 working-precision words and  2314 shell-pairs
 Polarizability after L701:
                1             2             3
      1  0.533190D+02
      2 -0.556739D+01  0.641706D+02
      3  0.154757D+02 -0.162842D+02  0.130798D+03
 Dipole Derivatives after L701:
               1            2            3            4            5
      1 0.429515D+00 0.758743D-01-0.128756D+00 0.593901D-01-0.704961D-01
      2 0.431127D-01 0.435553D+00 0.111859D+00-0.376976D-01 0.456420D-01
      3-0.208593D+00 0.314800D+00-0.270775D+00-0.783397D-01-0.345503D-02
               6            7            8            9           10
      1 0.229529D+00-0.158541D-02-0.419404D-01 0.470645D-03 0.493766D+00
      2-0.193405D+00-0.641242D-01-0.150671D+00-0.330890D-01-0.888184D-01
      3 0.669763D+00-0.195169D-01-0.448556D-01 0.229658D-01 0.146008D+00
              11           12           13           14           15
      1-0.130225D+00 0.942877D-01-0.541465D-01-0.572697D-02-0.419439D-01
      2 0.606839D+00-0.195224D+00-0.292193D-01 0.273974D-01 0.258709D-03
      3 0.811991D-01 0.248500D+00 0.139828D-01-0.545531D-01-0.281377D-02
              16           17           18           19           20
      1 0.539549D-01 0.132269D-01-0.544984D-02-0.539088D+00 0.861814D-01
      2-0.173001D-02-0.161651D-01-0.324466D-01 0.866630D-01-0.815517D+00
      3 0.126163D-01-0.561199D-01-0.118939D+00-0.759679D-01-0.161848D-01
              21           22           23           24           25
      1-0.122187D+00 0.254330D+00-0.308475D-02-0.832108D-02-0.369512D+00
      2 0.167268D+00 0.508941D-01 0.456712D+00 0.605774D-01 0.670216D-01
      3-0.359375D+00 0.223076D-01-0.285427D-01 0.213042D+00 0.146869D+00
              26           27           28           29           30
      1 0.711692D-02 0.309356D+00-0.106152D+00-0.238418D-01-0.318960D+00
      2-0.437365D+00-0.388623D+00-0.266852D-01-0.351028D+00 0.406317D+00
      3-0.293407D+00 0.106767D+01-0.495808D-02-0.140621D+00-0.149740D+01
              31           32           33           34           35
      1 0.115952D+00-0.520257D-02 0.153366D-01 0.493586D-01 0.178112D+00
      2-0.357360D-01 0.316673D+00-0.242181D-01 0.119925D+00-0.134305D+00
      3 0.173330D+00 0.212811D-02 0.340839D+00-0.496445D-01 0.149291D+00
              36           37           38           39           40
      1-0.361635D-01 0.374616D-01-0.350133D-01-0.187860D-01-0.496728D-01
      2 0.672023D-01-0.590194D-01-0.296877D-01 0.422649D-01-0.111589D-02
      3-0.647521D+00-0.408843D-01 0.425369D-01 0.137803D+00-0.458315D-01
              41           42           43           44           45
      1-0.493207D-01-0.252657D-01-0.217806D+00 0.445419D-01 0.529403D-01
      2 0.571186D-01 0.511265D-02-0.457920D-02-0.179641D-01 0.199881D-01
      3 0.337435D-01 0.126451D+00-0.102991D-01 0.161144D-01 0.207160D-01
              46           47           48
      1-0.155764D+00-0.402018D-01 0.391271D-02
      2-0.188908D-01 0.676869D-02-0.138422D-01
      3 0.189213D-01-0.207390D-02 0.490815D-01
 Hessian after L701:
                1             2             3             4             5
      1  0.169668D+02
      2  0.401112D+01  0.141947D+02
      3 -0.351660D+01  0.350933D+01  0.162731D+02
      4 -0.277000D+01 -0.823434D-01 -0.500498D+00  0.164023D+02
      5 -0.100227D+00 -0.263807D+01  0.552740D+00  0.649562D+00  0.113940D+02
      6 -0.533698D+00  0.628637D+00  0.116951D+01 -0.168899D+01  0.169211D+01
      7 -0.448159D+01  0.716193D+00  0.448590D-01  0.305198D-01 -0.236412D-01
      8  0.820919D+00 -0.144856D+01  0.292755D+00 -0.400938D-01 -0.381221D-01
      9  0.751680D-01  0.347534D+00 -0.459100D+01 -0.663705D-01 -0.779137D-01
     10 -0.524773D-01 -0.454462D-01 -0.367596D-01 -0.576314D+01  0.144041D+01
     11  0.804724D-02  0.186252D-01  0.104547D+00  0.140412D+01 -0.398279D+00
     12  0.860485D-02  0.112949D+00  0.872411D-01  0.116488D+00  0.699873D+00
     13  0.427767D-01  0.429531D-01  0.950695D-01 -0.145927D+01  0.620588D-01
     14  0.265619D-01  0.102069D+00 -0.353109D-01  0.199902D+00 -0.482829D+01
     15  0.130628D+00 -0.465212D-01 -0.589463D-01  0.403112D-01  0.164132D-01
     16 -0.393019D-01  0.201079D-03 -0.218042D-02  0.113778D+00  0.371662D-01
     17 -0.256402D-02  0.208746D-01  0.900094D-01  0.510858D-01  0.148917D-02
     18 -0.134126D-02  0.108517D+00  0.111645D+00  0.343167D-01 -0.623019D-01
     19 -0.236077D+00 -0.815613D-01 -0.419449D-01 -0.218212D+00  0.118674D+00
     20 -0.866364D-01  0.339506D+00  0.224018D+00  0.275278D-01  0.341293D+00
     21 -0.694135D-01  0.310728D+00 -0.132036D+00 -0.129166D+00  0.872069D-01
     22 -0.181490D-01 -0.257769D-01  0.323163D-02 -0.100608D-01  0.715664D-01
     23 -0.206998D-01  0.569058D-01 -0.163930D-01  0.747022D-01 -0.793026D-01
     24  0.178841D-01 -0.636924D-01 -0.336273D-01 -0.289077D-01 -0.117626D-01
     25 -0.773745D+01 -0.487133D+01  0.378313D+01 -0.173471D+00  0.122789D+00
     26 -0.479362D+01 -0.533239D+01 -0.448274D+01  0.683759D-01 -0.269821D+00
     27  0.383884D+01 -0.462230D+01 -0.893434D+01  0.133089D+00  0.701183D-01
     28 -0.392810D+00  0.299065D-01  0.305857D-01 -0.132756D+00  0.332506D-02
     29  0.245668D-01 -0.379491D+00 -0.176740D+00 -0.125759D-02 -0.116272D+00
     30  0.208426D-01 -0.998598D-01  0.536037D+00  0.255623D-01 -0.399242D-01
     31  0.189419D-01 -0.605072D-02  0.472965D-01  0.627020D-02  0.168300D-02
     32 -0.260005D-02 -0.120469D-01 -0.552114D-02  0.472915D-03 -0.635497D-02
     33  0.201085D-01 -0.397949D-02  0.263431D-02  0.557337D-02  0.264987D-02
     34 -0.120295D+00  0.123879D-01 -0.769596D-01 -0.594324D+01 -0.220164D+01
     35  0.181338D-01 -0.975230D-01  0.549837D-01 -0.221485D+01 -0.354419D+01
     36 -0.218941D-01 -0.587144D-01  0.223755D+00  0.197215D+01 -0.311148D+01
     37 -0.313071D-01  0.195010D-01 -0.227205D-01  0.502171D-01  0.757990D-01
     38  0.376676D-02  0.250613D-01 -0.722705D-01  0.343360D-01  0.539990D-01
     39 -0.519050D-02 -0.555686D-01  0.372901D-01 -0.592397D-02  0.336675D-01
     40  0.809609D-02 -0.174450D-01  0.496375D-01  0.452558D-01  0.362901D-01
     41 -0.281905D-02 -0.228377D-01 -0.427684D-02  0.109636D+00  0.722314D-01
     42  0.333519D-01 -0.167161D-01  0.354078D-01 -0.601707D-01  0.202642D-01
     43 -0.434191D-03 -0.379981D-01 -0.254080D-01 -0.970278D-01 -0.218021D+00
     44 -0.424844D-01 -0.514152D-01 -0.477276D-01 -0.254662D+00 -0.894712D-02
     45 -0.343295D-01 -0.508174D-01 -0.271576D-02  0.397010D-01  0.470095D-01
     46 -0.115669D+01  0.335689D+00  0.169259D+00 -0.811582D-01 -0.757993D-01
     47  0.138529D+00 -0.477543D+01  0.125925D-01 -0.265165D-01  0.646596D-01
     48  0.370339D-01  0.466673D-03 -0.472392D+01  0.112837D+00  0.813281D-01
                6             7             8             9            10
      6  0.156038D+02
      7 -0.416802D-01  0.476218D+01
      8 -0.382792D-01 -0.821261D+00  0.101892D+01
      9 -0.166047D-01  0.762242D-01 -0.362723D+00  0.420993D+01
     10  0.105654D+00 -0.397980D-01  0.180985D-01  0.151147D-01  0.179319D+02
     11  0.523657D+00  0.218541D-01  0.107373D+00  0.100104D+00  0.195336D+01
     12 -0.585814D+01  0.168907D-01  0.116846D+00  0.275789D-01 -0.219390D+01
     13  0.244220D+00  0.365141D-02  0.147365D-01  0.325248D-01  0.679372D-01
     14  0.379669D-01  0.223925D-01 -0.231204D-02 -0.369705D-01 -0.141776D+00
     15 -0.475808D+01  0.341951D-01 -0.457046D-01 -0.285016D-01 -0.123418D-01
     16  0.123759D-01 -0.239238D-03 -0.479959D-03 -0.226405D-03 -0.452319D+01
     17 -0.102447D+00  0.941921D-03  0.218332D-02 -0.139739D-02 -0.423294D-01
     18  0.432003D-01  0.212043D-02  0.951898D-02  0.111476D-02 -0.199340D+00
     19 -0.158026D+00 -0.125400D-01 -0.588464D-02 -0.147274D-03 -0.591493D+01
     20  0.976965D-01  0.632978D-02  0.498171D-01  0.151907D-01 -0.344736D+01
     21 -0.282524D+00  0.480345D-02  0.360637D-01 -0.699462D-02  0.260553D+01
     22 -0.456287D-01 -0.700601D-02 -0.522571D-02 -0.581021D-03  0.142569D+00
     23  0.609893D-01 -0.325148D-02  0.360972D-01  0.517284D-02 -0.146021D-01
     24  0.154365D-01 -0.288126D-02 -0.514852D-02 -0.943269D-02  0.154809D-01
     25  0.647545D-01 -0.278793D-01  0.411508D+00 -0.113215D+00 -0.328221D+00
     26 -0.877372D-02  0.402917D+00  0.330314D+00  0.923274D-01  0.325442D-01
     27  0.235511D+00 -0.115685D+00  0.679660D-01  0.633438D-01  0.110201D+00
     28 -0.381236D-01 -0.500262D-01  0.133215D-02  0.722331D-02 -0.780145D-01
     29 -0.161341D-01  0.924312D-02 -0.126719D-01 -0.355980D-01  0.161616D-02
     30  0.375449D+00 -0.143175D-01 -0.922574D-01  0.520002D-01  0.633167D-02
     31  0.193135D-01 -0.325578D-02 -0.174064D-01  0.964367D-02 -0.378190D-02
     32  0.201111D-02 -0.165962D-02  0.136335D-02 -0.592502D-02  0.886447D-03
     33  0.196132D-02  0.278820D-02 -0.125999D-01  0.673862D-02  0.395637D-02
     34  0.193962D+01 -0.102143D-01  0.124621D-01  0.150639D-01 -0.662744D-01
     35 -0.304703D+01  0.791832D-02 -0.292373D-02  0.118780D-01  0.134500D-01
     36 -0.683461D+01  0.165185D-01  0.452607D-01 -0.552326D-02 -0.397971D-01
     37 -0.206710D-01 -0.113308D-01 -0.420136D-02 -0.400260D-02 -0.354732D-01
     38 -0.606887D-02 -0.351225D-02 -0.191952D-01 -0.167012D-01  0.117435D-01
     39  0.278426D-01  0.331883D-02  0.350388D-02  0.261839D-01 -0.534042D-02
     40 -0.722562D-02  0.429839D-02  0.115319D-01  0.451072D-02 -0.129965D-02
     41  0.347311D-01  0.702782D-03  0.116960D-03  0.621656D-03  0.112561D-01
     42  0.967005D-01  0.237731D-02  0.659752D-02 -0.844035D-03  0.616447D-03
     43  0.100816D+00  0.290289D-02  0.137432D-01  0.423133D-02 -0.135058D+01
     44  0.924224D-01  0.344600D-02  0.652220D-02  0.352261D-02  0.175195D+00
     45  0.173312D+00  0.130420D-02  0.327928D-02 -0.850976D-03 -0.423817D+00
     46  0.472822D-01 -0.159674D+00 -0.409778D+00 -0.551619D-01  0.147257D-01
     47  0.485066D-01 -0.338613D+00 -0.289223D-01 -0.391224D-01  0.329498D-01
     48  0.720836D-02 -0.308355D-01 -0.250784D-01  0.272857D+00  0.484110D-01
               11            12            13            14            15
     11  0.129020D+02
     12  0.186048D+01  0.168426D+02
     13 -0.944301D-01 -0.512278D-01  0.111457D+01
     14 -0.636295D-02 -0.468441D-01 -0.256959D+00  0.477323D+01
     15 -0.715045D-02  0.127403D+00 -0.118881D+00  0.872933D-01  0.467066D+01
     16 -0.245169D-01 -0.115839D+00 -0.389225D-02 -0.298141D-01 -0.204207D-01
     17 -0.442167D+01  0.609694D+00 -0.277723D-01 -0.169647D-01 -0.252317D-01
     18  0.552902D+00 -0.151995D+01 -0.124316D-01 -0.301426D-01  0.108687D-02
     19 -0.338842D+01  0.269564D+01 -0.103849D+00  0.260505D-02  0.516364D-02
     20 -0.375292D+01 -0.347245D+01  0.107533D+00  0.181359D+00 -0.292633D-01
     21 -0.323559D+01 -0.583177D+01  0.219450D-02 -0.181228D-01 -0.105897D+00
     22 -0.490927D-01 -0.511211D-01  0.434933D-02 -0.758811D-02  0.525950D-02
     23  0.173737D+00  0.737808D-01 -0.102650D-01 -0.206338D-01  0.165492D-01
     24 -0.934719D-01  0.441322D-01 -0.112085D-01  0.633556D-02 -0.533781D-03
     25  0.333125D-01  0.139429D+00 -0.873463D-01 -0.107728D-01  0.240546D-01
     26 -0.295152D+00  0.184964D+00  0.154805D-01 -0.821833D-01 -0.889859D-02
     27  0.193150D+00  0.516943D+00 -0.921136D-01 -0.144395D-01  0.125159D+00
     28  0.303915D-02  0.147173D-01  0.410518D-02  0.328574D-02 -0.104048D-01
     29 -0.653984D-01  0.488814D-01  0.383780D-02 -0.114013D-01 -0.244854D-02
     30  0.421525D-01  0.872895D-01 -0.303788D-01 -0.773756D-02  0.371793D-02
     31  0.245578D-03  0.155989D-01 -0.862138D-02 -0.966263D-03  0.240613D-02
     32 -0.473114D-02  0.438559D-02 -0.162180D-03 -0.152848D-02 -0.274183D-03
     33  0.280447D-02  0.111488D-01 -0.420040D-02 -0.104488D-02  0.529887D-02
     34  0.823121D-01 -0.377257D-01  0.679246D-01  0.845584D-01 -0.204472D-01
     35  0.148000D+00 -0.377302D-01  0.609217D-01 -0.569236D-02  0.245756D-01
     36  0.722695D-01  0.208454D-01 -0.110778D-01  0.326070D-01  0.480193D-01
     37  0.255920D-01 -0.110844D-01 -0.464777D-02  0.401176D-01 -0.163278D-01
     38  0.143898D+00 -0.420791D-01  0.298916D-01 -0.365687D-01  0.234010D-01
     39 -0.426027D-01 -0.270700D-01 -0.196957D-01  0.305482D-01  0.100080D-01
     40 -0.201818D-01  0.165192D-01  0.112317D+00 -0.317746D-01  0.390358D-01
     41 -0.271518D-03  0.111334D-02 -0.401217D-01 -0.188026D-01 -0.872076D-02
     42  0.302976D-02 -0.156020D-01  0.536232D-01 -0.904523D-02 -0.857435D-02
     43  0.148227D-01 -0.612647D+00  0.144823D+00  0.102488D+00 -0.551645D-03
     44 -0.453947D+01 -0.439249D-01  0.101418D+00  0.682825D-02 -0.965277D-03
     45 -0.737491D-02 -0.444022D+01  0.262421D-02  0.262766D-02 -0.440050D-01
     46  0.299367D-01  0.496588D-01  0.105179D+00 -0.226106D-02 -0.816794D-01
     47 -0.941824D-02 -0.699431D-01 -0.912122D-02 -0.327515D-01  0.694642D-02
     48 -0.689146D-01 -0.724607D-01 -0.790413D-01  0.227935D-02  0.131843D-01
               16            17            18            19            20
     16  0.464112D+01
     17 -0.124456D+00  0.433300D+01
     18  0.107161D+00 -0.757681D+00  0.949471D+00
     19 -0.952142D-01  0.139127D+00 -0.196715D+00  0.138945D+02
     20  0.150799D+00 -0.654247D-01  0.114159D+00  0.331965D+01  0.933490D+01
     21 -0.225967D+00  0.181760D+00  0.198977D+00 -0.237153D+01  0.957621D+00
     22 -0.269366D-01 -0.335602D-02  0.426024D-01 -0.705400D+01  0.180867D-01
     23 -0.463064D-02 -0.350619D-01 -0.286703D-01 -0.392209D-01 -0.680126D+01
     24  0.365810D-01 -0.213002D-01  0.172191D+00  0.190851D+00  0.144471D+01
     25 -0.157559D-01  0.454290D-02  0.199123D-01 -0.404119D+00  0.624074D-01
     26  0.800285D-03 -0.138590D-01  0.194870D-01  0.325420D-01  0.494152D-01
     27  0.814602D-02  0.254614D-01  0.717009D-01  0.229908D-01  0.500248D+00
     28 -0.544432D-02 -0.114900D-02 -0.454280D-02 -0.132295D+00 -0.317005D-01
     29 -0.478552D-03 -0.388188D-02  0.805633D-02 -0.140321D-01 -0.263961D-01
     30 -0.126704D-02  0.547780D-02  0.243048D-01 -0.248481D-01  0.170338D+00
     31 -0.397989D-03  0.153414D-02  0.707359D-02 -0.467824D-02  0.202767D-01
     32  0.182105D-04 -0.300570D-03  0.102089D-02  0.263198D-02 -0.177408D-02
     33  0.150813D-03  0.770345D-03  0.313549D-02  0.513556D-02  0.172880D-01
     34 -0.213396D-01 -0.249785D-01 -0.127154D-01 -0.133014D+00 -0.174838D+00
     35 -0.256185D-01  0.168669D-01  0.663366D-01 -0.181305D+00  0.362318D+00
     36 -0.982235D-02  0.279322D-01  0.191537D-02  0.567902D-01 -0.189275D+00
     37 -0.258144D-02  0.300465D-02  0.442049D-02 -0.106409D-01  0.137946D-01
     38 -0.282379D-04  0.114623D-01  0.135201D-01 -0.434138D-02  0.404004D-01
     39  0.453199D-03  0.615545D-03 -0.276832D-02  0.859730D-03 -0.945125D-02
     40  0.240350D-02 -0.978799D-02 -0.137945D-01  0.141006D-01 -0.527530D-01
     41 -0.240790D-02  0.126273D-02  0.492945D-02 -0.211478D-01  0.148308D-01
     42  0.419200D-03 -0.158018D-02 -0.581235D-02  0.151693D-01 -0.243595D-01
     43 -0.239489D-01  0.400145D-01  0.235621D+00  0.387598D+00  0.155228D+00
     44  0.239508D-01  0.170713D+00 -0.214223D-01  0.162665D+00 -0.955852D-01
     45  0.211381D+00 -0.336476D-01 -0.529801D-01 -0.176731D+00  0.154383D+00
     46  0.942935D-03 -0.385802D-02 -0.123468D-01  0.233630D-01 -0.883487D-01
     47 -0.504840D-03 -0.688073D-03  0.177152D-02 -0.419827D-01  0.295249D-01
     48 -0.944658D-03  0.156348D-02  0.276530D-02 -0.226610D-01  0.291440D-01
               21            22            23            24            25
     21  0.735837D+01
     22  0.308171D+00  0.739114D+01
     23  0.942045D+00  0.963840D-02  0.660631D+01
     24 -0.146391D+01 -0.196101D+00 -0.143689D+01  0.145796D+01
     25  0.546571D-01 -0.347946D+00 -0.272496D-01 -0.201352D-01  0.106281D+02
     26  0.572100D+00 -0.279478D-01  0.664952D-01  0.212321D+00  0.394575D+01
     27  0.176175D+00 -0.173129D-01  0.352614D+00 -0.179014D+00 -0.371507D+01
     28 -0.608147D-01 -0.260714D-01 -0.338104D-02  0.212574D-02 -0.183205D+01
     29  0.189011D+00 -0.429118D-02 -0.782122D-02  0.117626D-01  0.399058D-01
     30  0.195646D+00 -0.680571D-02  0.258805D-01 -0.242826D-02 -0.451726D+00
     31  0.363424D-01 -0.294489D-03 -0.350207D-03 -0.576307D-02 -0.142123D-01
     32  0.169067D-01 -0.117947D-03 -0.725207D-03 -0.159468D-02  0.783452D-02
     33  0.215031D-01  0.308804D-03 -0.150148D-03 -0.416944D-02  0.590627D-01
     34  0.513630D-01 -0.860053D-02 -0.778336D-02  0.828890D-02 -0.127919D+00
     35 -0.169675D+00 -0.806256D-02  0.611299D-02 -0.356989D-01 -0.651301D-01
     36 -0.110132D+00  0.408301D-02 -0.123194D-01  0.797213D-02  0.119363D+00
     37 -0.583966D-05 -0.108544D-02 -0.284744D-03 -0.369193D-02 -0.171607D-01
     38 -0.602828D-02 -0.562593D-03  0.146280D-02 -0.123646D-01 -0.104018D-01
     39 -0.108133D-01  0.191020D-03 -0.117408D-02  0.309317D-02  0.760761D-02
     40  0.119946D-01  0.556985D-03 -0.261658D-03  0.116710D-01  0.160910D-01
     41 -0.111478D-01 -0.556149D-03 -0.433355D-03 -0.303786D-02 -0.702330D-02
     42 -0.112470D-01  0.716141D-03 -0.260399D-03  0.429957D-02  0.242941D-01
     43 -0.166927D+00 -0.349003D-01  0.334977D-01 -0.288844D-01  0.311209D-01
     44  0.118467D+00  0.207415D-01  0.127959D-01  0.161869D-01  0.229894D-01
     45  0.220579D-01 -0.491786D-01  0.223565D-01 -0.150339D-01  0.381713D-01
     46 -0.512367D-01 -0.356621D-02  0.141421D-01  0.146898D-01  0.438187D+00
     47  0.286489D-01  0.125447D-01 -0.146801D-01 -0.635724D-02  0.340875D+00
     48 -0.174011D-01  0.216553D-02 -0.353175D-02  0.306565D-02 -0.342920D-01
               26            27            28            29            30
     26  0.767054D+01
     27  0.324939D+01  0.615227D+01
     28  0.150038D-01 -0.588047D+00  0.426838D+01
     29 -0.182730D+01  0.243555D+00 -0.217572D+00  0.837483D+01
     30  0.219570D+00  0.126316D+01 -0.300029D+00 -0.269045D+00  0.274371D+01
     31  0.303522D-01  0.190136D+00 -0.153219D+01  0.184101D+00  0.668793D+00
     32 -0.934664D-01  0.244217D-01  0.200981D+00 -0.584220D+01  0.639470D-01
     33  0.243019D-01  0.659371D-01  0.905349D+00  0.721039D-01 -0.541185D+01
     34 -0.668574D-01  0.143629D+00 -0.568053D-01 -0.966674D-02 -0.642333D-02
     35 -0.622750D-01 -0.227789D+00 -0.103696D-01 -0.432277D-01  0.105797D-02
     36 -0.194839D+00  0.282643D+00  0.930357D-02 -0.389793D-01  0.414090D-01
     37  0.965605D-02 -0.105212D-01 -0.411628D-02  0.384884D-02 -0.758674D-02
     38  0.257435D-01 -0.474008D-01  0.532862D-02  0.445400D-02 -0.211229D-01
     39 -0.280559D-01  0.179949D-01 -0.170150D-02 -0.904879D-02  0.112753D-01
     40 -0.230819D-01  0.442734D-01 -0.510773D-02 -0.562902D-02  0.209276D-01
     41 -0.924880D-02 -0.101418D-01 -0.826056D-03 -0.564430D-02 -0.323286D-02
     42 -0.190820D-01  0.245109D-01  0.439490D-02 -0.581538D-02  0.139546D-01
     43  0.249208D-01  0.834203D-01 -0.643290D-02  0.782726D-02  0.267019D-01
     44 -0.229717D-01  0.272569D-01  0.242673D-02 -0.748972D-02  0.882598D-02
     45  0.167551D-01  0.155401D-01  0.702980D-02  0.515584D-02  0.859965D-02
     46  0.333165D+00 -0.359796D-01 -0.183622D-01 -0.220194D-01  0.742229D-01
     47 -0.133842D+00  0.167886D+00  0.369438D-03 -0.300801D-01 -0.406996D-02
     48  0.151175D+00  0.102470D+00  0.229345D-01 -0.247170D-01  0.577245D-01
               31            32            33            34            35
     31  0.151643D+01
     32 -0.207078D+00  0.596907D+01
     33 -0.101900D+01 -0.957401D-01  0.528281D+01
     34  0.194909D-03 -0.112065D-02  0.481764D-02  0.113201D+02
     35 -0.126641D-02 -0.358026D-02 -0.329429D-02  0.104760D+01  0.921191D+01
     36  0.133598D-01 -0.262390D-02  0.891269D-02 -0.256926D+01  0.369917D+01
     37 -0.279062D-02  0.736501D-04 -0.835669D-03 -0.348792D+01  0.103429D+01
     38 -0.612395D-02 -0.459494D-04 -0.272789D-02  0.114379D+01 -0.183331D+01
     39  0.271331D-02 -0.475443D-03  0.133443D-02 -0.252639D+00 -0.417036D+00
     40  0.627358D-02 -0.813852D-04  0.273729D-02 -0.143946D+01  0.220439D+00
     41 -0.262437D-03 -0.415664D-03 -0.261139D-03  0.288627D-01 -0.418126D+01
     42  0.371858D-02 -0.181241D-03  0.147119D-02  0.852974D+00  0.101944D+00
     43  0.668694D-02  0.108760D-02  0.347584D-02  0.757411D-02  0.963919D-01
     44  0.145435D-02 -0.524394D-03  0.781522D-03  0.700933D-01  0.437102D-01
     45  0.140372D-02  0.433692D-03  0.850503D-03 -0.269292D-01 -0.368362D-01
     46  0.154253D-01 -0.116645D-02  0.105760D-01  0.192967D-01  0.745226D-02
     47 -0.142421D-03 -0.273969D-02 -0.902230D-03  0.481136D-02 -0.149443D-01
     48  0.696736D-02 -0.790995D-03  0.227671D-02 -0.126566D-01  0.151468D-01
               36            37            38            39            40
     36  0.141779D+02
     37 -0.174416D+00  0.364513D+01
     38 -0.293952D+00 -0.107643D+01  0.155864D+01
     39 -0.392109D+01  0.288710D+00  0.506890D+00  0.371678D+01
     40  0.702894D+00 -0.966510D-01 -0.145701D+00 -0.853046D-02  0.139247D+01
     41  0.396947D-01 -0.146401D+00  0.245840D-01 -0.132634D-01  0.601504D-01
     42 -0.388468D+01 -0.200933D-01 -0.206058D-01  0.113309D+00 -0.894467D+00
     43 -0.296283D-01  0.453437D-02  0.748100D-02 -0.106318D-02 -0.367220D-01
     44 -0.291396D-01  0.248194D-03 -0.231427D-02  0.112731D-02 -0.180202D-01
     45 -0.313385D-01 -0.948220D-03 -0.194042D-02 -0.214557D-03  0.908681D-02
     46 -0.385582D-01  0.582455D-02  0.107589D-01 -0.376883D-02 -0.226172D-01
     47  0.143960D-01  0.138682D-02  0.172780D-02  0.323158D-03 -0.369406D-02
     48 -0.259553D-01 -0.225182D-03 -0.549136D-03 -0.315328D-02  0.107291D-01
               41            42            43            44            45
     41  0.407902D+01
     42  0.147999D-01  0.361765D+01
     43  0.927340D-02 -0.683356D-02  0.999052D+00
     44  0.560109D-01 -0.378519D-01 -0.260775D+00  0.441390D+01
     45 -0.309774D-01 -0.108403D-01  0.407449D+00 -0.130775D+00  0.435871D+01
     46  0.168381D-02 -0.100912D-01 -0.342468D-01 -0.868709D-02 -0.621675D-02
     47 -0.914635D-02 -0.111381D-01  0.100181D-01  0.182307D-01  0.403683D-01
     48 -0.108303D-01  0.302885D-01  0.102278D-01  0.432156D-01  0.191303D-01
               46            47            48
     46  0.853373D+00
     47 -0.120910D+00  0.493850D+01
     48 -0.706496D-01 -0.189906D+00  0.433192D+01
 ReadGW:  IGet=0 IStart=         114 Next=        7255 LGW=        7141.
 ICntrl=12127.
 Symmetry not used in FoFDir.
 MinBra= 0 MaxBra= 2 Meth= 1.
 IRaf=       0 NMat=   1 IRICut=       1 DoRegI=T DoRafI=F ISym2E= 0 JSym2E=0.
 PrsmSu:  NPrtUS=   8 ThrOK=T
 PRISM was handed    24481348 working-precision words and  2409 shell-pairs
 PRISM was handed    24481348 working-precision words and  2409 shell-pairs
 PRISM was handed    24481348 working-precision words and  2409 shell-pairs
 PRISM was handed    24481348 working-precision words and  2409 shell-pairs
 PRISM was handed    24481348 working-precision words and  2409 shell-pairs
 PRISM was handed    24481348 working-precision words and  2409 shell-pairs
 PRISM was handed    24481348 working-precision words and  2409 shell-pairs
 PRISM was handed    24481348 working-precision words and  2409 shell-pairs
 Pruned (  75, 302) grid will be used in CalDFT.
 CkSvGd:  ISavGI=        -1 IRadAn=       4 IRASav=       4 ISavGd=        -1.
 CalDSu:  NPrtUS=   8 ThrOK=T
 IPart= 0 IRanGd=          0 ScrnBf=T ScrnGd=T RCrit=4.00D+00 DoMicB=T.
 IPart= 3 IRanGd=          0 ScrnBf=T ScrnGd=T RCrit=4.00D+00 DoMicB=T.
 IPart= 7 IRanGd=          0 ScrnBf=T ScrnGd=T RCrit=4.00D+00 DoMicB=T.
 IPart= 2 IRanGd=          0 ScrnBf=T ScrnGd=T RCrit=4.00D+00 DoMicB=T.
 CutRad = 1000.00    CtRdIn =    0.00    XCrit =  15.00   ICut = 0
 IPart= 4 IRanGd=          0 ScrnBf=T ScrnGd=T RCrit=4.00D+00 DoMicB=T.
 IPart= 1 IRanGd=          0 ScrnBf=T ScrnGd=T RCrit=4.00D+00 DoMicB=T.
 CutRad = 1000.00    CtRdIn =    0.00    XCrit =  15.00   ICut = 0
 CutRad = 1000.00    CtRdIn =    0.00    XCrit =  15.00   ICut = 0
 CutRad = 1000.00    CtRdIn =    0.00    XCrit =  15.00   ICut = 0
 CutRad = 1000.00    CtRdIn =    0.00    XCrit =  15.00   ICut = 0
 IPart= 5 IRanGd=          0 ScrnBf=T ScrnGd=T RCrit=4.00D+00 DoMicB=T.
 IPart= 6 IRanGd=          0 ScrnBf=T ScrnGd=T RCrit=4.00D+00 DoMicB=T.
 CutRad = 1000.00    CtRdIn =    0.00    XCrit =  15.00   ICut = 0
 CutRad = 1000.00    CtRdIn =    0.00    XCrit =  15.00   ICut = 0
 CutRad = 1000.00    CtRdIn =    0.00    XCrit =  15.00   ICut = 0
 IPart= 2        13925 of        16292 points in      36 batches and      108 microbatches, Max-NSigAt=      16 Max-NSgAt2=      16
 IPart= 0        13114 of        14850 points in      30 batches and       93 microbatches, Max-NSigAt=      16 Max-NSgAt2=      16
 IPart= 3        13002 of        14516 points in      29 batches and       87 microbatches, Max-NSigAt=      16 Max-NSgAt2=      16
 IPart= 5        14618 of        16658 points in      35 batches and       97 microbatches, Max-NSigAt=      16 Max-NSgAt2=      16
 IPart= 7        15434 of        17096 points in      34 batches and       94 microbatches, Max-NSigAt=      16 Max-NSgAt2=      16
 IPart= 4        13155 of        15352 points in      33 batches and      118 microbatches, Max-NSigAt=      16 Max-NSgAt2=      16
 IPart= 1        14764 of        16894 points in      35 batches and      115 microbatches, Max-NSigAt=      16 Max-NSgAt2=      16
 IPart= 6        14612 of        16424 points in      32 batches and       81 microbatches, Max-NSigAt=      16 Max-NSgAt2=      16
 Polarizability after L703:
                1             2             3
      1  0.533190D+02
      2 -0.556739D+01  0.641706D+02
      3  0.154757D+02 -0.162842D+02  0.130798D+03
 Dipole Derivatives after L703:
               1            2            3            4            5
      1 0.429515D+00 0.758743D-01-0.128756D+00 0.593901D-01-0.704961D-01
      2 0.431127D-01 0.435553D+00 0.111859D+00-0.376976D-01 0.456420D-01
      3-0.208593D+00 0.314800D+00-0.270775D+00-0.783397D-01-0.345503D-02
               6            7            8            9           10
      1 0.229529D+00-0.158541D-02-0.419404D-01 0.470645D-03 0.493766D+00
      2-0.193405D+00-0.641242D-01-0.150671D+00-0.330890D-01-0.888184D-01
      3 0.669763D+00-0.195169D-01-0.448556D-01 0.229658D-01 0.146008D+00
              11           12           13           14           15
      1-0.130225D+00 0.942877D-01-0.541465D-01-0.572697D-02-0.419439D-01
      2 0.606839D+00-0.195224D+00-0.292193D-01 0.273974D-01 0.258709D-03
      3 0.811991D-01 0.248500D+00 0.139828D-01-0.545531D-01-0.281377D-02
              16           17           18           19           20
      1 0.539549D-01 0.132269D-01-0.544984D-02-0.539088D+00 0.861814D-01
      2-0.173001D-02-0.161651D-01-0.324466D-01 0.866630D-01-0.815517D+00
      3 0.126163D-01-0.561199D-01-0.118939D+00-0.759679D-01-0.161848D-01
              21           22           23           24           25
      1-0.122187D+00 0.254330D+00-0.308475D-02-0.832108D-02-0.369512D+00
      2 0.167268D+00 0.508941D-01 0.456712D+00 0.605774D-01 0.670216D-01
      3-0.359375D+00 0.223076D-01-0.285427D-01 0.213042D+00 0.146869D+00
              26           27           28           29           30
      1 0.711692D-02 0.309356D+00-0.106152D+00-0.238418D-01-0.318960D+00
      2-0.437365D+00-0.388623D+00-0.266852D-01-0.351028D+00 0.406317D+00
      3-0.293407D+00 0.106767D+01-0.495808D-02-0.140621D+00-0.149740D+01
              31           32           33           34           35
      1 0.115952D+00-0.520257D-02 0.153366D-01 0.493586D-01 0.178112D+00
      2-0.357360D-01 0.316673D+00-0.242181D-01 0.119925D+00-0.134305D+00
      3 0.173330D+00 0.212811D-02 0.340839D+00-0.496445D-01 0.149291D+00
              36           37           38           39           40
      1-0.361635D-01 0.374616D-01-0.350133D-01-0.187860D-01-0.496728D-01
      2 0.672023D-01-0.590194D-01-0.296877D-01 0.422649D-01-0.111589D-02
      3-0.647521D+00-0.408843D-01 0.425369D-01 0.137803D+00-0.458315D-01
              41           42           43           44           45
      1-0.493207D-01-0.252657D-01-0.217806D+00 0.445419D-01 0.529403D-01
      2 0.571186D-01 0.511265D-02-0.457920D-02-0.179641D-01 0.199881D-01
      3 0.337435D-01 0.126451D+00-0.102991D-01 0.161144D-01 0.207160D-01
              46           47           48
      1-0.155764D+00-0.402018D-01 0.391271D-02
      2-0.188908D-01 0.676869D-02-0.138422D-01
      3 0.189213D-01-0.207390D-02 0.490815D-01
 Hessian after L703:
                1             2             3             4             5
      1  0.594974D+00
      2  0.139455D-01  0.608198D+00
      3  0.586352D-01 -0.171345D-01  0.864645D-01
      4 -0.306545D-01 -0.634986D-02  0.151466D-01  0.618563D+00
      5 -0.744049D-02 -0.169060D-01 -0.441150D-01 -0.318464D-01  0.507915D+00
      6  0.266951D-01 -0.365793D-01  0.176414D+00  0.907365D-01 -0.558252D-01
      7 -0.890612D-01 -0.770976D-01 -0.195350D-01  0.760342D-03  0.217254D-02
      8 -0.821670D-01 -0.266178D+00 -0.335176D-01 -0.167372D-03 -0.348085D-03
      9 -0.964611D-02 -0.418123D-01 -0.371400D-01 -0.573831D-02 -0.100508D-01
     10  0.477841D-02 -0.194230D-02  0.624038D-02 -0.104819D+00 -0.259974D-01
     11 -0.197381D-02 -0.110966D-01 -0.568303D-02 -0.405206D-01 -0.135453D+00
     12 -0.676385D-02 -0.188226D-01 -0.244960D-01 -0.980195D-02 -0.173770D-01
     13 -0.489103D-02 -0.652070D-03  0.463400D-02 -0.321565D+00 -0.201450D-01
     14  0.121380D-02  0.251574D-02 -0.604069D-02 -0.191015D-01 -0.582767D-01
     15  0.160468D-01  0.354916D-02 -0.215874D-01 -0.118670D-01 -0.437839D-02
     16 -0.755348D-03 -0.253742D-04 -0.157437D-02  0.207024D-02 -0.613649D-02
     17 -0.148279D-02 -0.352406D-02 -0.241162D-02  0.421560D-02 -0.111798D-01
     18 -0.435959D-03  0.263566D-03 -0.172601D-02  0.153379D-02 -0.497665D-02
     19 -0.183255D-02 -0.656453D-03 -0.389719D-03  0.555661D-02  0.164532D-02
     20 -0.697154D-03  0.441483D-02  0.267809D-02  0.286491D-01 -0.422561D-01
     21 -0.232605D-02  0.231172D-03 -0.219455D-02 -0.112789D-02  0.101931D-01
     22  0.807383D-03  0.197377D-02  0.747908D-04  0.154647D-02  0.142394D-02
     23  0.315197D-02 -0.402586D-02  0.160689D-02  0.170165D-03 -0.553638D-03
     24  0.292425D-02  0.108641D-02  0.428364D-02  0.215403D-02 -0.397813D-02
     25 -0.180647D+00  0.118124D+00 -0.321496D-01 -0.370303D-02  0.721293D-02
     26  0.118885D+00 -0.234217D+00  0.341984D-01  0.246239D-02 -0.968342D-02
     27 -0.528418D-01  0.535700D-01  0.253476D-01 -0.138847D-01  0.429420D-01
     28  0.836560D-02 -0.888133D-02  0.458974D-02 -0.143508D-02  0.450959D-02
     29 -0.722502D-02  0.773836D-02 -0.173858D-02  0.115890D-02 -0.308456D-02
     30 -0.302993D-01  0.438584D-01 -0.108102D+00  0.473397D-02 -0.220821D-01
     31 -0.982755D-03  0.104354D-02  0.548327D-03  0.587432D-03 -0.512860D-03
     32  0.151843D-02  0.112119D-03 -0.130184D-02 -0.732170D-05 -0.194655D-03
     33  0.109806D-03 -0.280625D-03 -0.384748D-02 -0.319997D-03  0.967459D-03
     34 -0.882818D-02  0.891062D-02 -0.385730D-01 -0.152082D+00  0.658596D-01
     35  0.912477D-02 -0.176679D-01  0.639722D-01  0.801146D-01 -0.217846D+00
     36 -0.108810D-01  0.190366D-01 -0.694856D-01 -0.688757D-01  0.912996D-01
     37 -0.397366D-03  0.304542D-03 -0.695815D-03  0.978436D-02  0.141365D-01
     38 -0.225985D-03 -0.711025D-03 -0.679438D-03 -0.112264D-01 -0.147290D-01
     39 -0.382745D-04  0.159666D-03 -0.111654D-02  0.747660D-02  0.192722D-01
     40 -0.467441D-03 -0.364938D-03  0.441745D-03 -0.101450D-01 -0.106099D-02
     41  0.437973D-03 -0.307774D-03  0.683319D-03  0.223019D-01  0.635334D-02
     42 -0.193730D-04 -0.362521D-03  0.136073D-02 -0.185155D-01 -0.143359D-02
     43 -0.728676D-03  0.127239D-02  0.133424D-02 -0.114961D-01 -0.332543D-02
     44 -0.110032D-02  0.441275D-03  0.219325D-02 -0.318451D-01 -0.520324D-02
     45 -0.183541D-02 -0.195141D-03  0.759832D-03 -0.641811D-02 -0.528665D-02
     46 -0.289679D+00 -0.496048D-01  0.127248D-02 -0.296872D-02 -0.495316D-03
     47 -0.459652D-01 -0.687857D-01  0.729015D-02  0.199171D-02  0.144652D-02
     48  0.106760D-01 -0.656802D-02 -0.249339D-01  0.147676D-01  0.482913D-02
                6             7             8             9            10
      6  0.576342D-01
      7  0.613504D-02  0.803670D-01
      8 -0.859186D-03  0.741407D-01  0.300533D+00
      9 -0.153287D-01  0.181654D-01  0.261378D-01  0.476101D-01
     10 -0.145267D-01 -0.779405D-03  0.899580D-04  0.101716D-03  0.546175D+00
     11 -0.249366D-01  0.240007D-04 -0.374493D-03 -0.697404D-03 -0.122418D-01
     12 -0.535633D-01  0.448351D-03  0.178972D-03 -0.384186D-02 -0.259199D-01
     13 -0.204965D-01  0.436549D-03  0.307481D-03 -0.605377D-04 -0.972682D-02
     14  0.429943D-02  0.348072D-03 -0.101334D-03  0.233051D-03 -0.307243D-01
     15 -0.215797D-01 -0.455021D-03 -0.711611D-04  0.188137D-02 -0.521266D-02
     16 -0.861061D-02  0.450385D-03  0.285059D-04 -0.560690D-04 -0.561830D-01
     17 -0.239756D-01  0.224496D-03  0.171155D-03 -0.125699D-02  0.653930D-02
     18 -0.144606D-02 -0.107289D-03 -0.734355D-04  0.548440D-04  0.337366D-01
     19 -0.451995D-04  0.222696D-03  0.318999D-04  0.145761D-03 -0.121022D+00
     20  0.234264D-01 -0.222396D-03 -0.372111D-04  0.814604D-03  0.644489D-01
     21 -0.323756D-02  0.289392D-03 -0.634812D-03  0.115963D-02 -0.545385D-01
     22  0.605944D-03 -0.202061D-03 -0.235883D-03  0.785659D-05 -0.314315D-02
     23  0.469617D-02 -0.141563D-03  0.861358D-03 -0.887998D-03  0.132872D-02
     24  0.455992D-02 -0.712935D-03  0.134283D-02 -0.849961D-03 -0.269958D-02
     25 -0.417978D-01  0.137692D-01  0.873333D-02 -0.486969D-02 -0.222212D-02
     26  0.567163D-01  0.265398D-01 -0.354032D-01  0.299152D-01  0.374207D-02
     27 -0.159833D+00  0.402655D-02  0.108675D-01 -0.580053D-02 -0.316520D-02
     28 -0.126126D-01 -0.175548D-03  0.720496D-03 -0.348594D-03 -0.608378D-03
     29  0.107237D-01 -0.993356D-03  0.201287D-02  0.590056D-03  0.843082D-03
     30  0.854715D-01 -0.172450D-02 -0.269167D-02  0.693449D-02  0.297056D-02
     31  0.456573D-05 -0.513863D-04 -0.202624D-03 -0.483605D-04 -0.194877D-03
     32  0.896789D-03  0.180685D-03 -0.473044D-03  0.408552D-03 -0.165914D-03
     33 -0.140999D-02 -0.149931D-04 -0.189519D-04  0.919702D-04 -0.262974D-03
     34 -0.287307D-01 -0.398372D-03 -0.187178D-03  0.103348D-02  0.113653D-01
     35  0.393199D-01  0.186273D-02  0.108010D-02 -0.597130D-02  0.971438D-02
     36 -0.505790D-01 -0.161449D-03  0.967098D-03  0.820345D-03  0.436651D-02
     37 -0.173114D-02  0.292175D-03  0.149960D-03 -0.117302D-03 -0.574363D-03
     38  0.656373D-03 -0.207518D-04  0.255642D-03  0.417736D-03  0.209387D-02
     39  0.500577D-02 -0.255787D-03 -0.311467D-03 -0.560253D-04 -0.394091D-02
     40 -0.188515D-02 -0.175281D-04  0.968585D-04  0.123066D-03  0.292964D-03
     41  0.367536D-02 -0.456433D-04  0.379344D-04 -0.549714D-04  0.209756D-02
     42 -0.156176D-03  0.151167D-03  0.717613D-04 -0.428114D-03  0.632167D-03
     43  0.314959D-02  0.614477D-03  0.135657D-03  0.231400D-03 -0.262602D+00
     44  0.440418D-02  0.198660D-03  0.824829D-04  0.190380D-04 -0.217176D-01
     45  0.104678D-02  0.371994D-04  0.373371D-04 -0.752751D-04  0.607128D-01
     46  0.310968D-02 -0.622732D-02 -0.147476D-02  0.107627D-02 -0.736426D-03
     47 -0.663889D-02 -0.271704D-01 -0.211916D-02  0.219572D-02  0.189156D-02
     48 -0.229982D-01 -0.628614D-02 -0.142502D-02  0.496775D-02  0.150575D-02
               11            12            13            14            15
     11  0.422999D+00
     12  0.177371D-01  0.591815D+00
     13  0.840860D-03 -0.320527D-03  0.341473D+00
     14 -0.242855D-03 -0.637753D-03  0.199275D-01  0.558596D-01
     15  0.760565D-03  0.584861D-03  0.196010D-01 -0.164396D-02  0.447565D-01
     16  0.792410D-02  0.392064D-01  0.227760D-04  0.470671D-03  0.276260D-04
     17 -0.599996D-01 -0.654822D-01 -0.288540D-03  0.464672D-03  0.104405D-03
     18 -0.565674D-01 -0.284299D+00 -0.221416D-03 -0.313019D-03 -0.235862D-03
     19  0.715080D-01 -0.325488D-01  0.227190D-02  0.271391D-02  0.365017D-03
     20 -0.143014D+00  0.259084D-01  0.547390D-03  0.348289D-02 -0.604712D-04
     21  0.591400D-01 -0.132046D+00  0.707357D-03  0.218894D-03 -0.441879D-04
     22 -0.343574D-02 -0.275241D-01 -0.139192D-03 -0.466817D-03  0.424082D-03
     23  0.668329D-02  0.335070D-01 -0.381376D-03 -0.623881D-03 -0.696574D-04
     24  0.228079D-02 -0.284322D-01  0.000000D+00  0.338602D-03 -0.603451D-03
     25  0.831949D-03  0.314522D-02  0.703026D-03  0.994123D-03  0.484769D-02
     26 -0.362992D-02 -0.295194D-02  0.132766D-02 -0.164782D-02 -0.456378D-02
     27 -0.108766D-01  0.166608D-01 -0.449309D-02  0.496285D-02  0.117678D-01
     28 -0.946233D-03  0.134058D-02 -0.190491D-03  0.442114D-03  0.492249D-03
     29  0.666339D-05 -0.144592D-03  0.180026D-03 -0.458857D-03 -0.799818D-03
     30  0.849011D-02 -0.102099D-01  0.209507D-02 -0.324691D-02 -0.702093D-02
     31 -0.482728D-03  0.160253D-03 -0.643375D-05  0.927394D-04 -0.282636D-04
     32  0.343967D-03 -0.281040D-03  0.245336D-05  0.307819D-04 -0.409850D-04
     33 -0.181852D-03  0.822104D-04  0.101008D-03  0.768385D-04 -0.832234D-04
     34  0.312432D-02  0.423065D-02 -0.104729D-01  0.240741D-01 -0.232418D-01
     35 -0.291094D-01  0.204053D-01 -0.213648D-02  0.615398D-02  0.525735D-02
     36  0.518032D-02 -0.508587D-02 -0.187687D-03  0.473489D-03 -0.629046D-02
     37  0.102720D-02 -0.284639D-02  0.997002D-03  0.153816D-03  0.165248D-02
     38  0.647420D-03  0.416775D-02  0.280850D-03  0.582081D-03 -0.145483D-02
     39 -0.293362D-02  0.144796D-02  0.694468D-04 -0.156590D-02 -0.276626D-02
     40 -0.241556D-02  0.725827D-03  0.715837D-03  0.109020D-02 -0.282518D-02
     41  0.176196D-02 -0.109084D-02  0.145531D-02 -0.213905D-02  0.416673D-02
     42  0.105106D-02 -0.189476D-02 -0.742880D-03  0.392141D-02  0.301635D-02
     43 -0.227626D-01  0.573797D-01  0.182689D-03 -0.141125D-02  0.295972D-05
     44 -0.499089D-01  0.503006D-02 -0.159696D-02 -0.560256D-02 -0.628299D-03
     45  0.594644D-02 -0.693776D-01 -0.106919D-02 -0.946507D-03  0.394284D-03
     46 -0.501435D-03 -0.911366D-03  0.189676D-03  0.182744D-03  0.170009D-03
     47  0.386434D-03 -0.146554D-03  0.330898D-03  0.335216D-05 -0.126847D-03
     48  0.128998D-02  0.265504D-02  0.384456D-03 -0.129839D-03 -0.218963D-02
               16            17            18            19            20
     16  0.576324D-01
     17 -0.126094D-01  0.723463D-01
     18 -0.291797D-01  0.548722D-01  0.316160D+00
     19  0.731446D-03  0.279281D-02 -0.635126D-02  0.152112D+00
     20 -0.511827D-03  0.228236D-02  0.416009D-02 -0.126655D+00  0.262859D+00
     21 -0.264441D-01  0.328851D-01 -0.240154D-01  0.651088D-01  0.493201D-01
     22 -0.112713D-02  0.248969D-02 -0.123489D-02 -0.234124D-01  0.249712D-01
     23  0.330090D-02 -0.372551D-02  0.390233D-02  0.187522D-01 -0.706934D-01
     24 -0.269789D-02  0.203512D-02  0.778333D-03 -0.328834D-02 -0.101684D+00
     25  0.420243D-03  0.324524D-03  0.522409D-03  0.346282D-02  0.534873D-03
     26 -0.592020D-03 -0.270035D-03 -0.776468D-03 -0.426283D-03 -0.373568D-02
     27  0.153191D-02  0.286748D-02  0.169249D-02 -0.142178D-02 -0.524070D-02
     28  0.146663D-03  0.101786D-03  0.199852D-03  0.391435D-03 -0.229926D-03
     29 -0.219190D-03  0.130279D-03 -0.272226D-03 -0.173019D-03 -0.363415D-03
     30 -0.121578D-02 -0.143736D-02 -0.106129D-02  0.128956D-02 -0.294620D-02
     31  0.431249D-04  0.587424D-04 -0.198134D-05 -0.122859D-03  0.547878D-03
     32  0.633444D-05 -0.734323D-04  0.243917D-04  0.251962D-03 -0.339755D-03
     33  0.102784D-04  0.135962D-04  0.787097D-04  0.220646D-03  0.172393D-03
     34 -0.277876D-04 -0.130875D-02 -0.142212D-02  0.192815D-02 -0.601600D-02
     35  0.124276D-02  0.870104D-03  0.281630D-02 -0.801139D-03 -0.596959D-02
     36 -0.792013D-03 -0.197912D-02  0.463950D-03  0.841020D-03 -0.224761D-02
     37 -0.241950D-03 -0.149336D-03 -0.570749D-04  0.157147D-03  0.102114D-02
     38  0.174196D-03  0.293801D-03 -0.798959D-04 -0.514625D-04 -0.145433D-02
     39  0.385444D-03  0.472916D-03  0.385881D-03 -0.381127D-03  0.212824D-02
     40  0.103250D-04  0.467096D-03  0.229978D-03  0.756315D-04  0.277454D-03
     41 -0.501733D-04 -0.341519D-03 -0.306834D-03 -0.827370D-03 -0.780887D-04
     42 -0.198026D-03 -0.405577D-03 -0.465262D-03  0.771418D-03 -0.186126D-03
     43 -0.364013D-02 -0.132998D-02  0.294082D-02 -0.209101D-01  0.128898D-01
     44  0.718855D-02  0.249154D-02 -0.280356D-02  0.322612D-01 -0.466484D-02
     45  0.297998D-01  0.320938D-02 -0.663811D-02 -0.240408D-01  0.455838D-02
     46  0.447723D-03 -0.452623D-04 -0.151761D-03  0.390593D-03  0.444907D-03
     47 -0.191558D-03  0.637199D-04  0.130597D-03 -0.366259D-03 -0.432888D-03
     48 -0.192896D-03  0.488211D-03  0.272193D-03 -0.275176D-03 -0.802011D-03
               21            22            23            24            25
     21  0.598434D+00
     22  0.236191D-01  0.303396D-01
     23 -0.139486D+00 -0.240857D-01  0.710542D-01
     24 -0.439694D+00  0.667404D-02  0.982458D-01  0.466007D+00
     25  0.201898D-02 -0.368073D-02 -0.205942D-02 -0.244312D-02  0.204664D+00
     26 -0.140576D-01 -0.248790D-02  0.871403D-04  0.301704D-02 -0.165172D+00
     27 -0.140946D-01 -0.152947D-02  0.503254D-02  0.338527D-03  0.646021D-01
     28 -0.765559D-03 -0.523075D-03  0.871783D-03  0.429908D-03 -0.241137D-01
     29 -0.984097D-04  0.324670D-03  0.845754D-04 -0.246729D-03  0.132935D-01
     30  0.685438D-02  0.530437D-03 -0.390295D-02 -0.567190D-02  0.403233D-01
     31 -0.147624D-03  0.570231D-04 -0.352887D-03 -0.120186D-05  0.369427D-02
     32  0.252677D-03 -0.339806D-03  0.230737D-03 -0.379597D-03 -0.310521D-02
     33  0.188934D-03 -0.227792D-03 -0.271454D-03 -0.331904D-03 -0.139553D-01
     34  0.201588D-02 -0.288286D-03 -0.716908D-03 -0.149051D-02  0.961586D-02
[...]
    X8       -0.23627   0.00000   0.00000  -0.00048  -0.00051  -0.23678
    Y8        3.21671   0.00001   0.00000  -0.00010  -0.00005   3.21666
    Z8        1.00607   0.00001   0.00000  -0.00013  -0.00013   1.00594
    X9       -0.31201   0.00001   0.00000  -0.00016  -0.00010  -0.31211
    Y9        0.18242  -0.00001   0.00000  -0.00011  -0.00006   0.18235
    Z9       -0.90406   0.00000   0.00000   0.00017   0.00017  -0.90390
   X10        0.26473  -0.00003   0.00000   0.00071   0.00086   0.26559
   Y10       -0.27169  -0.00001   0.00000   0.00121   0.00126  -0.27042
   Z10       -4.28155   0.00000   0.00000   0.00016   0.00017  -4.28138
   X11       -1.53656   0.00002   0.00000   0.00087   0.00103  -1.53553
   Y11       -0.33289   0.00000   0.00000  -0.00045  -0.00042  -0.33331
   Z11       -4.60602   0.00000   0.00000  -0.00012  -0.00016  -4.60617
   X12        1.45996   0.00000   0.00000   0.00024   0.00021   1.46017
   Y12       -2.78801   0.00000   0.00000   0.00006   0.00014  -2.78787
   Z12        4.98599   0.00000   0.00000   0.00016   0.00020   4.98618
   X13        0.54044   0.00000   0.00000   0.00022   0.00021   0.54065
   Y13       -4.59332   0.00000   0.00000   0.00017   0.00022  -4.59309
   Z13        5.27974   0.00000   0.00000   0.00070   0.00072   5.28046
   X14        3.43475   0.00000   0.00000   0.00036   0.00031   3.43506
   Y14       -2.64881   0.00000   0.00000   0.00012   0.00022  -2.64859
   Z14        5.52371   0.00000   0.00000  -0.00025  -0.00016   5.52354
   X15        3.19725   0.00000   0.00000  -0.00006  -0.00013   3.19712
   Y15        2.01528   0.00000   0.00000   0.00001   0.00011   2.01539
   Z15        3.65894   0.00000   0.00000  -0.00096  -0.00088   3.65807
   X16        3.08099  -0.00001   0.00000  -0.00049  -0.00043   3.08056
   Y16       -1.25782   0.00000   0.00000  -0.00104  -0.00094  -1.25876
   Z16        0.30107   0.00000   0.00000  -0.00019  -0.00012   0.30096
         Item               Value     Threshold  Converged?
 Maximum Force            0.000034     0.000450     YES
 RMS     Force            0.000008     0.000300     YES
 Maximum Displacement     0.001261     0.001800     YES
 RMS     Displacement     0.000440     0.001200     YES
 Predicted change in Energy=-4.077594D-09
 Optimization completed.
    -- Stationary point found.
 GradGradGradGradGradGradGradGradGradGradGradGradGradGradGradGradGradGrad


 Test job not archived.
 1\1\GINC-NODE39\Freq\UB3LYP\CBSB7\C4H9O3(2)\GOLDMANM\06-Aug-2019\0\\# 
 freq nosymm b3lyp/cbsb7 iop(7/33=1)\\NBO NRT\\0,2\C,0.54316,-0.80191,0
 .1557\C,0.13487,-0.43351,1.94501\H,0.23665,-1.84448,0.0235\C,0.61635,1
 .00572,2.16756\H,-0.94993,-0.50385,1.88947\H,0.49858,1.23966,3.22927\O
 ,-0.13845,1.96164,1.46694\H,-0.12503,1.70221,0.53239\O,-0.16511,0.0965
 3,-0.47841\O,0.14009,-0.14377,-2.2657\H,-0.81311,-0.17616,-2.4374\C,0.
 77258,-1.47535,2.63847\H,0.28599,-2.43068,2.79392\H,1.81759,-1.40169,2
 .92302\H,1.69191,1.06644,1.93623\H,1.63039,-0.66561,0.15932\\Version=A
 M64L-G03RevD.01\HF=-383.4186426\S2=0.881926\S2-1=0.\S2A=0.751773\RMSD=
 5.888e-09\RMSF=8.366e-06\ZeroPoint=0.126421\Thermal=0.1357826\Dipole=0
 .128582,-1.2359123,0.8774548\DipoleDeriv=0.4295154,0.0431127,-0.208593
 ,0.0758743,0.4355531,0.3148002,-0.128756,0.1118588,-0.2707753,0.059390
 1,-0.0376976,-0.0783397,-0.0704961,0.045642,-0.003455,0.2295295,-0.193
 4046,0.6697631,-0.0015854,-0.0641242,-0.0195169,-0.0419404,-0.1506715,
 -0.0448556,0.0004706,-0.033089,0.0229658,0.4937655,-0.0888184,0.146007
 6,-0.1302246,0.6068394,0.0811991,0.0942877,-0.1952243,0.2485004,-0.054
 1465,-0.0292193,0.0139828,-0.005727,0.0273974,-0.0545531,-0.0419439,0.
 0002587,-0.0028138,0.0539549,-0.00173,0.0126163,0.0132269,-0.0161651,-
 0.0561199,-0.0054498,-0.0324466,-0.118939,-0.539088,0.086663,-0.075967
 9,0.0861814,-0.8155168,-0.0161848,-0.1221867,0.1672679,-0.3593745,0.25
 43296,0.0508941,0.0223076,-0.0030848,0.4567119,-0.0285427,-0.0083211,0
 .0605774,0.2130421,-0.3695125,0.0670216,0.1468693,0.0071169,-0.4373655
 ,-0.2934074,0.3093556,-0.3886226,1.0676654,-0.1061517,-0.0266852,-0.00
 49581,-0.0238418,-0.351028,-0.1406213,-0.3189603,0.4063167,-1.4974035,
 0.1159517,-0.035736,0.1733299,-0.0052026,0.3166726,0.0021281,0.0153366
 ,-0.0242181,0.3408391,0.0493586,0.1199246,-0.0496445,0.1781115,-0.1343
 051,0.1492914,-0.0361635,0.0672023,-0.6475211,0.0374616,-0.0590194,-0.
 0408843,-0.0350133,-0.0296877,0.0425369,-0.018786,0.0422649,0.1378029,
 -0.0496728,-0.0011159,-0.0458315,-0.0493207,0.0571186,0.0337435,-0.025
 2657,0.0051126,0.1264507,-0.2178062,-0.0045792,-0.0102991,0.0445419,-0
 .0179641,0.0161144,0.0529403,0.0199881,0.020716,-0.1557643,-0.0188908,
 0.0189213,-0.0402018,0.0067687,-0.0020739,0.0039127,-0.0138422,0.04908
 15\Polar=53.3190004,-5.5673858,64.1705602,15.475664,-16.2841594,130.79
 82004\PG=C01 [X(C4H9O3)]\NImag=1\\0.59497424,0.01394554,0.60819801,0.0
 5863520,-0.01713448,0.08646450,-0.03065448,-0.00634986,0.01514662,0.61
 856305,-0.00744049,-0.01690598,-0.04411498,-0.03184639,0.50791499,0.02
 669505,-0.03657926,0.17641357,0.09073654,-0.05582516,0.05763422,-0.089
 06123,-0.07709757,-0.01953501,0.00076034,0.00217254,0.00613504,0.08036
 699,-0.08216704,-0.26617811,-0.03351763,-0.00016737,-0.00034808,-0.000
 85919,0.07414071,0.30053307,-0.00964611,-0.04181229,-0.03713998,-0.005
 73831,-0.01005082,-0.01532870,0.01816542,0.02613785,0.04761006,0.00477
 841,-0.00194230,0.00624038,-0.10481876,-0.02599745,-0.01452669,-0.0007
 7940,0.00008996,0.00010172,0.54617471,-0.00197381,-0.01109661,-0.00568
 303,-0.04052056,-0.13545333,-0.02493657,0.00002400,-0.00037449,-0.0006
 9740,-0.01224180,0.42299912,-0.00676385,-0.01882262,-0.02449600,-0.009
 80195,-0.01737702,-0.05356330,0.00044835,0.00017897,-0.00384186,-0.025
 91990,0.01773712,0.59181493,-0.00489103,-0.00065207,0.00463400,-0.3215
 6519,-0.02014502,-0.02049649,0.00043655,0.00030748,-0.00006054,-0.0097
 2682,0.00084086,-0.00032053,0.34147261,0.00121380,0.00251574,-0.006040
 69,-0.01910146,-0.05827672,0.00429943,0.00034807,-0.00010133,0.0002330
 5,-0.03072432,-0.00024285,-0.00063775,0.01992752,0.05585957,0.01604683
 ,0.00354916,-0.02158738,-0.01186704,-0.00437839,-0.02157970,-0.0004550
 2,-0.00007116,0.00188137,-0.00521266,0.00076056,0.00058486,0.01960102,
 -0.00164396,0.04475646,-0.00075535,-0.00002537,-0.00157437,0.00207024,
 -0.00613649,-0.00861061,0.00045039,0.00002851,-0.00005607,-0.05618296,
 0.00792410,0.03920638,0.00002278,0.00047067,0.00002763,0.05763238,-0.0
 0148279,-0.00352406,-0.00241162,0.00421560,-0.01117984,-0.02397557,0.0
 0022450,0.00017115,-0.00125699,0.00653930,-0.05999958,-0.06548219,-0.0
 0028854,0.00046467,0.00010441,-0.01260938,0.07234635,-0.00043596,0.000
 26357,-0.00172601,0.00153379,-0.00497665,-0.00144606,-0.00010729,-0.00
 007344,0.00005484,0.03373656,-0.05656737,-0.28429865,-0.00022142,-0.00
 031302,-0.00023586,-0.02917966,0.05487219,0.31616026,-0.00183255,-0.00
 065645,-0.00038972,0.00555661,0.00164532,-0.00004520,0.00022270,0.0000
 3190,0.00014576,-0.12102236,0.07150804,-0.03254881,0.00227190,0.002713
 91,0.00036502,0.00073145,0.00279281,-0.00635126,0.15211175,-0.00069715
 ,0.00441483,0.00267809,0.02864911,-0.04225613,0.02342644,-0.00022240,-
 0.00003721,0.00081460,0.06444886,-0.14301374,0.02590842,0.00054739,0.0
 0348289,-0.00006047,-0.00051183,0.00228236,0.00416009,-0.12665536,0.26
 285895,-0.00232605,0.00023117,-0.00219455,-0.00112789,0.01019308,-0.00
 323756,0.00028939,-0.00063481,0.00115963,-0.05453853,0.05914004,-0.132
 04565,0.00070736,0.00021889,-0.00004419,-0.02644408,0.03288513,-0.0240
 1543,0.06510876,0.04932010,0.59843388,0.00080738,0.00197377,0.00007479
 ,0.00154647,0.00142394,0.00060594,-0.00020206,-0.00023588,0.00000786,-
 0.00314315,-0.00343574,-0.02752414,-0.00013919,-0.00046682,0.00042408,
 -0.00112713,0.00248969,-0.00123489,-0.02341235,0.02497123,0.02361913,0
 .03033960,0.00315197,-0.00402586,0.00160689,0.00017016,-0.00055364,0.0
 0469617,-0.00014156,0.00086136,-0.00088800,0.00132872,0.00668329,0.033
 50697,-0.00038138,-0.00062388,-0.00006966,0.00330090,-0.00372551,0.003
 90233,0.01875220,-0.07069335,-0.13948585,-0.02408568,0.07105418,0.0029
 2425,0.00108641,0.00428364,0.00215403,-0.00397813,0.00455992,-0.000712
 93,0.00134283,-0.00084996,-0.00269958,0.00228079,-0.02843223,-0.000000
 54,0.00033860,-0.00060345,-0.00269789,0.00203512,0.00077833,-0.0032883
 4,-0.10168365,-0.43969373,0.00667404,0.09824580,0.46600650,-0.18064738
 ,0.11812433,-0.03214957,-0.00370303,0.00721293,-0.04179779,0.01376923,
 0.00873333,-0.00486969,-0.00222212,0.00083195,0.00314522,0.00070303,0.
 00099412,0.00484769,0.00042024,0.00032452,0.00052241,0.00346282,0.0005
 3487,0.00201898,-0.00368073,-0.00205942,-0.00244312,0.20466361,0.11888
 533,-0.23421733,0.03419843,0.00246239,-0.00968342,0.05671629,0.0265398
 2,-0.03540319,0.02991517,0.00374207,-0.00362992,-0.00295194,0.00132766
 ,-0.00164782,-0.00456378,-0.00059202,-0.00027004,-0.00077647,-0.000426
 28,-0.00373568,-0.01405757,-0.00248790,0.00008714,0.00301704,-0.165172
 12,0.27897848,-0.05284180,0.05356997,0.02534756,-0.01388465,0.04294195
 ,-0.15983303,0.00402655,0.01086749,-0.00580053,-0.00316520,-0.01087658
 ,0.01666084,-0.00449309,0.00496285,0.01176777,0.00153191,0.00286748,0.
 00169249,-0.00142178,-0.00524070,-0.01409456,-0.00152947,0.00503254,0.
 00033853,0.06460214,-0.06032735,0.02153296,0.00836560,-0.00888133,0.00
 458974,-0.00143508,0.00450959,-0.01261261,-0.00017555,0.00072050,-0.00
 034859,-0.00060838,-0.00094623,0.00134058,-0.00019049,0.00044211,0.000
 49225,0.00014666,0.00010179,0.00019985,0.00039144,-0.00022993,-0.00076
 556,-0.00052307,0.00087178,0.00042991,-0.02411373,0.01135188,-0.017240
 12,0.51510210,-0.00722502,0.00773836,-0.00173858,0.00115890,-0.0030845
 6,0.01072365,-0.00099336,0.00201287,0.00059006,0.00084308,0.00000666,-
 0.00014459,0.00018003,-0.00045886,-0.00079982,-0.00021919,0.00013028,-
 0.00027223,-0.00017302,-0.00036341,-0.00009841,0.00032467,0.00008458,-
 0.00024673,0.01329355,-0.01586603,0.00394357,0.01170421,0.00711470,-0.
 03029931,0.04385845,-0.10810240,0.00473397,-0.02208207,0.08547148,-0.0
 0172450,-0.00269167,0.00693449,0.00297056,0.00849011,-0.01020993,0.002
 09507,-0.00324691,-0.00702093,-0.00121578,-0.00143736,-0.00106129,0.00
 128956,-0.00294620,0.00685438,0.00053044,-0.00390295,-0.00567190,0.040
 32329,-0.04259784,0.08226269,0.08807602,-0.00296450,-0.00171762,-0.000
 98276,0.00104354,0.00054833,0.00058743,-0.00051286,0.00000457,-0.00005
 139,-0.00020262,-0.00004836,-0.00019488,-0.00048273,0.00016025,-0.0000
 0643,0.00009274,-0.00002826,0.00004312,0.00005874,-0.00000198,-0.00012
 286,0.00054788,-0.00014762,0.00005702,-0.00035289,-0.00000120,0.003694
 27,0.00080870,0.00621866,-0.50112427,-0.01639387,-0.08751475,0.4974842
 4,0.00151843,0.00011212,-0.00130184,-0.00000732,-0.00019466,0.00089679
 ,0.00018068,-0.00047304,0.00040855,-0.00016591,0.00034397,-0.00028104,
 0.00000245,0.00003078,-0.00004098,0.00000633,-0.00007343,0.00002439,0.
 00025196,-0.00033975,0.00025268,-0.00033981,0.00023074,-0.00037960,-0.
 00310521,0.00014240,-0.00171312,-0.01369385,-0.00202491,-0.00383536,0.
 01558229,0.00234606,0.00010981,-0.00028062,-0.00384748,-0.00032000,0.0
 0096746,-0.00140999,-0.00001499,-0.00001895,0.00009197,-0.00026297,-0.
 00018185,0.00008221,0.00010101,0.00007684,-0.00008322,0.00001028,0.000
 01360,0.00007871,0.00022065,0.00017239,0.00018893,-0.00022779,-0.00027
 145,-0.00033190,-0.01395531,0.00009408,-0.01023635,-0.06712298,-0.0056
 8850,-0.02670420,0.08040024,0.00607010,0.04123089,-0.00882818,0.008910
 62,-0.03857304,-0.15208212,0.06585959,-0.02873074,-0.00039837,-0.00018
 718,0.00103348,0.01136529,0.00312432,0.00423065,-0.01047290,0.02407413
 ,-0.02324181,-0.00002779,-0.00130875,-0.00142212,0.00192815,-0.0060160
 0,0.00201588,-0.00028829,-0.00071691,-0.00149051,0.00961586,-0.0112671
 0,0.03148248,0.00357661,-0.00270448,-0.02100870,0.00002445,-0.00016484
 ,0.00045632,0.57192524,0.00912477,-0.01766786,0.06397216,0.08011464,-0
 .21784630,0.03931995,0.00186273,0.00108010,-0.00597130,0.00971438,-0.0
 2910941,0.02040526,-0.00213648,0.00615398,0.00525735,0.00124276,0.0008
 7010,0.00281630,-0.00080114,-0.00596959,0.00003575,-0.00011132,0.00036
 326,-0.00004993,-0.01362905,0.01770685,-0.04851756,-0.00488698,0.00441
 293,0.03172163,0.00004611,0.00022720,-0.00061811,0.06443662,0.56895311
 ,-0.01088100,0.01903658,-0.06948564,-0.06887574,0.09129964,-0.05057897
 ,-0.00016145,0.00096710,0.00082035,0.00436651,0.00518032,-0.00508587,-
 0.00018769,0.00047349,-0.00629046,-0.00079201,-0.00197912,0.00046395,0
 .00084102,-0.00224761,0.00431239,-0.00002876,-0.00223462,-0.00209560,0
 .00866469,-0.01135246,0.04126638,0.00405919,-0.00349306,-0.02999946,0.
 00065374,-0.00029187,0.00070345,0.13308607,-0.14590436,0.20025698,-0.0
 0039737,0.00030454,-0.00069582,0.00978436,0.01413652,-0.00173114,0.000
 29217,0.00014996,-0.00011730,-0.00057436,0.00102720,-0.00284639,0.0009
 9700,0.00015382,0.00165248,-0.00024195,-0.00014934,-0.00005707,0.00015
 715,0.00102114,-0.00007340,-0.00002040,-0.00017599,-0.00006587,0.00000
 625,-0.00009069,0.00059969,-0.00003940,-0.00004573,-0.00049442,0.00005
 818,-0.00000668,-0.00002070,-0.11419882,-0.11982665,0.00912220,0.11114
 438,-0.00022599,-0.00071103,-0.00067944,-0.01122640,-0.01472896,0.0006
 5637,-0.00002075,0.00025564,0.00041774,0.00209387,0.00064742,0.0041677
 5,0.00028085,0.00058208,-0.00145483,0.00017420,0.00029380,-0.00007990,
 -0.00005146,-0.00145433,0.00017627,-0.00003541,-0.00001351,-0.00028589
 ,0.00025907,0.00030392,0.00070059,0.00012977,-0.00003004,-0.00046962,-
 0.00001978,-0.00001972,0.00004096,-0.11940868,-0.27255151,0.04565947,0
 .12670658,0.28544585,-0.00003827,0.00015967,-0.00111654,0.00747660,0.0
 1927222,0.00500577,-0.00025579,-0.00031147,-0.00005603,-0.00394091,-0.
 00293362,0.00144796,0.00006945,-0.00156590,-0.00276626,0.00038544,0.00
 047292,0.00038588,-0.00038113,0.00212824,-0.00071902,-0.00002339,0.000
 19641,0.00072705,0.00093008,-0.00087541,0.00082517,0.00006960,-0.00014
 036,-0.00017159,-0.00008058,0.00003850,-0.00000820,0.00888899,0.039523
 78,-0.03656159,-0.00895456,-0.04989547,0.02754146,-0.00046744,-0.00036
 494,0.00044175,-0.01014499,-0.00106099,-0.00188515,-0.00001753,0.00009
 686,0.00012307,0.00029296,-0.00241556,0.00072583,0.00071584,0.00109020
 ,-0.00282518,0.00001032,0.00046710,0.00022998,0.00007563,0.00027745,-0
 .00011577,-0.00008786,-0.00008837,0.00013386,0.00047953,0.00018532,-0.
 00134282,-0.00014117,0.00012464,0.00083879,-0.00000645,-0.00000359,0.0
 0000423,-0.31250910,-0.02488160,-0.07844824,-0.00759761,0.00171277,-0.
 00401683,0.32884903,0.00043797,-0.00030777,0.00068332,0.02230192,0.006
 35334,0.00367536,-0.00004564,0.00003793,-0.00005497,0.00209756,0.00176
 196,-0.00109084,0.00145531,-0.00213905,0.00416673,-0.00005017,-0.00034
 152,-0.00030683,-0.00082737,-0.00007809,-0.00041319,0.00010935,0.00022
 567,0.00004898,-0.00047722,0.00005770,0.00038712,0.00000861,-0.0000764
 2,-0.00002690,-0.00003504,0.00000362,-0.00003064,-0.02493992,-0.056386
 49,0.00503324,-0.02355674,0.00181069,-0.00604540,0.02404004,0.04891829
 ,-0.00001937,-0.00036252,0.00136073,-0.01851551,-0.00143359,-0.0001561
 8,0.00015117,0.00007176,-0.00042811,0.00063217,0.00105106,-0.00189476,
 -0.00074288,0.00392141,0.00301635,-0.00019803,-0.00040558,-0.00046526,
 0.00077142,-0.00018613,0.00002063,-0.00015877,0.00002823,0.00000976,-0
 .00020129,-0.00043227,0.00194959,0.00016215,-0.00012527,-0.00066752,-0
 .00003582,0.00000304,-0.00005121,-0.07295342,0.00257092,-0.05138862,0.
 00357903,0.00130174,0.00587894,0.08653148,-0.00661045,0.04277378,-0.00
 072868,0.00127239,0.00133424,-0.01149614,-0.00332543,0.00314959,0.0006
 1448,0.00013566,0.00023140,-0.26260175,-0.02276260,0.05737966,0.000182
 69,-0.00141125,0.00000296,-0.00364013,-0.00132998,0.00294082,-0.020910
 06,0.01288983,-0.00874157,0.00023010,0.00111057,0.00167907,0.00048374,
 -0.00049762,-0.00070138,-0.00002193,-0.00006389,0.00013964,0.00003952,
 0.00005501,0.00002355,-0.00015556,-0.00038997,-0.00031931,0.00051365,-
 0.00040305,0.00010042,0.00028690,-0.00054259,0.00059410,0.29621108,-0.
 00110032,0.00044127,0.00219325,-0.03184508,-0.00520324,0.00440418,0.00
 019866,0.00008248,0.00001904,-0.02171758,-0.04990891,0.00503006,-0.001
 59696,-0.00560256,-0.00062830,0.00718855,0.00249154,-0.00280356,0.0322
 6121,-0.00466484,0.00229422,-0.00058197,-0.00019939,-0.00183060,0.0001
 1635,0.00058533,-0.00021114,-0.00010904,0.00010894,0.00010998,0.000022
 71,-0.00004320,-0.00005665,-0.00055127,0.00120242,-0.00090627,0.000372
 24,0.00009392,-0.00001179,0.00075986,-0.00002289,0.00039036,0.01581343
 ,0.06043767,-0.00183541,-0.00019514,0.00075983,-0.00641811,-0.00528665
 ,0.00104678,0.00003720,0.00003734,-0.00007528,0.06071278,0.00594644,-0
 .06937759,-0.00106919,-0.00094651,0.00039428,0.02979976,0.00320938,-0.
 00663811,-0.02404077,0.00455838,0.00535329,-0.00120698,-0.00041632,0.0
 0138780,0.00035445,-0.00001246,-0.00004640,0.00007415,-0.00002093,-0.0
 0004205,-0.00001560,0.00001181,0.00000721,-0.00023048,0.00042797,0.000
 40370,0.00003817,-0.00013142,-0.00015521,0.00003415,0.00028775,0.00001
 073,-0.05649726,-0.00757677,0.06653307,-0.28967921,-0.04960482,0.00127
 248,-0.00296872,-0.00049532,0.00310968,-0.00622732,-0.00147476,0.00107
 627,-0.00073643,-0.00050143,-0.00091137,0.00018968,0.00018274,0.000170
 01,0.00044772,-0.00004526,-0.00015176,0.00039059,0.00044491,0.00052097
 ,-0.00035634,-0.00068411,-0.00059516,-0.02293158,0.01523056,-0.0118411
 1,0.00079066,0.00018948,0.00126013,0.00050080,-0.00010995,0.00059868,0
 .00052554,0.00012117,-0.00109921,0.00011677,0.00003442,-0.00022912,0.0
 0026194,0.00002392,0.00040358,0.00099210,0.00076923,0.00026313,0.31868
 381,-0.04596520,-0.06878572,0.00729015,0.00199171,0.00144652,-0.006638
 89,-0.02717044,-0.00211916,0.00219572,0.00189156,0.00038643,-0.0001465
 5,0.00033090,0.00000335,-0.00012685,-0.00019156,0.00006372,0.00013060,
 -0.00036626,-0.00043289,-0.00005750,0.00048789,0.00024494,0.00005895,0
 .03401800,0.00659161,0.00161289,-0.00109288,0.00029490,0.00202122,-0.0
 0020293,-0.00026816,-0.00028866,0.00085987,-0.00143879,0.00075953,-0.0
 0002019,0.00007577,-0.00001232,0.00006081,0.00018302,0.00021728,-0.000
 55051,0.00020145,0.00010713,0.03591924,0.06355299,0.01067600,-0.006568
 02,-0.02493386,0.01476763,0.00482913,-0.02299824,-0.00628614,-0.001425
 02,0.00496775,0.00150575,0.00128998,0.00265504,0.00038446,-0.00012984,
 -0.00218963,-0.00019290,0.00048821,0.00027219,-0.00027518,-0.00080201,
 -0.00027846,-0.00000208,0.00005351,-0.00041275,-0.02999218,0.01400652,
 -0.01363310,-0.00140358,0.00047570,0.00984585,-0.00011159,0.00013794,0
 .00028919,0.00645695,-0.00498982,0.00325902,0.00006509,-0.00012432,-0.
 00025779,-0.00042911,0.00029674,0.00003115,-0.00131591,-0.00041600,0.0
 0043796,0.00615279,-0.00712268,0.04294568\\0.00000533,0.00000662,-0.00
 000012,0.00000155,-0.00000153,0.00000248,0.00000066,-0.00000473,-0.000
 00301,-0.00000539,0.00000016,-0.00000939,-0.00000414,-0.00000362,-0.00
 000344,-0.00000346,-0.00000489,0.00000649,-0.00000244,-0.00000101,0.00
 002798,0.00000055,-0.00000622,-0.00001133,-0.00000638,0.00000806,-0.00
 000492,0.00003424,0.00000605,0.00000322,-0.00002281,0.00000461,-0.0000
 0436,0.00000014,0.00000175,-0.00000281,0.00000081,-0.00000481,-0.00000
 468,-0.00000403,-0.00000286,-0.00000094,-0.00000090,0.00000034,0.00000
 329,0.00000628,0.00000208,0.00000153\\\@


      HUMANKIND PERIODICALLY GOES THROUGH A SPEEDUP OF ITS AFFAIRS, 
      THEREBY EXPERIENCING THE RACE BETWEEN THE RENEWABLE VITALITY
      OF THE LIVING, AND THE BECKONING VITIATION OF DECADENCE.
      IN THIS PERIODIC RACE, ANY PAUSE BECOMES A LUXURY.
      ONLY THEN CAN ONE REFLECT THAT ALL IS PERMITTED;
      ALL IS POSSIBLE.

                              -- THE APOCRYPHA OF MUAD'DIB
                                 CHILDREN OF DUNE, BY FRANK HERBERT
 Job cpu time:  0 days  1 hours  6 minutes 43.7 seconds.
 File lengths (MBytes):  RWF=    125 Int=      0 D2E=      0 Chk=      8 Scr=      1
 Normal termination of Gaussian 03 at Tue Aug  6 02:30:05 2019.
