 Entering Gaussian System, Link 0=g03
 Input=TS12freq.gjf
 Output=TS12freq.log
 Initial command:
 /opt/g03/l1.exe /scratch/nyee/Gau-5951.inp -scrdir=/scratch/nyee/
 Entering Link 1 = /opt/g03/l1.exe PID=      5953.
  
 Copyright (c) 1988,1990,1992,1993,1995,1998,2003,2004, Gaussian, Inc.
                  All Rights Reserved.
  
 This is the Gaussian(R) 03 program.  It is based on the
 the Gaussian(R) 98 system (copyright 1998, Gaussian, Inc.),
 the Gaussian(R) 94 system (copyright 1995, Gaussian, Inc.),
 the Gaussian 92(TM) system (copyright 1992, Gaussian, Inc.),
 the Gaussian 90(TM) system (copyright 1990, Gaussian, Inc.),
 the Gaussian 88(TM) system (copyright 1988, Gaussian, Inc.),
 the Gaussian 86(TM) system (copyright 1986, Carnegie Mellon
 University), and the Gaussian 82(TM) system (copyright 1983,
 Carnegie Mellon University). Gaussian is a federally registered
 trademark of Gaussian, Inc.
  
 This software contains proprietary and confidential information,
 including trade secrets, belonging to Gaussian, Inc.
  
 This software is provided under written license and may be
 used, copied, transmitted, or stored only in accord with that
 written license.
  
 The following legend is applicable only to US Government
 contracts under FAR:
  
                    RESTRICTED RIGHTS LEGEND
  
 Use, reproduction and disclosure by the US Government is
 subject to restrictions as set forth in subparagraphs (a)
 and (c) of the Commercial Computer Software - Restricted
 Rights clause in FAR 52.227-19.
  
 Gaussian, Inc.
 340 Quinnipiac St., Bldg. 40, Wallingford CT 06492
  
  
 ---------------------------------------------------------------
 Warning -- This program may not be used in any manner that
 competes with the business of Gaussian, Inc. or will provide
 assistance to any competitor of Gaussian, Inc.  The licensee
 of this program is prohibited from giving any competitor of
 Gaussian, Inc. access to this program.  By using this program,
 the user acknowledges that Gaussian, Inc. is engaged in the
 business of creating and licensing software in the field of
 computational chemistry and represents and warrants to the
 licensee that it is not a competitor of Gaussian, Inc. and that
 it will not use this program in any manner prohibited above.
 ---------------------------------------------------------------
  

 Cite this work as:
 Gaussian 03, Revision D.01,
 M. J. Frisch, G. W. Trucks, H. B. Schlegel, G. E. Scuseria, 
 M. A. Robb, J. R. Cheeseman, J. A. Montgomery, Jr., T. Vreven, 
 K. N. Kudin, J. C. Burant, J. M. Millam, S. S. Iyengar, J. Tomasi, 
 V. Barone, B. Mennucci, M. Cossi, G. Scalmani, N. Rega, 
 G. A. Petersson, H. Nakatsuji, M. Hada, M. Ehara, K. Toyota, 
 R. Fukuda, J. Hasegawa, M. Ishida, T. Nakajima, Y. Honda, O. Kitao, 
 H. Nakai, M. Klene, X. Li, J. E. Knox, H. P. Hratchian, J. B. Cross, 
 V. Bakken, C. Adamo, J. Jaramillo, R. Gomperts, R. E. Stratmann, 
 O. Yazyev, A. J. Austin, R. Cammi, C. Pomelli, J. W. Ochterski, 
 P. Y. Ayala, K. Morokuma, G. A. Voth, P. Salvador, J. J. Dannenberg, 
 V. G. Zakrzewski, S. Dapprich, A. D. Daniels, M. C. Strain, 
 O. Farkas, D. K. Malick, A. D. Rabuck, K. Raghavachari, 
 J. B. Foresman, J. V. Ortiz, Q. Cui, A. G. Baboul, S. Clifford, 
 J. Cioslowski, B. B. Stefanov, G. Liu, A. Liashenko, P. Piskorz, 
 I. Komaromi, R. L. Martin, D. J. Fox, T. Keith, M. A. Al-Laham, 
 C. Y. Peng, A. Nanayakkara, M. Challacombe, P. M. W. Gill, 
 B. Johnson, W. Chen, M. W. Wong, C. Gonzalez, and J. A. Pople, 
 Gaussian, Inc., Wallingford CT, 2004.
 
 ******************************************
 Gaussian 03:  AM64L-G03RevD.01 13-Oct-2005
                10-Jul-2014 
 ******************************************
 %chk=TS12.chk
 %mem=1000mb
 %nproc=8
 Will use up to    8 processors via shared memory.
 -------------------------------------
 # freq nosymm b3lyp/cbsb7 iop(7/33=1)
 -------------------------------------
 1/10=4,30=1,38=1/1,3;
 2/15=1,17=6,18=5,40=1/2;
 3/5=4,6=6,7=700,11=2,16=1,25=1,30=1,74=-5/1,2,3;
 4//1;
 5/5=2,38=5/2;
 8/6=4,10=90,11=11/1;
 11/6=1,8=1,9=11,15=111,16=1,31=1/1,2,10;
 10/6=1,31=1/2;
 6/7=2,8=2,9=2,10=2,18=1,28=1/1;
 7/8=1,10=1,25=1,30=1,33=1/1,2,3,16;
 1/10=4,30=1/3;
 99//99;
 -------------------
 Title Card Required
 -------------------
 Symbolic Z-matrix:
 Charge =  0 Multiplicity = 2
 O                    -1.84035   0.62917   0.36251 
 O                    -1.48745  -0.14359  -0.77534 
 C                    -0.24332  -0.77701  -0.47579 
 H                    -0.08465  -1.46961  -1.3059 
 O                    -0.3005   -1.51438   0.70405 
 H                    -0.85624  -1.00307   1.30969 
 C                     0.86173   0.32958  -0.47624 
 H                     0.86939   0.72357  -1.49712 
 C                     2.23348  -0.29812  -0.1637 
 H                     3.02078   0.45796  -0.19352 
 H                     2.22355  -0.75768   0.826 
 H                     2.47947  -1.07366  -0.89509 
 C                     0.5004    1.44355   0.47289 
 H                     0.65437   2.46333   0.12839 
 H                    -0.88895   1.28471   0.48259 
 H                     0.75137   1.28933   1.52148 
 

 GradGradGradGradGradGradGradGradGradGradGradGradGradGradGradGradGradGrad
 Berny optimization.
 Initialization pass.
 Trust Radius=3.00D-01 FncErr=1.00D-07 GrdErr=1.00D-07
 Number of steps in this run=   2 maximum allowed number of steps=   2.
 GradGradGradGradGradGradGradGradGradGradGradGradGradGradGradGradGradGrad

                          Input orientation:                          
 ---------------------------------------------------------------------
 Center     Atomic     Atomic              Coordinates (Angstroms)
 Number     Number      Type              X           Y           Z
 ---------------------------------------------------------------------
    1          8             0       -1.840354    0.629173    0.362509
    2          8             0       -1.487450   -0.143592   -0.775344
    3          6             0       -0.243315   -0.777007   -0.475787
    4          1             0       -0.084648   -1.469606   -1.305898
    5          8             0       -0.300496   -1.514381    0.704050
    6          1             0       -0.856236   -1.003069    1.309685
    7          6             0        0.861725    0.329582   -0.476243
    8          1             0        0.869390    0.723570   -1.497121
    9          6             0        2.233479   -0.298118   -0.163698
   10          1             0        3.020780    0.457955   -0.193522
   11          1             0        2.223549   -0.757683    0.826002
   12          1             0        2.479466   -1.073656   -0.895089
   13          6             0        0.500402    1.443549    0.472886
   14          1             0        0.654374    2.463327    0.128388
   15          1             0       -0.888950    1.284712    0.482591
   16          1             0        0.751369    1.289334    1.521476
 ---------------------------------------------------------------------
                    Distance matrix (angstroms):
                    1          2          3          4          5
     1  O    0.000000
     2  O    1.420006   0.000000
     3  C    2.287054   1.427873   0.000000
     4  H    3.204834   2.001913   1.092682   0.000000
     5  O    2.661322   2.340198   1.392482   2.022001   0.000000
     6  H    2.128343   2.341896   1.901233   2.766637   0.968029
     7  C    2.845082   2.414949   1.563858   2.195684   2.478719
     8  H    3.287833   2.612973   2.129077   2.399328   3.349957
     9  C    4.211042   3.774030   2.541897   2.837379   2.941651
    10  H    4.895826   4.585250   3.501303   3.820544   3.965680
    11  H    4.318970   4.088145   2.789345   3.221739   2.637853
    12  H    4.810616   4.076246   2.770803   2.626827   3.237232
    13  C    2.480833   2.833487   2.526651   3.463066   3.073146
    14  H    3.105254   3.492874   3.416231   4.251034   4.131020
    15  H    1.161603   1.995158   2.363476   3.381104   2.868840
    16  H    2.914798   3.512972   3.041089   4.037910   3.104098
                    6          7          8          9         10
     6  H    0.000000
     7  C    2.813696   0.000000
     8  H    3.719842   1.094293   0.000000
     9  C    3.494875   1.540585   2.163932   0.000000
    10  H    4.407434   2.181268   2.529506   1.091961   0.000000
    11  H    3.127178   2.175443   3.069977   1.091240   1.775608
    12  H    3.999115   2.182108   2.486928   1.094030   1.769477
    13  C    2.920041   1.507423   2.129659   2.538149   2.787077
    14  H    3.961478   2.227429   2.390662   3.194443   3.118496
    15  H    2.432919   2.212803   2.706640   3.559860   4.052980
    16  H    2.807910   2.219050   3.073426   2.748903   2.963551
                   11         12         13         14         15
    11  H    0.000000
    12  H    1.768470   0.000000
    13  C    2.817685   3.482007   0.000000
    14  H    3.650189   4.109588   1.087352   0.000000
    15  H    3.738577   4.336603   1.398436   1.973941   0.000000
    16  H    2.615583   3.796028   1.089178   1.824380   1.941636
                   16
    16  H    0.000000
 Symmetry turned off by external request.
 Stoichiometry    C4H9O3(2)
 Framework group  C1[X(C4H9O3)]
 Deg. of freedom    42
 Full point group                 C1
 Rotational constants (GHZ):      3.8740911      2.2551418      1.8101196
 Standard basis: CBSB7 (5D, 7F)
 Integral buffers will be    131072 words long.
 Raffenetti 2 integral format.
 Two-electron integral symmetry is turned off.
   180 basis functions,   296 primitive gaussians,   187 cartesian basis functions
    29 alpha electrons       28 beta electrons
       nuclear repulsion energy       342.3499992357 Hartrees.
 NAtoms=   16 NActive=   16 NUniq=   16 SFac= 7.50D-01 NAtFMM=   80 NAOKFM=F Big=F
 One-electron integrals computed using PRISM.
 NBasis=   180 RedAO= T  NBF=   180
 NBsUse=   180 1.00D-06 NBFU=   180
 Harris functional with IExCor=  402 diagonalized for initial guess.
 ExpMin= 1.03D-01 ExpMax= 8.59D+03 ExpMxC= 1.30D+03 IAcc=1 IRadAn=         1 AccDes= 1.00D-06
 HarFok:  IExCor= 402 AccDes= 1.00D-06 IRadAn=         1 IDoV=1
 ScaDFX=  1.000000  1.000000  1.000000  1.000000
 <S**2> of initial guess= 0.7500
 Requested convergence on RMS density matrix=1.00D-08 within 128 cycles.
 Requested convergence on MAX density matrix=1.00D-06.
 Requested convergence on             energy=1.00D-06.
 No special actions if energy rises.
 Integral accuracy reduced to 1.0D-05 until final iterations.
 Initial convergence to 1.0D-05 achieved.  Increase integral accuracy.
 SCF Done:  E(UB+HF-LYP) =  -383.454196253     A.U. after   18 cycles
             Convg  =    0.8228D-08             -V/T =  2.0033
             S**2   =   0.7563
 Annihilation of the first spin contaminant:
 S**2 before annihilation     0.7563,   after     0.7500
 Range of M.O.s used for correlation:     1   180
 NBasis=   180 NAE=    29 NBE=    28 NFC=     0 NFV=     0
 NROrb=    180 NOA=    29 NOB=    28 NVA=   151 NVB=   152
 Symmetrizing basis deriv contribution to polar:
 IMax=3 JMax=2 DiffMx= 0.00D+00
 G2DrvN: will do   17 centers at a time, making    1 passes doing MaxLOS=2.
 FoFDir/FoFCou used for L=0 through L=2.
 DoAtom=TTTTTTTTTTTTTTTT
          Differentiating once with respect to electric field.
                with respect to dipole field.
          Differentiating once with respect to nuclear coordinates.
 Symmetry not used in FoFDir.
 MinBra= 0 MaxBra= 2 Meth= 1.
 IRaf=       0 NMat=  51 IRICut=      51 DoRegI=T DoRafI=T ISym2E= 0 JSym2E=0.
          There are  51 degrees of freedom in the 1st order CPHF.
    48 vectors were produced by pass  0.
 AX will form  48 AO Fock derivatives at one time.
    48 vectors were produced by pass  1.
    48 vectors were produced by pass  2.
    48 vectors were produced by pass  3.
    48 vectors were produced by pass  4.
    48 vectors were produced by pass  5.
    28 vectors were produced by pass  6.
     3 vectors were produced by pass  7.
     3 vectors were produced by pass  8.
 Inv2:  IOpt= 1 Iter= 1 AM= 2.84D-15 Conv= 1.00D-12.
 Inverted reduced A of dimension  322 with in-core refinement.
 Isotropic polarizability for W=    0.000000       61.82 Bohr**3.
 End of Minotr Frequency-dependent properties file   721 does not exist.

 **********************************************************************

            Population analysis using the SCF density.

 **********************************************************************

 Alpha  occ. eigenvalues --  -19.19553 -19.18751 -19.13223 -10.28718 -10.20066
 Alpha  occ. eigenvalues --  -10.19963 -10.17695  -1.15282  -1.04418  -0.90116
 Alpha  occ. eigenvalues --   -0.82381  -0.71002  -0.67552  -0.59929  -0.56450
 Alpha  occ. eigenvalues --   -0.52159  -0.49510  -0.48006  -0.45941  -0.42342
 Alpha  occ. eigenvalues --   -0.41670  -0.39708  -0.39047  -0.38097  -0.36071
 Alpha  occ. eigenvalues --   -0.35093  -0.30490  -0.28317  -0.23812
 Alpha virt. eigenvalues --    0.01784   0.03562   0.05495   0.07426   0.08287
 Alpha virt. eigenvalues --    0.09293   0.11829   0.12251   0.12471   0.16262
 Alpha virt. eigenvalues --    0.17594   0.18766   0.20093   0.22520   0.25054
 Alpha virt. eigenvalues --    0.28334   0.29986   0.31953   0.34545   0.36371
 Alpha virt. eigenvalues --    0.39290   0.41431   0.46781   0.47770   0.49081
 Alpha virt. eigenvalues --    0.50049   0.52158   0.53587   0.55052   0.56272
 Alpha virt. eigenvalues --    0.57012   0.57812   0.58933   0.60945   0.63543
 Alpha virt. eigenvalues --    0.64749   0.68728   0.73179   0.75669   0.80996
 Alpha virt. eigenvalues --    0.83058   0.86840   0.87369   0.92359   0.94363
 Alpha virt. eigenvalues --    0.96094   0.98217   1.02152   1.05187   1.05806
 Alpha virt. eigenvalues --    1.15825   1.18157   1.18978   1.25307   1.31289
 Alpha virt. eigenvalues --    1.33486   1.36910   1.38589   1.39327   1.42010
 Alpha virt. eigenvalues --    1.44785   1.46374   1.48053   1.49309   1.53408
 Alpha virt. eigenvalues --    1.53980   1.55897   1.59268   1.59866   1.61144
 Alpha virt. eigenvalues --    1.63179   1.67034   1.68774   1.70722   1.73085
 Alpha virt. eigenvalues --    1.77173   1.79321   1.82058   1.84530   1.89564
 Alpha virt. eigenvalues --    1.92520   1.96639   1.97615   2.03268   2.05456
 Alpha virt. eigenvalues --    2.07468   2.09927   2.16006   2.21919   2.23346
 Alpha virt. eigenvalues --    2.26195   2.34653   2.37469   2.41038   2.43730
 Alpha virt. eigenvalues --    2.44783   2.47221   2.48437   2.51019   2.52171
 Alpha virt. eigenvalues --    2.55371   2.56846   2.59013   2.59678   2.64251
 Alpha virt. eigenvalues --    2.67899   2.71873   2.73604   2.75720   2.78710
 Alpha virt. eigenvalues --    2.84438   2.87055   2.91408   2.95804   3.00865
 Alpha virt. eigenvalues --    3.07863   3.08904   3.14787   3.18293   3.21398
 Alpha virt. eigenvalues --    3.30629   3.34765   3.40651   3.45739   3.61793
 Alpha virt. eigenvalues --    3.72847   3.74605   3.78328   3.79940   3.81772
 Alpha virt. eigenvalues --    3.90994   3.94711   4.02863   4.18901   4.24642
 Alpha virt. eigenvalues --    4.69175   4.84272   4.87647   4.91967   5.15863
 Alpha virt. eigenvalues --    5.19970   5.33045   5.61834   5.74909  23.66678
 Alpha virt. eigenvalues --   23.80757  23.82074  23.91469  49.76047  49.82311
 Alpha virt. eigenvalues --   49.90778
  Beta  occ. eigenvalues --  -19.19338 -19.17656 -19.13203 -10.28656 -10.20070
  Beta  occ. eigenvalues --  -10.19046 -10.17598  -1.14260  -1.04146  -0.88486
  Beta  occ. eigenvalues --   -0.81559  -0.69776  -0.66754  -0.59306  -0.55497
  Beta  occ. eigenvalues --   -0.51765  -0.48520  -0.46860  -0.45344  -0.41643
  Beta  occ. eigenvalues --   -0.41227  -0.39143  -0.37965  -0.37245  -0.35806
  Beta  occ. eigenvalues --   -0.33549  -0.29458  -0.27311
  Beta virt. eigenvalues --   -0.12664   0.02416   0.03819   0.05742   0.07629
  Beta virt. eigenvalues --    0.08444   0.09489   0.11912   0.12476   0.12611
  Beta virt. eigenvalues --    0.17049   0.18086   0.19192   0.20295   0.22827
  Beta virt. eigenvalues --    0.25584   0.28830   0.30268   0.32185   0.34851
  Beta virt. eigenvalues --    0.36488   0.39798   0.41907   0.47239   0.48172
  Beta virt. eigenvalues --    0.49871   0.50654   0.53465   0.54063   0.55295
  Beta virt. eigenvalues --    0.56653   0.57206   0.58000   0.59282   0.61322
  Beta virt. eigenvalues --    0.64014   0.65081   0.69174   0.73819   0.76566
  Beta virt. eigenvalues --    0.81538   0.83244   0.87229   0.87665   0.92679
  Beta virt. eigenvalues --    0.94812   0.96373   0.98970   1.02812   1.05575
  Beta virt. eigenvalues --    1.06316   1.16109   1.18639   1.19123   1.25875
  Beta virt. eigenvalues --    1.31552   1.33840   1.37158   1.39039   1.40004
  Beta virt. eigenvalues --    1.42273   1.45195   1.46493   1.48302   1.49775
  Beta virt. eigenvalues --    1.53886   1.54483   1.56459   1.59672   1.60093
  Beta virt. eigenvalues --    1.61774   1.63430   1.67217   1.69043   1.70963
  Beta virt. eigenvalues --    1.73371   1.77303   1.79501   1.82300   1.84734
  Beta virt. eigenvalues --    1.89933   1.93188   1.97186   1.98391   2.03896
  Beta virt. eigenvalues --    2.05790   2.07916   2.10153   2.17198   2.22681
  Beta virt. eigenvalues --    2.24261   2.26439   2.34886   2.37753   2.41298
  Beta virt. eigenvalues --    2.44148   2.44890   2.47367   2.48605   2.51233
  Beta virt. eigenvalues --    2.52738   2.55849   2.57075   2.59291   2.60128
  Beta virt. eigenvalues --    2.64496   2.68326   2.72178   2.73864   2.76127
  Beta virt. eigenvalues --    2.79126   2.84641   2.87379   2.91617   2.98152
  Beta virt. eigenvalues --    3.01255   3.08088   3.09269   3.14991   3.20010
  Beta virt. eigenvalues --    3.21716   3.31100   3.35924   3.40895   3.47166
  Beta virt. eigenvalues --    3.62428   3.73888   3.75369   3.78534   3.80180
  Beta virt. eigenvalues --    3.83970   3.91128   3.94855   4.03115   4.19461
  Beta virt. eigenvalues --    4.25092   4.69694   4.84998   4.88248   4.92416
  Beta virt. eigenvalues --    5.19215   5.20332   5.33194   5.62084   5.75460
  Beta virt. eigenvalues --   23.66818  23.80855  23.82903  23.91611  49.76964
  Beta virt. eigenvalues --   49.82586  49.90904
          Condensed to atoms (all electrons):
              1          2          3          4          5          6
     1  O    8.131270   0.074660  -0.048800   0.005475  -0.012465   0.034612
     2  O    0.074660   8.041100   0.235676  -0.018525  -0.041238  -0.012000
     3  C   -0.048800   0.235676   4.795083   0.404791   0.301935  -0.045977
     4  H    0.005475  -0.018525   0.404791   0.548443  -0.028566   0.007689
     5  O   -0.012465  -0.041238   0.301935  -0.028566   7.876675   0.322640
     6  H    0.034612  -0.012000  -0.045977   0.007689   0.322640   0.450117
     7  C   -0.031227  -0.051702   0.303609  -0.061650  -0.085249  -0.006400
     8  H    0.000251   0.005730  -0.036034  -0.002711   0.005274  -0.000472
     9  C    0.000100   0.004248  -0.062971  -0.002999  -0.003721   0.000411
    10  H    0.000015  -0.000243   0.007297  -0.000180  -0.000097   0.000036
    11  H   -0.000159   0.000509  -0.010622  -0.000276   0.017912  -0.000932
    12  H    0.000019   0.000061  -0.003593   0.003426  -0.000627  -0.000102
    13  C   -0.062601  -0.001396  -0.047961   0.010301   0.007621   0.007439
    14  H    0.001797   0.000214   0.005447  -0.000109   0.000062   0.000223
    15  H    0.152946  -0.038471  -0.007225  -0.001696   0.002435  -0.003470
    16  H    0.001477   0.000686  -0.000198  -0.000064   0.003950  -0.000543
              7          8          9         10         11         12
     1  O   -0.031227   0.000251   0.000100   0.000015  -0.000159   0.000019
     2  O   -0.051702   0.005730   0.004248  -0.000243   0.000509   0.000061
     3  C    0.303609  -0.036034  -0.062971   0.007297  -0.010622  -0.003593
     4  H   -0.061650  -0.002711  -0.002999  -0.000180  -0.000276   0.003426
     5  O   -0.085249   0.005274  -0.003721  -0.000097   0.017912  -0.000627
     6  H   -0.006400  -0.000472   0.000411   0.000036  -0.000932  -0.000102
     7  C    5.313317   0.383371   0.328730  -0.029024  -0.035840  -0.033569
     8  H    0.383371   0.582463  -0.032048  -0.006394   0.008499  -0.005741
     9  C    0.328730  -0.032048   4.902587   0.398158   0.397407   0.399388
    10  H   -0.029024  -0.006394   0.398158   0.575931  -0.027357  -0.028086
    11  H   -0.035840   0.008499   0.397407  -0.027357   0.554993  -0.026288
    12  H   -0.033569  -0.005741   0.399388  -0.028086  -0.026288   0.576930
    13  C    0.272902  -0.033528  -0.066568  -0.004541  -0.005573   0.008610
    14  H   -0.028514  -0.009231   0.001124   0.001513  -0.000330  -0.000277
    15  H   -0.001206   0.000409   0.002601  -0.000015  -0.000116  -0.000282
    16  H   -0.044089   0.007621  -0.005999  -0.000766   0.004982   0.000145
             13         14         15         16
     1  O   -0.062601   0.001797   0.152946   0.001477
     2  O   -0.001396   0.000214  -0.038471   0.000686
     3  C   -0.047961   0.005447  -0.007225  -0.000198
     4  H    0.010301  -0.000109  -0.001696  -0.000064
     5  O    0.007621   0.000062   0.002435   0.003950
     6  H    0.007439   0.000223  -0.003470  -0.000543
     7  C    0.272902  -0.028514  -0.001206  -0.044089
     8  H   -0.033528  -0.009231   0.000409   0.007621
     9  C   -0.066568   0.001124   0.002601  -0.005999
    10  H   -0.004541   0.001513  -0.000015  -0.000766
    11  H   -0.005573  -0.000330  -0.000116   0.004982
    12  H    0.008610  -0.000277  -0.000282   0.000145
    13  C    5.242943   0.394564   0.205061   0.397153
    14  H    0.394564   0.525101  -0.007702  -0.026862
    15  H    0.205061  -0.007702   0.464260  -0.009286
    16  H    0.397153  -0.026862  -0.009286   0.537373
 Mulliken atomic charges:
              1
     1  O   -0.247368
     2  O   -0.199310
     3  C    0.209544
     4  H    0.136652
     5  O   -0.366541
     6  H    0.246730
     7  C   -0.193461
     8  H    0.132542
     9  C   -0.260449
    10  H    0.113755
    11  H    0.123190
    12  H    0.109985
    13  C   -0.324428
    14  H    0.142979
    15  H    0.241758
    16  H    0.134420
 Sum of Mulliken charges=   0.00000
 Atomic charges with hydrogens summed into heavy atoms:
              1
     1  O   -0.005611
     2  O   -0.199310
     3  C    0.346196
     4  H    0.000000
     5  O   -0.119811
     6  H    0.000000
     7  C   -0.060918
     8  H    0.000000
     9  C    0.086481
    10  H    0.000000
    11  H    0.000000
    12  H    0.000000
    13  C   -0.047028
    14  H    0.000000
    15  H    0.000000
    16  H    0.000000
 Sum of Mulliken charges=   0.00000
          Atomic-Atomic Spin Densities.
              1          2          3          4          5          6
     1  O    0.461891  -0.039298   0.006898  -0.000193  -0.000871  -0.002191
     2  O   -0.039298   0.095604  -0.009824  -0.000078   0.000876  -0.000018
     3  C    0.006898  -0.009824   0.034006  -0.000107  -0.006773  -0.001140
     4  H   -0.000193  -0.000078  -0.000107   0.000156   0.000799   0.000103
     5  O   -0.000871   0.000876  -0.006773   0.000799   0.010241   0.000915
     6  H   -0.002191  -0.000018  -0.001140   0.000103   0.000915  -0.000979
     7  C    0.009740  -0.004889   0.024713  -0.001049  -0.002771  -0.000753
     8  H   -0.000810   0.000848  -0.001750   0.000305   0.000167   0.000059
     9  C   -0.000844   0.000873  -0.010767   0.000882   0.002138   0.000353
    10  H    0.000049  -0.000041   0.000522  -0.000044  -0.000102  -0.000027
    11  H   -0.000022   0.000013  -0.000403   0.000026   0.000135   0.000083
    12  H    0.000040  -0.000100   0.001185  -0.000424  -0.000367  -0.000048
    13  C   -0.082358   0.014951  -0.014896   0.000232   0.002789   0.001515
    14  H    0.002668  -0.000677   0.000830  -0.000023  -0.000088  -0.000071
    15  H   -0.024556   0.007015  -0.002226   0.000127   0.000809   0.001342
    16  H    0.002417  -0.000406   0.001456  -0.000033  -0.000445  -0.000267
              7          8          9         10         11         12
     1  O    0.009740  -0.000810  -0.000844   0.000049  -0.000022   0.000040
     2  O   -0.004889   0.000848   0.000873  -0.000041   0.000013  -0.000100
     3  C    0.024713  -0.001750  -0.010767   0.000522  -0.000403   0.001185
     4  H   -0.001049   0.000305   0.000882  -0.000044   0.000026  -0.000424
     5  O   -0.002771   0.000167   0.002138  -0.000102   0.000135  -0.000367
     6  H   -0.000753   0.000059   0.000353  -0.000027   0.000083  -0.000048
     7  C   -0.013331  -0.001115   0.000828  -0.000077   0.000543   0.001654
     8  H   -0.001115   0.000893   0.003645  -0.000429   0.000031  -0.000673
     9  C    0.000828   0.003645   0.071434  -0.005408   0.001187  -0.005787
    10  H   -0.000077  -0.000429  -0.005408   0.000291  -0.000100   0.002012
    11  H    0.000543   0.000031   0.001187  -0.000100  -0.001736  -0.000553
    12  H    0.001654  -0.000673  -0.005787   0.002012  -0.000553   0.007477
    13  C   -0.038470   0.000090  -0.018164   0.003992  -0.000679   0.001030
    14  H   -0.000074  -0.000395  -0.002477   0.000464  -0.000020   0.000118
    15  H   -0.003350   0.000701   0.001321  -0.000146   0.000018  -0.000036
    16  H    0.001121  -0.000519  -0.002331   0.000527  -0.000243   0.000121
             13         14         15         16
     1  O   -0.082358   0.002668  -0.024556   0.002417
     2  O    0.014951  -0.000677   0.007015  -0.000406
     3  C   -0.014896   0.000830  -0.002226   0.001456
     4  H    0.000232  -0.000023   0.000127  -0.000033
     5  O    0.002789  -0.000088   0.000809  -0.000445
     6  H    0.001515  -0.000071   0.001342  -0.000267
     7  C   -0.038470  -0.000074  -0.003350   0.001121
     8  H    0.000090  -0.000395   0.000701  -0.000519
     9  C   -0.018164  -0.002477   0.001321  -0.002331
    10  H    0.003992   0.000464  -0.000146   0.000527
    11  H   -0.000679  -0.000020   0.000018  -0.000243
    12  H    0.001030   0.000118  -0.000036   0.000121
    13  C    0.689785  -0.004102   0.058781  -0.003968
    14  H   -0.004102  -0.015067  -0.002055   0.003962
    15  H    0.058781  -0.002055  -0.053640  -0.000763
    16  H   -0.003968   0.003962  -0.000763  -0.019688
 Mulliken atomic spin densities:
              1
     1  O    0.332561
     2  O    0.064848
     3  C    0.021725
     4  H    0.000678
     5  O    0.007451
     6  H   -0.001122
     7  C   -0.027279
     8  H    0.001045
     9  C    0.036882
    10  H    0.001482
    11  H   -0.001718
    12  H    0.005646
    13  C    0.610527
    14  H   -0.017008
    15  H   -0.016657
    16  H   -0.019061
 Sum of Mulliken spin densities=   1.00000
 APT atomic charges:
              1
     1  O   -0.085475
     2  O   -0.409155
     3  C    0.778801
     4  H   -0.012383
     5  O   -0.611056
     6  H    0.279533
     7  C   -0.108421
     8  H   -0.042491
     9  C    0.124272
    10  H   -0.015002
    11  H    0.006986
    12  H   -0.025139
    13  C    0.146203
    14  H    0.010991
    15  H   -0.027502
    16  H   -0.010161
 Sum of APT charges=   0.00000
 APT Atomic charges with hydrogens summed into heavy atoms:
              1
     1  O   -0.112978
     2  O   -0.409155
     3  C    0.766418
     4  H    0.000000
     5  O   -0.331523
     6  H    0.000000
     7  C   -0.150912
     8  H    0.000000
     9  C    0.091116
    10  H    0.000000
    11  H    0.000000
    12  H    0.000000
    13  C    0.147034
    14  H    0.000000
    15  H    0.000000
    16  H    0.000000
 Sum of APT charges=   0.00000
 Electronic spatial extent (au):  <R**2>=   752.3764
 Charge=     0.0000 electrons
 Dipole moment (field-independent basis, Debye):
    X=     2.5574    Y=     1.1080    Z=     0.0730  Tot=     2.7880
 Quadrupole moment (field-independent basis, Debye-Ang):
   XX=   -47.7981   YY=   -44.1480   ZZ=   -40.8081
   XY=     1.4859   XZ=    -2.1808   YZ=     1.9771
 Traceless Quadrupole moment (field-independent basis, Debye-Ang):
   XX=    -3.5467   YY=     0.1034   ZZ=     3.4433
   XY=     1.4859   XZ=    -2.1808   YZ=     1.9771
 Octapole moment (field-independent basis, Debye-Ang**2):
  XXX=    -1.3133  YYY=    10.7818  ZZZ=     7.7630  XYY=    -2.3912
  XXY=    -2.7564  XXZ=     3.2983  XZZ=    -4.1828  YZZ=    -1.9974
  YYZ=    -3.2032  XYZ=     1.2862
 Hexadecapole moment (field-independent basis, Debye-Ang**3):
 XXXX=  -541.8708 YYYY=  -287.5234 ZZZZ=  -132.6682 XXXY=     8.3151
 XXXZ=     4.3446 YYYX=     0.9611 YYYZ=    -1.4421 ZZZX=     2.7670
 ZZZY=    -9.4007 XXYY=  -134.8780 XXZZ=  -111.4883 YYZZ=   -67.9495
 XXYZ=    -5.3733 YYXZ=     0.0308 ZZXY=     1.9195
 N-N= 3.423499992357D+02 E-N=-1.583983316578D+03  KE= 3.821896086363D+02
  Exact polarizability:  69.501   2.468  61.969  -0.724   5.884  53.981
 Approx polarizability:  99.440   3.797  89.055  -0.123  11.116  84.039
                          Isotropic Fermi Contact Couplings
        Atom                 a.u.       MegaHertz       Gauss      10(-4) cm-1
     1  O(17)              0.02882     -17.46889      -6.23333      -5.82699
     2  O(17)              0.01818     -11.01795      -3.93148      -3.67519
     3  C(13)              0.00645       7.24756       2.58611       2.41753
     4  H(1)               0.00071       3.15141       1.12450       1.05120
     5  O(17)             -0.00014       0.08662       0.03091       0.02889
     6  H(1)              -0.00010      -0.46739      -0.16678      -0.15590
     7  C(13)             -0.00413      -4.63782      -1.65489      -1.54701
     8  H(1)               0.00005       0.21400       0.07636       0.07138
     9  C(13)              0.03663      41.18368      14.69536      13.73740
    10  H(1)              -0.00074      -3.29012      -1.17400      -1.09747
    11  H(1)              -0.00060      -2.67542      -0.95466      -0.89243
    12  H(1)               0.00206       9.21128       3.28681       3.07255
    13  C(13)              0.08990     101.06913      36.06398      33.71303
    14  H(1)              -0.00300     -13.42068      -4.78883      -4.47666
    15  H(1)              -0.02273    -101.60013     -36.25345     -33.89015
    16  H(1)              -0.00466     -20.82400      -7.43052      -6.94614
 --------------------------------------------------------
       Center         ----  Spin Dipole Couplings  ----
                      3XX-RR        3YY-RR        3ZZ-RR
 --------------------------------------------------------
     1   Atom        0.956758     -0.130631     -0.826127
     2   Atom        0.126209      0.115231     -0.241440
     3   Atom        0.030560      0.001113     -0.031674
     4   Atom       -0.002158      0.002954     -0.000796
     5   Atom        0.013584      0.011326     -0.024910
     6   Atom       -0.003543      0.006704     -0.003161
     7   Atom        0.036467     -0.016871     -0.019596
     8   Atom       -0.002256     -0.005961      0.008217
     9   Atom        0.032171     -0.001448     -0.030723
    10   Atom        0.009204     -0.002753     -0.006451
    11   Atom       -0.000021      0.001083     -0.001063
    12   Atom        0.000059      0.000953     -0.001011
    13   Atom        0.722795     -0.359369     -0.363426
    14   Atom       -0.002785      0.037842     -0.035057
    15   Atom        0.159252     -0.054797     -0.104455
    16   Atom       -0.000927     -0.041200      0.042127
 --------------------------------------------------------
                        XY            XZ            YZ
 --------------------------------------------------------
     1   Atom        1.140967     -0.011845     -0.005497
     2   Atom        0.310060      0.005941     -0.019249
     3   Atom        0.037796      0.012749      0.016228
     4   Atom       -0.002294     -0.002065      0.007164
     5   Atom        0.029700     -0.009714     -0.011484
     6   Atom       -0.001688      0.001031     -0.006892
     7   Atom        0.001990     -0.014814      0.006749
     8   Atom       -0.000825     -0.005407      0.003356
     9   Atom       -0.043382      0.004702     -0.003314
    10   Atom       -0.000736     -0.001768      0.001497
    11   Atom       -0.006002      0.002556     -0.003982
    12   Atom       -0.003908     -0.001519      0.004527
    13   Atom        0.079653     -0.013016     -0.000978
    14   Atom        0.008448     -0.000856     -0.028844
    15   Atom        0.102430      0.017429      0.012355
    16   Atom        0.002101      0.014802     -0.014341
 --------------------------------------------------------


 ---------------------------------------------------------------------------------
              Anisotropic Spin Dipole Couplings in Principal Axis System
 ---------------------------------------------------------------------------------

       Atom             a.u.   MegaHertz   Gauss  10(-4) cm-1        Axes

              Baa    -0.8509    61.573    21.971    20.539 -0.5328  0.8435 -0.0675
     1 O(17)  Bbb    -0.8261    59.775    21.329    19.939 -0.0317  0.0599  0.9977
              Bcc     1.6770  -121.348   -43.300   -40.477  0.8456  0.5338 -0.0052
 
              Baa    -0.2471    17.881     6.380     5.964 -0.1982  0.2203  0.9551
     2 O(17)  Bbb    -0.1838    13.303     4.747     4.437 -0.6726  0.6782 -0.2960
              Bcc     0.4310   -31.184   -11.127   -10.402  0.7130  0.7010 -0.0138
 
              Baa    -0.0385    -5.171    -1.845    -1.725  0.0737 -0.4371  0.8964
     3 C(13)  Bbb    -0.0221    -2.963    -1.057    -0.988 -0.5975  0.7003  0.3906
              Bcc     0.0606     8.134     2.903     2.713  0.7985  0.5643  0.2095
 
              Baa    -0.0063    -3.384    -1.207    -1.129  0.0655 -0.5989  0.7981
     4 H(1)   Bbb    -0.0030    -1.584    -0.565    -0.528  0.9636  0.2458  0.1053
              Bcc     0.0093     4.968     1.773     1.657 -0.2593  0.7622  0.5932
 
              Baa    -0.0283     2.048     0.731     0.683  0.0547  0.2399  0.9693
     5 O(17)  Bbb    -0.0171     1.235     0.441     0.412  0.7110 -0.6909  0.1309
              Bcc     0.0454    -3.283    -1.171    -1.095  0.7011  0.6820 -0.2084
 
              Baa    -0.0067    -3.580    -1.278    -1.194 -0.0493  0.4515  0.8909
     6 H(1)   Bbb    -0.0038    -2.034    -0.726    -0.679  0.9891  0.1461 -0.0193
              Bcc     0.0105     5.614     2.003     1.873 -0.1389  0.8802 -0.4538
 
              Baa    -0.0278    -3.730    -1.331    -1.244  0.2048 -0.5412  0.8156
     7 C(13)  Bbb    -0.0123    -1.657    -0.591    -0.553  0.1255  0.8409  0.5265
              Bcc     0.0401     5.387     1.922     1.797  0.9707  0.0055 -0.2401
 
              Baa    -0.0068    -3.613    -1.289    -1.205 -0.1434  0.9535 -0.2652
     8 H(1)   Bbb    -0.0044    -2.357    -0.841    -0.786  0.9153  0.2296  0.3308
              Bcc     0.0112     5.969     2.130     1.991 -0.3763  0.1953  0.9057
 
              Baa    -0.0312    -4.188    -1.494    -1.397  0.4609  0.7283  0.5071
     9 C(13)  Bbb    -0.0310    -4.164    -1.486    -1.389 -0.3310 -0.3891  0.8597
              Bcc     0.0622     8.352     2.980     2.786  0.8234 -0.5641  0.0618
 
              Baa    -0.0071    -3.792    -1.353    -1.265  0.0886 -0.3103  0.9465
    10 H(1)   Bbb    -0.0024    -1.259    -0.449    -0.420  0.1063  0.9477  0.3008
              Bcc     0.0095     5.051     1.802     1.685  0.9904 -0.0740 -0.1169
 
              Baa    -0.0057    -3.050    -1.088    -1.017  0.6406  0.7207  0.2650
    11 H(1)   Bbb    -0.0031    -1.635    -0.583    -0.545 -0.4907  0.1188  0.8632
              Bcc     0.0088     4.684     1.671     1.562 -0.5906  0.6830 -0.4297
 
              Baa    -0.0051    -2.731    -0.974    -0.911  0.3351  0.6923 -0.6391
    12 H(1)   Bbb    -0.0018    -0.984    -0.351    -0.328  0.7936  0.1581  0.5875
              Bcc     0.0070     3.715     1.326     1.239 -0.5078  0.7041  0.4964
 
              Baa    -0.3652   -49.006   -17.487   -16.347 -0.0728  0.9972  0.0154
    13 C(13)  Bbb    -0.3636   -48.789   -17.409   -16.274  0.0130 -0.0145  0.9998
              Bcc     0.7288    97.796    34.896    32.621  0.9973  0.0730 -0.0119
 
              Baa    -0.0452   -24.107    -8.602    -8.041 -0.0472  0.3321  0.9421
    14 H(1)   Bbb    -0.0040    -2.137    -0.763    -0.713  0.9865 -0.1328  0.0962
              Bcc     0.0492    26.244     9.365     8.754  0.1571  0.9338 -0.3213
 
              Baa    -0.1079   -57.579   -20.546   -19.206  0.0847 -0.3777  0.9220
    15 H(1)   Bbb    -0.0939   -50.081   -17.870   -16.705 -0.3692  0.8476  0.3811
              Bcc     0.2018   107.660    38.416    35.912  0.9255  0.3727  0.0677
 
              Baa    -0.0441   -23.528    -8.396    -7.848 -0.1098  0.9773  0.1814
    16 H(1)   Bbb    -0.0045    -2.425    -0.865    -0.809  0.9545  0.1546 -0.2552
              Bcc     0.0486    25.953     9.261     8.657  0.2774 -0.1451  0.9497
 

 ---------------------------------------------------------------------------------

 Use density number 0.
 Entering OneElI...
 Calculate overlap and kinetic energy integrals
    NBasis = 187  MinDer = 2  MaxDer = 2
 Requested accuracy = 0.1000D-12
 PrsmSu:  NPrtUS=   1 ThrOK=F
 PRISM was handed   130757967 working-precision words and  2553 shell-pairs
 Entering OneElI...
 Calculate potential energy integrals
    NBasis = 187  MinDer = 2  MaxDer = 2
 Requested accuracy = 0.1000D-12
 PrsmSu:  NPrtUS=   8 ThrOK=T
 PRISM was handed    16299662 working-precision words and  2429 shell-pairs
 PRISM was handed    16299662 working-precision words and  2429 shell-pairs
 PRISM was handed    16299662 working-precision words and  2429 shell-pairs
 PRISM was handed    16299662 working-precision words and  2429 shell-pairs
 PRISM was handed    16299662 working-precision words and  2429 shell-pairs
 PRISM was handed    16299662 working-precision words and  2429 shell-pairs
 PRISM was handed    16299662 working-precision words and  2429 shell-pairs
 PRISM was handed    16299662 working-precision words and  2429 shell-pairs
 Polarizability after L701:
                1             2             3
      1  0.695008D+02
      2  0.246772D+01  0.619692D+02
      3 -0.724392D+00  0.588386D+01  0.539814D+02
 Dipole Derivatives after L701:
               1            2            3            4            5
      1-0.244536D+00 0.417703D+00 0.340637D+00-0.404902D+00-0.266746D+00
      2 0.212854D+00 0.599142D-01 0.279834D+00 0.107945D+00-0.493649D+00
      3-0.176484D-01 0.177286D+00-0.718037D-01-0.207099D-03 0.659327D-02
               6            7            8            9           10
      1-0.281194D+00 0.698755D+00 0.208419D+00-0.128453D-01 0.473983D-01
      2-0.139192D+00 0.761099D-01 0.930205D+00-0.417085D+00 0.927798D-02
      3-0.328914D+00-0.166743D-01-0.135374D+00 0.707444D+00 0.296870D-01
              11           12           13           14           15
      1 0.239925D-01 0.110948D-01-0.495747D+00-0.166518D+00 0.451582D-01
      2-0.302479D-01-0.437045D-01-0.114483D+00-0.639383D+00 0.404940D+00
      3-0.792589D-01-0.542981D-01 0.681161D-01 0.235988D+00-0.698039D+00
              16           17           18           19           20
      1 0.273510D+00 0.792714D-01-0.512166D-01-0.120572D+00-0.110473D+00
      2-0.922587D-03 0.273950D+00-0.639610D-01-0.937930D-01-0.276094D+00
      3 0.798595D-03-0.997803D-01 0.291139D+00 0.277888D-01-0.101176D+00
              21           22           23           24           25
      1-0.999666D-01 0.426561D-03 0.141170D-01 0.832186D-02 0.135434D+00
      2-0.582307D-01 0.131949D-01-0.294517D-02 0.467186D-01 0.209657D-01
      3 0.714028D-01-0.122937D-01 0.484888D-01-0.124954D+00-0.357653D-01
              26           27           28           29           30
      1 0.324640D-01 0.991192D-01-0.721836D-01-0.119992D+00-0.547428D-02
      2 0.159737D+00 0.239021D-01-0.432351D-01-0.483815D-01 0.699520D-02
      3 0.490432D-01 0.776444D-01 0.135660D-01 0.444075D-02 0.755584D-01
              31           32           33           34           35
      1 0.646314D-01 0.275030D-01-0.262135D-01-0.996251D-02 0.911346D-01
      2 0.168031D-03 0.355967D-01 0.654872D-01 0.275446D-01-0.372204D-01
      3 0.331166D-01 0.441002D-01-0.792693D-01 0.260985D-02-0.962455D-01
              36           37           38           39           40
      1 0.261399D-01 0.286041D+00-0.286586D-01-0.174274D-01 0.478392D-01
      2-0.108083D+00 0.331644D+00 0.623771D-01-0.784610D-02-0.117819D+00
      3-0.282356D-01 0.130953D+00-0.471852D-01 0.901918D-01-0.102851D-01
              41           42           43           44           45
      1 0.678224D-02 0.146442D-02-0.213202D+00-0.211905D+00-0.396212D-01
      2-0.538188D-01 0.411049D-01-0.369219D+00 0.267197D-01-0.416462D-01
      3 0.118192D-01 0.389524D-01-0.129766D+00-0.652765D-01 0.103975D+00
              46           47           48
      1 0.707075D-02 0.290472D-02 0.202397D-02
      2-0.602321D-01 0.332403D-01 0.107673D-01
      3-0.839963D-01 0.465356D-01-0.707933D-01
 Hessian after L701:
                1             2             3             4             5
      1  0.528077D+01
      2  0.955321D+00  0.508864D+01
      3  0.161300D+01 -0.405820D+01  0.408982D+01
      4 -0.545422D+01 -0.179131D+01 -0.215222D+01  0.494978D+01
      5 -0.180730D+01 -0.262547D+01  0.380527D+01  0.550715D+01  0.903807D+01
      6 -0.211638D+01  0.382873D+01  0.303936D+00 -0.311932D+00 -0.290464D+01
      7  0.281809D+00 -0.191986D+00 -0.227498D+00 -0.631347D+00 -0.405001D+01
      8 -0.104034D+00 -0.583412D-01 -0.547925D-01 -0.410844D+01 -0.646452D+01
      9 -0.181820D+00 -0.157890D-01 -0.142265D+00  0.171286D+01 -0.458881D+00
     10  0.109935D-01 -0.881692D-01 -0.862747D-01 -0.122320D+00  0.452008D-01
     11 -0.113369D+00  0.718746D-01  0.121617D+00  0.584888D-02  0.884075D-01
     12 -0.118362D+00  0.135989D+00  0.544854D-01 -0.658762D-01  0.109524D+00
     13 -0.889582D-02 -0.544183D+00  0.120951D+00  0.303876D-01 -0.420801D+00
     14 -0.524366D+00  0.285021D+00 -0.153806D+00 -0.369682D+00  0.280454D+00
     15 -0.793585D-02 -0.221041D-03 -0.407232D+00  0.456627D+00 -0.557314D+00
     16 -0.165282D+00 -0.178790D+00  0.874482D-01  0.698877D-02  0.303839D-01
     17 -0.237747D+00  0.403160D-01 -0.165445D+00  0.397034D-01 -0.169777D-01
     18  0.211577D+00 -0.297347D+00 -0.131418D+00 -0.140655D-01  0.202824D-01
     19  0.869020D-01 -0.149352D-01  0.771034D-01  0.214909D+00  0.263225D+00
     20 -0.959583D-01 -0.433224D-01 -0.389888D-02  0.269200D+00 -0.566662D-01
     21  0.854836D-01 -0.337775D-01 -0.138581D+00  0.160029D+00  0.686572D-01
     22  0.388515D-01  0.360933D-02 -0.481453D-01  0.106699D+00  0.532685D-01
     23  0.125470D-01 -0.271134D-01 -0.862578D-02  0.814989D-01 -0.559452D-01
     24 -0.829595D-01 -0.766996D-02  0.211097D-01 -0.114180D+00 -0.333557D-01
     25  0.145838D+00 -0.527206D-01 -0.242340D-01  0.362150D+00 -0.533870D-01
     26 -0.539213D-01 -0.981154D-01  0.307838D-02 -0.261898D-01 -0.165725D+00
     27 -0.496644D-01  0.821191D-02 -0.104069D+00  0.899909D-01 -0.909344D-02
     28  0.345505D-01  0.360393D-03 -0.334082D-02  0.272716D-01  0.346317D-02
     29  0.143805D-01 -0.696176D-02  0.787055D-03  0.222164D-01 -0.775627D-02
     30 -0.405344D-02 -0.321733D-03 -0.903306D-02  0.220587D-02 -0.195136D-03
     31  0.171017D-01 -0.102655D-01  0.674960D-02  0.382645D-01 -0.101074D-01
     32 -0.221263D-01 -0.694230D-02 -0.442306D-02 -0.193027D-01 -0.146301D-01
     33  0.283579D-01 -0.708898D-02 -0.602216D-02  0.496381D-01 -0.106034D-01
     34  0.195511D-01 -0.937135D-02 -0.558876D-02  0.396168D-01 -0.163502D-01
     35 -0.246666D-01 -0.274515D-02  0.433786D-02 -0.341130D-01 -0.532691D-02
     36 -0.213107D-01  0.721388D-02 -0.521765D-02 -0.232217D-01  0.772080D-02
     37  0.283083D-01  0.225398D+00  0.703182D-01  0.166068D+00  0.385362D+00
     38  0.415185D-01 -0.739549D-01  0.725769D-01  0.354897D+00 -0.431099D-01
     39 -0.425107D-01  0.401972D-01 -0.165482D+00  0.200129D+00  0.149545D+00
     40  0.392100D-01  0.766988D-01 -0.105283D-01  0.117726D-01  0.385538D-01
     41  0.110440D+00  0.511068D-01 -0.158569D-01  0.671071D-01  0.499987D-01
     42 -0.294777D-01 -0.245775D-01 -0.396756D-01  0.365908D-02  0.444417D-02
     43 -0.411560D+00  0.159852D+01  0.523333D+00  0.237545D+00  0.106138D-01
     44  0.184358D+01 -0.254614D+01  0.453138D+00 -0.193100D-01  0.164355D-01
     45  0.615248D+00  0.402797D+00 -0.333068D+01 -0.627232D-01 -0.227557D+00
     46  0.560684D-01  0.218158D-01  0.589312D-01  0.164344D-01  0.207314D-01
     47  0.570450D-02 -0.478550D-01  0.424017D-02  0.207182D-01 -0.172460D-01
     48  0.100812D+00  0.218519D-01  0.103247D-01  0.690816D-01  0.361919D-01
                6             7             8             9            10
      6  0.825026D+01
      7  0.173059D+01  0.174858D+02
      8 -0.467763D+00  0.696110D+00  0.194469D+02
      9 -0.813052D+01 -0.580054D+00  0.356770D+01  0.186334D+02
     10  0.134321D-01 -0.504965D+01 -0.387205D+00 -0.464801D+00  0.497255D+01
     11  0.444390D-01 -0.380478D+00 -0.375348D+01  0.172069D+01  0.616206D+00
     12  0.595082D-01 -0.458840D+00  0.171462D+01 -0.299127D+01  0.606432D+00
     13  0.473755D+00 -0.996508D+01  0.125169D+00 -0.362855D+00  0.513884D-01
     14 -0.521177D+00  0.187868D+00 -0.641877D+01 -0.495157D+01 -0.269110D-01
     15  0.175876D+00 -0.452599D+00 -0.471582D+01 -0.122958D+01  0.407613D-01
     16 -0.672955D-01  0.131521D+00  0.498427D-01  0.137309D-01 -0.194439D-01
     17  0.107504D+00 -0.308549D-01  0.191597D+00  0.173606D-02 -0.888453D-02
     18 -0.893621D-01  0.832624D-01 -0.170666D+00  0.108299D+00 -0.560115D-01
     19 -0.387422D-01 -0.245976D+01  0.336867D+01 -0.201872D+00  0.190159D+00
     20  0.526758D-01  0.326584D+01 -0.337250D+01 -0.775910D-01 -0.180447D+00
     21 -0.273767D-01 -0.201691D+00 -0.779392D-01 -0.613822D+01 -0.905298D-01
     22 -0.425612D-01  0.832721D-01 -0.817224D-01  0.849578D-01 -0.820945D-03
     23 -0.225130D-01 -0.459466D-01 -0.209088D-01  0.109799D+00 -0.128517D-01
     24 -0.458423D-01  0.392919D-01  0.102072D+00  0.487830D-01  0.262671D-02
     25  0.100905D+00  0.261503D-01  0.100043D+00 -0.838465D-01 -0.116632D-01
     26 -0.326371D-02  0.180998D+00  0.721985D-01  0.224572D-01  0.356256D-02
     27 -0.147851D+00 -0.289825D-01  0.118797D-01 -0.116311D-01  0.159339D-02
     28  0.310469D-02  0.174547D+00  0.796434D-01  0.141867D-01  0.215107D-03
     29  0.480646D-03  0.873762D-01 -0.221429D-01  0.386343D-02  0.168381D-02
     30 -0.931088D-02  0.142322D-01  0.634383D-02 -0.472619D-01  0.668517D-03
     31  0.220170D-01 -0.793453D-01  0.805868D-02 -0.310307D-01  0.270830D-03
     32 -0.659763D-02  0.746446D-02  0.161666D-01  0.559394D-02  0.659673D-03
     33  0.145670D-03  0.480614D-03 -0.610627D-03  0.183407D-01  0.491084D-02
     34 -0.363230D-02  0.265745D-01 -0.469966D-02 -0.259576D-01  0.443658D-01
     35  0.383831D-02 -0.267183D-01 -0.125258D-01  0.121628D-01  0.289453D-02
     36 -0.133602D-01 -0.454372D-01  0.985312D-02 -0.701760D-02  0.301245D-02
     37  0.243513D+00  0.925185D-01  0.135735D+00  0.409941D-01 -0.647795D-01
     38  0.143385D+00  0.163498D+00  0.230617D+00  0.541941D-01  0.329005D-01
     39 -0.255847D+00  0.437405D-01  0.518774D-01 -0.492370D-01  0.235761D-01
     40  0.102052D-01 -0.409470D-01  0.392227D-01  0.638938D-02 -0.748908D-03
     41  0.241936D-01  0.486059D-01  0.149386D+00  0.273746D-01 -0.233038D-02
     42 -0.219326D-01  0.385293D-02  0.168742D-01 -0.391208D-01 -0.529469D-03
     43 -0.597510D-01 -0.621722D-01  0.632193D-01  0.376586D-01  0.118469D-02
     44 -0.300419D+00  0.772531D-01  0.230198D-01 -0.448284D-01  0.391405D-02
     45 -0.891529D-01  0.497030D-01 -0.349059D-01 -0.466604D-01  0.251886D-02
     46  0.427745D-01 -0.138366D-01  0.203798D-01  0.214561D-01 -0.169990D-02
     47  0.211238D-01  0.109781D-01 -0.672402D-02  0.230939D-01 -0.222928D-03
     48  0.408372D-01  0.299462D-01  0.412782D-01  0.239906D-01 -0.138560D-02
               11            12            13            14            15
     11  0.362238D+01
     12 -0.225478D+01  0.261692D+01
     13 -0.279502D-01  0.840306D-01  0.148742D+02
     14  0.672360D-01  0.266922D+00  0.158852D+01  0.108881D+02
     15  0.340552D+00 -0.850674D-01  0.240663D+01  0.322917D+01  0.709736D+01
     16 -0.195099D-01 -0.719739D-01 -0.544961D+01 -0.179220D+01 -0.222998D+01
     17 -0.274630D-01  0.381308D-01 -0.155162D+01 -0.594648D+01  0.169758D+01
     18  0.586557D-01  0.157329D+00 -0.245091D+01  0.218235D+01 -0.448455D+01
     19 -0.178125D+00 -0.883642D-01  0.436445D+00  0.206737D+00  0.682198D-01
     20 -0.211482D+00 -0.216938D+00  0.244749D+00  0.445201D+00  0.287372D+00
     21 -0.181328D+00  0.168511D+00  0.325050D-01  0.326039D+00 -0.418890D+00
     22 -0.100498D-01  0.292588D-02 -0.392964D-01  0.467144D-01 -0.540511D-01
     23 -0.131283D-01  0.973932D-02  0.414146D-01  0.535791D-01 -0.116357D+00
     24 -0.915505D-02 -0.403635D-02 -0.573624D-01 -0.145274D+00  0.901607D-01
     25  0.117776D-01  0.223298D-01  0.184216D+00  0.239571D+00 -0.168060D+00
     26 -0.312379D-02  0.199320D-01  0.294138D+00 -0.119492D+00 -0.118226D+00
     27  0.587912D-02 -0.873691D-02 -0.242617D+00 -0.145045D+00 -0.196033D+00
     28  0.828174D-02  0.850322D-02  0.292235D-01  0.399459D-01 -0.111785D-01
     29  0.559268D-02  0.704965D-02  0.333843D-01  0.133149D-01 -0.870218D-02
     30  0.119388D-02 -0.381216D-03 -0.796365D-02 -0.775991D-02 -0.144148D-01
     31  0.405750D-02  0.793579D-02  0.208945D+00  0.126558D+00 -0.160458D-01
     32 -0.444985D-02 -0.220165D-02  0.714219D-01 -0.114607D+00 -0.958919D-02
     33  0.104009D-01  0.145578D-01  0.689026D-01  0.275473D-01 -0.134841D+00
     34  0.204948D-01  0.234789D-01  0.373476D-01  0.127025D-01 -0.391491D-01
     35 -0.215811D-01 -0.556337D-02 -0.168980D-01 -0.358969D-01  0.965644D-02
     36 -0.439309D-02 -0.231261D-01 -0.601564D-01 -0.137483D-01  0.612048D-02
     37  0.543313D-01  0.413791D-01 -0.281037D+00  0.200356D+00 -0.132853D-01
     38  0.179423D+00  0.173151D+00  0.119111D+00  0.421402D+00 -0.712936D-01
     39  0.145735D+00  0.349175D-01 -0.297754D-01 -0.170911D+00 -0.318767D+00
     40  0.172860D-02  0.145803D-02 -0.138970D-01  0.149480D-01 -0.168492D-02
     41  0.988244D-02  0.106049D-01  0.974692D-02  0.671414D-01 -0.718236D-02
     42 -0.244790D-02 -0.288069D-02 -0.150095D-02 -0.197343D-01 -0.133480D-01
     43  0.384994D-02  0.153761D-02 -0.551028D-01 -0.137901D-01  0.393954D-03
     44 -0.104635D-01 -0.887341D-02 -0.106177D-02  0.417706D-01  0.325756D-02
     45 -0.795272D-02 -0.241807D-02  0.155296D-02 -0.770575D-02 -0.469034D-01
     46  0.290457D-02  0.340601D-02 -0.392597D-01  0.630214D-01  0.213339D-01
     47  0.373872D-03  0.270048D-02  0.348598D-01  0.720254D-01  0.371156D-01
     48  0.109027D-01  0.116924D-01  0.248151D-01  0.104707D+00 -0.198886D-01
               16            17            18            19            20
     16  0.541337D+01
     17  0.177265D+01  0.580204D+01
     18  0.233857D+01 -0.170827D+01  0.448379D+01
     19  0.216689D-01 -0.475956D-01  0.854610D-02  0.134035D+02
     20 -0.192165D-01 -0.491312D-01  0.407752D-01 -0.552251D+00  0.152260D+02
     21  0.151497D-01  0.585486D-01 -0.351649D-01  0.424908D-01 -0.120550D+01
     22 -0.943475D-04 -0.267227D-02 -0.107315D-03 -0.483405D+01 -0.171130D-02
     23  0.238724D-02 -0.439048D-02 -0.291806D-02 -0.648792D-01 -0.448507D+01
     24 -0.671321D-02  0.600717D-02  0.763909D-02  0.167607D+00 -0.894566D+00
     25  0.353927D-01 -0.560047D-02 -0.302206D-01 -0.148706D+01 -0.196005D+01
     26  0.163963D-01 -0.227287D-01 -0.122743D-01 -0.185706D+01 -0.492700D+01
     27 -0.294294D-01  0.731449D-02  0.224794D-02  0.886839D+00 -0.338668D+00
     28  0.827914D-02 -0.223604D-02 -0.791719D-02  0.335565D-01 -0.634574D-02
     29  0.614494D-02 -0.326232D-02 -0.548225D-02  0.575909D-01  0.749969D-01
     30 -0.200930D-02  0.217077D-03  0.146523D-03 -0.128950D-01 -0.711442D-02
     31 -0.253086D-02 -0.521601D-02 -0.240604D-02  0.276120D-01  0.611121D-01
     32 -0.429030D-02  0.149340D-02  0.322858D-02  0.120116D-01  0.781573D-01
     33  0.955079D-02 -0.360410D-02 -0.656518D-02 -0.825542D-02 -0.286199D-02
     34  0.458030D-02 -0.267302D-02 -0.583796D-02  0.160192D-01  0.777863D-01
     35 -0.506116D-02  0.157757D-02  0.555259D-02  0.131965D-01  0.383007D-01
     36 -0.812280D-02  0.408887D-02  0.637918D-02 -0.137120D-01  0.178668D-01
     37  0.733534D-02  0.790128D-01 -0.637306D-01 -0.588950D+01 -0.940671D+00
     38  0.119952D+00  0.701748D-01 -0.109027D+00 -0.109681D+01 -0.287859D+01
     39 -0.540078D-01 -0.528244D-01 -0.146753D-01 -0.872068D+00  0.241830D+01
     40  0.138701D-03  0.314492D-02 -0.354214D-02  0.688860D-01 -0.153816D-02
     41  0.122431D-01  0.283986D-02 -0.130148D-01 -0.128970D-01  0.243641D-01
     42 -0.429885D-02 -0.182687D-02  0.186562D-02 -0.479364D-02 -0.837796D-01
     43  0.540833D-02  0.178995D-02 -0.106773D-02  0.342260D-01 -0.164153D+00
     44  0.468077D-02 -0.350882D-01  0.128494D-01 -0.109191D+00  0.600938D-01
     45 -0.117331D-02  0.127800D-01  0.597621D-02 -0.435095D-01  0.808579D-01
     46  0.228203D-02 -0.119665D-02 -0.613670D-02  0.136473D+00  0.365783D-02
     47  0.438545D-02 -0.452096D-02 -0.469391D-02  0.123089D-01  0.766074D-01
     48  0.105521D-01 -0.193956D-02 -0.119399D-01  0.334064D-01 -0.669226D-01
               21            22            23            24            25
     21  0.181919D+02
     22 -0.105627D-01  0.464802D+01
     23 -0.947155D+00 -0.979722D-01  0.453010D+01
     24 -0.217828D+01  0.108254D+00  0.119788D+01  0.167700D+01
     25  0.897755D+00 -0.339790D-01  0.684989D-01 -0.691113D-01  0.116988D+02
     26 -0.344838D+00  0.558013D-01  0.606326D-01 -0.905674D-02  0.938840D+00
     27 -0.558208D+01 -0.699618D-01  0.622082D-02  0.114629D+00 -0.655023D-01
     28 -0.266471D-01 -0.276651D-01  0.417245D-02 -0.193099D-01 -0.262409D+01
     29 -0.788337D-02  0.682673D-02  0.125435D-01  0.111983D-01  0.126941D+01
     30  0.383565D-01 -0.244146D-01  0.262292D-02  0.630775D-03 -0.200963D-01
     31 -0.101329D+00 -0.738313D-02 -0.387160D-01  0.661961D-01 -0.443054D+01
     32  0.226851D-01 -0.319623D-01  0.102198D-01 -0.739484D-01  0.513984D-01
     33  0.764383D-01  0.529117D-01 -0.698556D-01  0.861789D-01 -0.108176D+00
     34  0.266861D-01 -0.124745D-01  0.317420D-01 -0.860663D-02 -0.406290D+01
     35  0.109794D-01  0.268735D-01 -0.141889D-01  0.245530D-02 -0.429497D+00
     36  0.911153D-01 -0.994709D-02  0.146154D-01  0.482451D-02 -0.385548D+00
     37 -0.773671D+00  0.862156D-01  0.112535D-01 -0.233923D-01  0.146413D+00
     38  0.244804D+01  0.240409D-01  0.205849D-01 -0.131063D+00 -0.885084D-01
     39 -0.407859D+01  0.147555D-01 -0.133842D+00  0.584358D-01 -0.396443D-01
     40 -0.105730D-01  0.254298D-01  0.486013D-02  0.582992D-02 -0.145819D-01
     41 -0.552684D-01  0.110235D-01 -0.335325D-01 -0.460718D-01 -0.454648D-01
     42  0.480248D-01  0.853957D-02 -0.523431D-01 -0.269613D-01  0.139735D-02
     43 -0.697704D-01 -0.224088D-02  0.566085D-03 -0.103946D-01  0.687355D-01
     44  0.643196D-01 -0.800418D-03 -0.422036D-02  0.126918D-02 -0.411569D-01
     45 -0.191518D-01 -0.347334D-02 -0.554634D-03  0.360005D-02 -0.192047D-01
     46  0.246749D-01 -0.304874D-01  0.142490D-02  0.222441D-02 -0.290839D-02
     47 -0.145574D+00 -0.126757D-02 -0.291606D-01  0.292754D-01 -0.315151D-02
     48  0.201325D-02 -0.912035D-02  0.132823D-01  0.142125D+00 -0.874401D-02
               26            27            28            29            30
     26  0.145216D+02
     27  0.214876D+00  0.150589D+02
     28  0.142784D+01 -0.323974D-02  0.219368D+01
     29 -0.291720D+01 -0.570386D-02 -0.141538D+01  0.292013D+01
     30 -0.198517D-01 -0.410699D+01  0.461369D-01 -0.775063D-02  0.408767D+01
     31 -0.931861D-01  0.190703D+00  0.529904D-01 -0.447322D-01  0.585780D-01
     32 -0.382948D+01 -0.116794D+01 -0.562565D-01 -0.534222D-02  0.883074D-01
     33 -0.114486D+01 -0.196273D+01  0.469554D-01  0.556901D-01  0.266689D-01
     34 -0.600398D+00 -0.538838D+00  0.731188D-01 -0.459765D-01 -0.337717D-01
     35 -0.278111D+01  0.129797D+01 -0.416683D-01 -0.475975D-01 -0.671667D-01
     36  0.130711D+01 -0.301988D+01 -0.228409D-01 -0.433045D-01  0.541539D-01
     37 -0.195037D+00 -0.120138D+00  0.340826D-02  0.163347D-01 -0.127333D-01
     38  0.149872D+00  0.993515D-01 -0.894334D-02 -0.127763D-01  0.804634D-02
     39  0.621749D-01  0.143436D-01 -0.993552D-02  0.454887D-02 -0.130973D-01
     40 -0.385705D-01 -0.349481D-02  0.133351D-01 -0.117509D-01 -0.275152D-02
     41  0.803192D-01  0.101334D-01 -0.331747D-01  0.521318D-03  0.361071D-02
     42 -0.819148D-02 -0.325091D-01  0.130461D-02  0.252500D-02 -0.788263D-02
     43 -0.411824D-01 -0.180362D-01  0.810646D-02  0.878734D-03 -0.104443D-02
     44 -0.768978D-02  0.120732D-01 -0.903311D-03 -0.157212D-02  0.195456D-03
     45  0.900521D-02 -0.221996D-01 -0.135164D-02 -0.182376D-03 -0.151055D-02
     46 -0.120286D-01  0.779109D-03 -0.526983D-03  0.161666D-02 -0.882448D-04
     47 -0.130117D-01 -0.746240D-02  0.120758D-02 -0.248718D-02 -0.377404D-03
     48  0.219258D-01  0.462122D-02 -0.144302D-01 -0.713379D-02  0.225334D-02
               31            32            33            34            35
     31  0.410754D+01
     32  0.377578D-01  0.376864D+01
     33 -0.197922D+00  0.117904D+01  0.198494D+01
     34  0.728279D-01  0.464568D-02  0.330073D-01  0.372545D+01
     35 -0.540844D-02  0.815893D-01 -0.956956D-02  0.643856D+00  0.270102D+01
     36  0.995103D-02 -0.508850D-01 -0.733398D-01  0.642464D+00 -0.135246D+01
     37 -0.689005D-02 -0.145129D-01  0.198384D-01  0.219545D-01 -0.100436D+00
     38  0.833146D-02 -0.147363D-01 -0.176746D-01 -0.107674D+00  0.898062D-01
     39  0.443799D-02 -0.106490D-01  0.195657D-02 -0.594519D-01  0.768264D-01
     40 -0.137500D-02 -0.132531D-02  0.129786D-02 -0.120104D-02 -0.114703D-03
     41 -0.185036D-02  0.872658D-02 -0.118450D-01 -0.252966D-02  0.814752D-02
     42  0.773910D-03 -0.354436D-02  0.241673D-02  0.160770D-02 -0.260678D-02
     43  0.178120D-02 -0.473862D-02  0.404240D-02 -0.364469D-02 -0.549503D-04
     44 -0.141479D-02 -0.141151D-04 -0.154160D-02  0.162481D-02 -0.126782D-02
     45  0.448214D-03 -0.472324D-03 -0.129672D-02  0.105562D-02 -0.308458D-03
     46  0.726842D-03 -0.308446D-01 -0.554090D-02 -0.119143D-02 -0.218444D-02
     47 -0.349787D-01  0.252014D-01  0.743594D-02 -0.317970D-02  0.180334D-02
     48 -0.190570D-01  0.313927D-01 -0.268509D-01 -0.746531D-02  0.138918D-01
               36            37            38            39            40
     36  0.297848D+01
     37 -0.615552D-01  0.138160D+02
     38  0.851020D-01 -0.370716D+00  0.103377D+02
     39 -0.809893D-02  0.247448D+00 -0.148485D+01  0.127586D+02
     40  0.179068D-03 -0.425510D+01  0.327428D+00 -0.104849D+00  0.408776D+01
     41  0.705982D-02  0.269631D+00 -0.171389D+01 -0.861342D+00 -0.442228D+00
     42 -0.215718D-02 -0.834565D-01 -0.753925D+00 -0.406507D+01  0.111649D+00
     43 -0.161330D-02  0.498335D+00  0.587691D+00  0.215340D-01 -0.112030D-01
     44 -0.557831D-03  0.298533D+00 -0.224827D+01 -0.945742D-02 -0.253836D-01
     45 -0.167181D-03 -0.979016D-01 -0.371614D-01 -0.228129D+01  0.846362D-02
     46 -0.214141D-02 -0.436923D+01 -0.106714D+00  0.656622D+00  0.925213D-01
     47  0.471282D-02 -0.545752D-01 -0.451428D+01 -0.225326D+00  0.143262D-01
     48  0.112904D-01  0.586374D+00 -0.478850D+00 -0.161808D+01 -0.804835D-02
               41            42            43            44            45
     41  0.127603D+01
     42  0.807908D+00  0.422653D+01
     43  0.166626D-02 -0.453262D-02 -0.279707D+00
     44  0.148460D-01 -0.161692D-02 -0.203480D+01  0.467488D+01
     45  0.394164D-02  0.134276D-01 -0.410197D+00 -0.188152D+00  0.580550D+01
     46  0.100106D-01 -0.419446D-02 -0.296916D-01  0.443810D-02 -0.394562D-01
     47  0.411197D-02  0.122842D+00 -0.100800D-01  0.236815D-01 -0.442979D-02
     48  0.115754D+00 -0.407290D-01 -0.120925D-01  0.834384D-02  0.129189D-01
               46            47            48
     46  0.418432D+01
     47  0.296671D-02  0.443148D+01
     48 -0.774644D+00  0.135323D+00  0.145542D+01
 ReadGW:  IGet=0 IStart=         114 Next=        7220 LGW=        7106.
 ICntrl=12127.
 Symmetry not used in FoFDir.
 MinBra= 0 MaxBra= 2 Meth= 1.
 IRaf=       0 NMat=   1 IRICut=       1 DoRegI=T DoRafI=F ISym2E= 0 JSym2E=0.
 PrsmSu:  NPrtUS=   8 ThrOK=T
 PRISM was handed    16285754 working-precision words and  2502 shell-pairs
 PRISM was handed    16285754 working-precision words and  2502 shell-pairs
 PRISM was handed    16285754 working-precision words and  2502 shell-pairs
 PRISM was handed    16285754 working-precision words and  2502 shell-pairs
 PRISM was handed    16285754 working-precision words and  2502 shell-pairs
 PRISM was handed    16285754 working-precision words and  2502 shell-pairs
 PRISM was handed    16285754 working-precision words and  2502 shell-pairs
 PRISM was handed    16285754 working-precision words and  2502 shell-pairs
 Pruned (  75, 302) grid will be used in CalDFT.
 CkSvGd:  ISavGI=        -1 IRadAn=       4 IRASav=       4 ISavGd=        -1.
 CalDSu:  NPrtUS=   8 ThrOK=T
 IPart= 0 IRanGd=          0 ScrnBf=T ScrnGd=T RCrit=4.00D+00 DoMicB=T.
 IPart= 6 IRanGd=          0 ScrnBf=T ScrnGd=T RCrit=4.00D+00 DoMicB=T.
 IPart= 4 IRanGd=          0 ScrnBf=T ScrnGd=T RCrit=4.00D+00 DoMicB=T.
 IPart= 2 IRanGd=          0 ScrnBf=T ScrnGd=T RCrit=4.00D+00 DoMicB=T.
 CutRad = 1000.00    CtRdIn =    0.00    XCrit =  15.00   ICut = 0
 CutRad = 1000.00    CtRdIn =    0.00    XCrit =  15.00   ICut = 0
 CutRad = 1000.00    CtRdIn =    0.00    XCrit =  15.00   ICut = 0
 CutRad = 1000.00    CtRdIn =    0.00    XCrit =  15.00   ICut = 0
 IPart= 7 IRanGd=          0 ScrnBf=T ScrnGd=T RCrit=4.00D+00 DoMicB=T.
 IPart= 1 IRanGd=          0 ScrnBf=T ScrnGd=T RCrit=4.00D+00 DoMicB=T.
 IPart= 3 IRanGd=          0 ScrnBf=T ScrnGd=T RCrit=4.00D+00 DoMicB=T.
 CutRad = 1000.00    CtRdIn =    0.00    XCrit =  15.00   ICut = 0
 IPart= 5 IRanGd=          0 ScrnBf=T ScrnGd=T RCrit=4.00D+00 DoMicB=T.
 CutRad = 1000.00    CtRdIn =    0.00    XCrit =  15.00   ICut = 0
 CutRad = 1000.00    CtRdIn =    0.00    XCrit =  15.00   ICut = 0
 CutRad = 1000.00    CtRdIn =    0.00    XCrit =  15.00   ICut = 0
 IPart= 7        14148 of        16148 points in      32 batches and       90 microbatches, Max-NSigAt=      16 Max-NSgAt2=      16
 IPart= 1        13826 of        16082 points in      34 batches and       97 microbatches, Max-NSigAt=      16 Max-NSgAt2=      16
 IPart= 0        14025 of        15946 points in      32 batches and       95 microbatches, Max-NSigAt=      16 Max-NSgAt2=      16
 IPart= 3        13713 of        15912 points in      32 batches and       81 microbatches, Max-NSigAt=      16 Max-NSgAt2=      16
 IPart= 2        13039 of        14764 points in      30 batches and       94 microbatches, Max-NSigAt=      16 Max-NSgAt2=      16
 IPart= 5        13522 of        15616 points in      32 batches and       96 microbatches, Max-NSigAt=      16 Max-NSgAt2=      16
 IPart= 4        14937 of        16732 points in      35 batches and      100 microbatches, Max-NSigAt=      16 Max-NSgAt2=      16
 IPart= 6        14586 of        16444 points in      34 batches and      112 microbatches, Max-NSigAt=      16 Max-NSgAt2=      16
 Polarizability after L703:
                1             2             3
      1  0.695008D+02
      2  0.246772D+01  0.619692D+02
      3 -0.724392D+00  0.588386D+01  0.539814D+02
 Dipole Derivatives after L703:
               1            2            3            4            5
      1-0.244536D+00 0.417703D+00 0.340637D+00-0.404902D+00-0.266746D+00
      2 0.212854D+00 0.599142D-01 0.279834D+00 0.107945D+00-0.493649D+00
      3-0.176484D-01 0.177286D+00-0.718037D-01-0.207099D-03 0.659327D-02
               6            7            8            9           10
      1-0.281194D+00 0.698755D+00 0.208419D+00-0.128453D-01 0.473983D-01
      2-0.139192D+00 0.761099D-01 0.930205D+00-0.417085D+00 0.927798D-02
      3-0.328914D+00-0.166743D-01-0.135374D+00 0.707444D+00 0.296870D-01
              11           12           13           14           15
      1 0.239925D-01 0.110948D-01-0.495747D+00-0.166518D+00 0.451582D-01
      2-0.302479D-01-0.437045D-01-0.114483D+00-0.639383D+00 0.404940D+00
      3-0.792589D-01-0.542981D-01 0.681161D-01 0.235988D+00-0.698039D+00
              16           17           18           19           20
      1 0.273510D+00 0.792714D-01-0.512166D-01-0.120572D+00-0.110473D+00
      2-0.922587D-03 0.273950D+00-0.639610D-01-0.937930D-01-0.276094D+00
      3 0.798595D-03-0.997803D-01 0.291139D+00 0.277888D-01-0.101176D+00
              21           22           23           24           25
      1-0.999666D-01 0.426561D-03 0.141170D-01 0.832186D-02 0.135434D+00
      2-0.582307D-01 0.131949D-01-0.294517D-02 0.467186D-01 0.209657D-01
      3 0.714028D-01-0.122937D-01 0.484888D-01-0.124954D+00-0.357653D-01
              26           27           28           29           30
      1 0.324640D-01 0.991192D-01-0.721836D-01-0.119992D+00-0.547428D-02
      2 0.159737D+00 0.239021D-01-0.432351D-01-0.483815D-01 0.699520D-02
      3 0.490432D-01 0.776444D-01 0.135660D-01 0.444075D-02 0.755584D-01
              31           32           33           34           35
      1 0.646314D-01 0.275030D-01-0.262135D-01-0.996251D-02 0.911346D-01
      2 0.168031D-03 0.355967D-01 0.654872D-01 0.275446D-01-0.372204D-01
      3 0.331166D-01 0.441002D-01-0.792693D-01 0.260985D-02-0.962455D-01
              36           37           38           39           40
      1 0.261399D-01 0.286041D+00-0.286586D-01-0.174274D-01 0.478392D-01
      2-0.108083D+00 0.331644D+00 0.623771D-01-0.784610D-02-0.117819D+00
      3-0.282356D-01 0.130953D+00-0.471852D-01 0.901918D-01-0.102851D-01
              41           42           43           44           45
      1 0.678224D-02 0.146442D-02-0.213202D+00-0.211905D+00-0.396212D-01
      2-0.538188D-01 0.411049D-01-0.369219D+00 0.267197D-01-0.416462D-01
      3 0.118192D-01 0.389524D-01-0.129766D+00-0.652765D-01 0.103975D+00
              46           47           48
      1 0.707075D-02 0.290472D-02 0.202397D-02
      2-0.602321D-01 0.332403D-01 0.107673D-01
      3-0.839963D-01 0.465356D-01-0.707933D-01
 Hessian after L703:
                1             2             3             4             5
      1  0.172718D+00
      2 -0.351391D-01  0.954031D-01
      3 -0.824647D-01  0.808825D-01  0.181409D+00
      4 -0.661229D-01  0.292291D-01  0.551055D-01  0.272312D+00
      5  0.168724D-01 -0.535210D-01 -0.782136D-01 -0.743044D-01  0.168533D+00
      6  0.180439D-01 -0.631550D-01 -0.166290D+00  0.340336D-01  0.767297D-01
      7 -0.211944D-01  0.220803D-01  0.154849D-01 -0.134770D+00  0.251539D-01
      8  0.231149D-01 -0.440598D-01 -0.222188D-01  0.108573D-01 -0.557971D-01
      9  0.362482D-01 -0.189671D-01 -0.984178D-02 -0.454180D-01  0.839043D-02
     10 -0.481909D-02  0.547680D-02  0.289369D-04 -0.103866D-01  0.227041D-01
     11  0.259335D-02 -0.690300D-03  0.653392D-03  0.470202D-02 -0.103635D-01
     12 -0.253284D-02  0.294716D-02  0.415612D-02  0.328538D-02  0.634850D-03
     13  0.160323D-02  0.197861D-02 -0.689153D-02 -0.801008D-02  0.320184D-01
     14  0.382864D-02 -0.273415D-03  0.703370D-02  0.195115D-01 -0.205422D-01
     15  0.208988D-02 -0.964135D-02  0.532380D-02 -0.246480D-01  0.313242D-01
     16 -0.193943D-02 -0.909572D-03  0.206355D-02 -0.397417D-03  0.110579D-02
     17 -0.143022D-02  0.374144D-02 -0.179243D-02  0.446907D-02 -0.383966D-02
     18  0.997008D-03  0.714395D-04  0.358964D-02  0.369716D-02 -0.609181D-02
     19  0.601409D-02  0.263258D-02 -0.573973D-03 -0.523582D-01 -0.885132D-02
     20  0.771660D-02  0.102196D-01  0.633561D-02  0.508104D-02  0.179014D-03
     21  0.144186D-02  0.258438D-02  0.160633D-02 -0.127738D-01 -0.454305D-02
     22 -0.634469D-03  0.861776D-03  0.550097D-03  0.148442D-02 -0.571764D-04
     23 -0.233819D-03 -0.857022D-04 -0.423402D-03  0.151894D-02  0.152663D-02
     24  0.351080D-03 -0.689016D-03 -0.501398D-03 -0.519558D-03 -0.581431D-03
     25  0.925480D-04 -0.197574D-02 -0.164447D-02 -0.542773D-02 -0.102132D-02
     26 -0.204374D-02 -0.446944D-02 -0.401503D-02 -0.871616D-02  0.807818D-03
     27 -0.237152D-04 -0.282238D-02 -0.262361D-02 -0.170002D-02  0.774046D-03
     28 -0.412594D-03 -0.110885D-02 -0.123002D-02 -0.279581D-02  0.183759D-03
     29  0.150442D-03  0.632401D-03  0.600241D-03  0.164266D-02  0.238510D-03
     30 -0.149257D-03 -0.156514D-03  0.230977D-05 -0.750911D-03 -0.249955D-03
     31  0.180958D-03 -0.855509D-04  0.117365D-03  0.185730D-03 -0.582518D-03
     32  0.240912D-04  0.236821D-03  0.211934D-03  0.274982D-03 -0.212816D-03
     33 -0.169878D-04 -0.474263D-04  0.907247D-04 -0.197609D-03 -0.351894D-03
     34  0.818018D-04  0.820358D-03  0.891291D-03  0.114766D-02 -0.611691D-03
     35 -0.253129D-03 -0.485984D-03 -0.503236D-03  0.555140D-04  0.614822D-03
     36 -0.847436D-04  0.366743D-03  0.328485D-03  0.550683D-03  0.287572D-03
     37 -0.100206D+00 -0.845354D-01 -0.357296D-01 -0.120643D-01  0.175390D-01
     38 -0.214861D-01 -0.556779D-02  0.141456D-02  0.840138D-02  0.898843D-03
     39 -0.336547D-03 -0.424446D-03  0.417238D-02  0.269755D-02 -0.234017D-02
     40  0.163108D-02  0.549146D-02  0.458120D-02  0.304745D-02 -0.246120D-02
     41 -0.129487D-02 -0.629647D-03 -0.151145D-02 -0.427172D-03  0.784635D-03
     42  0.754637D-03  0.233216D-03  0.332169D-03  0.554101D-03 -0.354162D-03
     43  0.806560D-02  0.499277D-01  0.460885D-01  0.142751D-01 -0.240963D-01
     44  0.671383D-02 -0.107783D-02  0.114006D-01 -0.252391D-02 -0.282751D-01
     45  0.267345D-01  0.105580D-01 -0.218211D-01 -0.139967D-01 -0.261218D-01
     46  0.494210D-02  0.525550D-02  0.362295D-02 -0.119857D-03 -0.359146D-02
     47  0.866643D-03  0.627575D-03  0.145417D-03  0.228110D-03 -0.103187D-02
     48 -0.105226D-02 -0.174030D-02  0.668601D-04  0.807377D-04  0.706952D-03
                6             7             8             9            10
      6  0.295250D+00
      7 -0.140426D-01  0.384264D+00
      8  0.125185D-02 -0.239053D-01  0.498754D+00
      9 -0.963206D-01 -0.584678D-01  0.112196D+00  0.616317D+00
     10  0.243794D-01 -0.527360D-01  0.182476D-01  0.178769D-01  0.630776D-01
     11 -0.117069D-01  0.269737D-01 -0.161145D+00 -0.130822D+00 -0.275411D-01
     12  0.511471D-02  0.238414D-01 -0.126355D+00 -0.193246D+00 -0.320190D-01
     13 -0.361298D-01 -0.767195D-01 -0.317404D-02  0.436898D-01  0.335669D-02
     14  0.256768D-01  0.910445D-02 -0.127136D+00  0.395726D-01  0.214196D-03
     15 -0.257960D-01  0.197009D-01  0.674340D-01 -0.190084D+00  0.379736D-02
     16 -0.312805D-02 -0.143022D-03 -0.964769D-03  0.359386D-02  0.473185D-03
     17  0.179022D-02 -0.175115D-01  0.168222D-01  0.127675D-01  0.760874D-03
     18 -0.124084D-02  0.220029D-01 -0.156243D-01 -0.419761D-01  0.448840D-03
     19 -0.641337D-02 -0.731742D-01 -0.265807D-01  0.722064D-03  0.219673D-02
     20 -0.785092D-02 -0.164203D-01 -0.913739D-01 -0.180535D-01 -0.181010D-01
     21 -0.466909D-03  0.685658D-02 -0.748901D-02 -0.795851D-01 -0.160547D-01
     22 -0.164842D-03 -0.241265D-02 -0.831699D-02  0.211425D-01  0.828509D-03
     23 -0.760895D-03  0.192519D-03 -0.935150D-02  0.232278D-01  0.551263D-03
     24  0.146432D-02 -0.604807D-03  0.467256D-03 -0.298569D-02  0.362972D-03
     25  0.111781D-03 -0.314223D-01  0.412540D-02 -0.307890D-02  0.186953D-02
     26  0.272684D-02 -0.165136D-01  0.872761D-02 -0.308562D-02 -0.312300D-03
     27  0.173148D-02 -0.780238D-03 -0.154638D-02  0.238080D-02 -0.333168D-03
     28  0.852856D-03 -0.206498D-02  0.376264D-02 -0.734563D-03  0.145327D-03
     29 -0.182164D-03  0.200160D-02 -0.206792D-02  0.792805D-03  0.188075D-03
     30  0.275946D-03 -0.846746D-03  0.171154D-02 -0.891555D-03  0.273444D-03
     31  0.617406D-03  0.147238D-02  0.163556D-02 -0.287679D-02 -0.118380D-03
     32 -0.883296D-04 -0.793898D-03 -0.345210D-04 -0.457102D-03  0.102195D-03
     33  0.229714D-03  0.740335D-03  0.204312D-02 -0.186281D-02 -0.276095D-04
     34 -0.798044D-03  0.638847D-03  0.194558D-02  0.121735D-02 -0.388118D-03
     35  0.817808D-03 -0.127491D-02 -0.418485D-03  0.211605D-03  0.420568D-03
     36  0.219625D-04  0.123805D-04 -0.543369D-03  0.139441D-03  0.302820D-03
     37  0.186899D-01  0.172411D-01 -0.159073D-01 -0.116317D-01 -0.418602D-02
     38 -0.783344D-03 -0.758785D-02 -0.317703D-01 -0.164291D-01 -0.177867D-02
     39  0.801038D-03 -0.132618D-01 -0.733179D-02  0.170964D-02  0.165973D-02
     40 -0.315257D-02 -0.548534D-02  0.293783D-03  0.728990D-03  0.681831D-03
     41  0.872550D-03  0.324685D-02 -0.191957D-02 -0.229470D-02 -0.863452D-03
     42  0.102913D-03  0.897116D-03 -0.252924D-02 -0.285958D-02 -0.675105D-03
     43 -0.302395D-01 -0.324025D-02  0.114732D-01 -0.248495D-02 -0.184703D-03
     44 -0.248436D-01 -0.401313D-02 -0.234089D-03 -0.549954D-02  0.132915D-05
     45 -0.157625D-01 -0.251568D-02 -0.167465D-02  0.775720D-03  0.229429D-03
     46 -0.266006D-02 -0.254268D-03  0.339306D-02 -0.526829D-03  0.189478D-03
     47 -0.494628D-03 -0.732901D-03  0.100556D-02 -0.154955D-02 -0.705503D-04
     48  0.884913D-03  0.983102D-03  0.209274D-03 -0.166960D-02 -0.250250D-03
               11            12            13            14            15
     11  0.173435D+00
     12  0.130786D+00  0.219324D+00
     13 -0.611935D-02  0.106163D-01  0.249121D+00
     14  0.136205D-01 -0.821815D-02 -0.167395D+00  0.318318D+00
     15  0.204853D-01 -0.335567D-01 -0.191148D+00  0.247904D-01  0.455880D+00
     16  0.391499D-03 -0.356496D-02 -0.165070D+00  0.146184D+00  0.182771D+00
     17 -0.799810D-03  0.155022D-02  0.160326D+00 -0.166743D+00 -0.156653D+00
     18  0.452975D-02 -0.462830D-02  0.155950D+00 -0.121651D+00 -0.202729D+00
     19  0.100671D-02  0.153403D-02 -0.400696D-03 -0.706016D-02  0.510224D-02
     20 -0.137174D-01 -0.143164D-02 -0.134870D-01 -0.176104D-01  0.200940D-01
     21 -0.153127D-01  0.826879D-03  0.211963D-01  0.303229D-01 -0.111462D-01
     22  0.316187D-03 -0.342568D-03 -0.303235D-02 -0.484161D-02  0.159612D-02
     23  0.162265D-03 -0.257909D-03 -0.450078D-02 -0.413577D-02  0.178609D-02
     24  0.250985D-03  0.853461D-03  0.325337D-04  0.814650D-03  0.143150D-02
     25  0.678489D-03  0.185874D-03 -0.416776D-03  0.193628D-02 -0.281706D-02
     26  0.487085D-03 -0.408758D-04 -0.651035D-03  0.617668D-03  0.168482D-03
     27  0.216629D-03 -0.129672D-03 -0.954614D-03  0.588775D-03 -0.138852D-02
     28 -0.534543D-04 -0.137469D-03  0.112018D-03 -0.241361D-04  0.297341D-04
     29  0.177013D-03  0.152143D-03 -0.586668D-03  0.408711D-03 -0.320933D-03
     30  0.228865D-03  0.831132D-04  0.937308D-03 -0.213750D-03  0.779738D-03
     31 -0.273489D-04  0.127392D-03  0.263742D-03 -0.535102D-03  0.157467D-02
     32  0.282977D-05  0.263946D-04 -0.909312D-03 -0.393947D-03 -0.665327D-03
     33  0.209580D-04  0.330048D-04  0.158755D-02 -0.658226D-03  0.111390D-02
     34 -0.653183D-03 -0.461783D-03  0.913458D-04 -0.694905D-03 -0.545190D-04
     35  0.474641D-03  0.979502D-04  0.403898D-04  0.323006D-03 -0.364839D-03
     36  0.758998D-04  0.126080D-03  0.407393D-03  0.578687D-03  0.243600D-03
     37 -0.256505D-02 -0.693099D-04 -0.324114D-02  0.175753D-02 -0.111234D-03
     38 -0.159983D-02  0.526517D-05  0.160489D-02  0.349334D-02 -0.173411D-02
     39  0.813414D-03  0.124809D-02  0.563950D-03  0.118079D-02 -0.152994D-02
     40  0.104493D-03  0.295106D-04  0.876827D-03 -0.990899D-04 -0.489489D-03
     41 -0.593348D-03 -0.868383D-04 -0.195231D-03  0.500262D-03  0.194342D-03
     42 -0.576724D-03 -0.195589D-03  0.195651D-03  0.359604D-03  0.981936D-03
     43  0.201971D-03 -0.452223D-03  0.961611D-03 -0.172081D-02  0.140444D-02
     44  0.764609D-03  0.156080D-04  0.900644D-03 -0.262574D-03  0.179503D-02
     45  0.566883D-03 -0.149350D-03 -0.120544D-05 -0.185666D-03 -0.624962D-03
     46 -0.896782D-05 -0.396751D-04  0.504253D-03 -0.165810D-03  0.120163D-02
     47 -0.214486D-03  0.174370D-03  0.149659D-03 -0.183738D-03  0.130793D-02
     48 -0.210028D-03  0.140671D-03 -0.523242D-04  0.823535D-05  0.110068D-02
               16            17            18            19            20
     16  0.167604D+00
     17 -0.144501D+00  0.157245D+00
     18 -0.182387D+00  0.139210D+00  0.245572D+00
     19 -0.458619D-03 -0.744843D-04 -0.306240D-03  0.407940D+00
     20  0.926877D-03 -0.209944D-02 -0.445686D-03 -0.363136D-01  0.427792D+00
     21  0.668814D-03  0.257572D-02  0.569017D-04 -0.560677D-02 -0.432113D-01
     22  0.102022D-03 -0.297425D-03 -0.285712D-03 -0.470451D-01 -0.350218D-03
     23  0.707652D-04 -0.854505D-03 -0.241217D-03 -0.250720D-02 -0.809559D-01
     24 -0.374180D-03 -0.308904D-03  0.239818D-03  0.428932D-02  0.861274D-01
     25 -0.103363D-03  0.971055D-04 -0.431672D-04 -0.140417D+00  0.306631D-01
     26 -0.319326D-03  0.109230D-03 -0.302554D-03  0.371211D-01 -0.816127D-01
     27  0.627735D-03 -0.375236D-03  0.249626D-03 -0.135222D-01  0.112655D-01
     28  0.611687D-04  0.351526D-04 -0.121178D-03 -0.213854D-01 -0.176810D-01
     29  0.278650D-05 -0.544725D-04 -0.837317D-04  0.122577D-01  0.983130D-02
     30 -0.705093D-04  0.633913D-04  0.278250D-04 -0.581669D-02 -0.488486D-02
     31 -0.569463D-03  0.423226D-04  0.189507D-03 -0.205874D-02  0.132933D-01
     32  0.118660D-03  0.115380D-03  0.155603D-03  0.110462D-02 -0.664711D-02
     33  0.105394D-03  0.889571D-04  0.173192D-03 -0.231065D-02  0.218178D-02
     34 -0.530510D-04  0.209684D-03 -0.706205D-04 -0.894239D-02  0.199688D-01
     35  0.983044D-04 -0.759583D-04  0.126151D-03  0.355166D-02 -0.884801D-02
     36 -0.293038D-03 -0.278525D-04 -0.124092D-03 -0.305941D-02  0.626962D-02
     37  0.258439D-02 -0.115691D-02  0.161193D-02 -0.590749D-01  0.169257D-01
     38 -0.719983D-03 -0.156404D-03  0.179116D-03  0.322645D-01 -0.137929D+00
     39  0.321343D-03  0.560979D-03  0.584256D-03  0.258542D-01 -0.430080D-01
     40 -0.453039D-03  0.390170D-03 -0.310154D-03  0.826315D-02  0.105850D-01
     41  0.293161D-03  0.687232D-05  0.330695D-04 -0.603916D-02 -0.136652D-01
     42 -0.427877D-03 -0.262370D-03 -0.161842D-03 -0.301029D-02 -0.186546D-01
     43 -0.792780D-03 -0.809512D-03 -0.836171D-03 -0.199986D-01 -0.108947D-02
     44 -0.107073D-02 -0.290864D-02  0.313477D-03  0.263748D-02 -0.836046D-03
     45  0.526447D-03  0.115138D-02  0.249296D-03  0.756367D-02  0.337063D-03
     46 -0.844925D-03 -0.548801D-03 -0.537065D-03  0.900133D-03 -0.171808D-02
     47 -0.706231D-03 -0.508024D-03 -0.177700D-03 -0.514967D-02  0.727376D-02
     48 -0.431988D-03 -0.338097D-03  0.117362D-03 -0.444597D-02  0.492942D-02
               21            22            23            24            25
     21  0.586925D+00
     22  0.199794D-02  0.549108D-01
     23  0.865836D-01  0.653144D-03  0.943218D-01
     24 -0.270291D+00 -0.289256D-02 -0.911775D-01  0.293466D+00
     25 -0.201408D-01 -0.159118D-02  0.577722D-03 -0.573127D-03  0.469218D+00
     26  0.149881D-01  0.128746D-01 -0.540265D-02  0.238922D-02  0.526748D-01
     27 -0.808382D-01 -0.285771D-01  0.115395D-01 -0.511233D-02 -0.245895D-01
     28  0.217473D-02  0.109597D-02 -0.715141D-04 -0.319034D-03 -0.179254D+00
     29 -0.132269D-02 -0.862804D-03  0.568699D-03 -0.290682D-03 -0.133660D+00
     30 -0.783903D-03  0.216266D-03 -0.541503D-03  0.678587D-04  0.620197D-02
     31 -0.281246D-01 -0.551757D-02  0.230551D-02 -0.100383D-02 -0.453009D-01
     32  0.120113D-01  0.240646D-02 -0.389074D-03  0.190228D-03 -0.222206D-02
     33 -0.695697D-02 -0.104606D-02  0.304000D-03  0.119803D-02  0.463777D-02
     34  0.202485D-01  0.116004D-02 -0.315368D-03 -0.257418D-03 -0.580212D-01
[...]
    Y6       -1.89553  -0.00004   0.00000  -0.00070  -0.00062  -1.89615
    Z6        2.47495  -0.00003   0.00000  -0.00011  -0.00014   2.47481
    X7        1.62842   0.00000   0.00000   0.00002   0.00008   1.62850
    Y7        0.62282  -0.00001   0.00000  -0.00002   0.00004   0.62286
    Z7       -0.89997   0.00000   0.00000   0.00002   0.00002  -0.89995
    X8        1.64291   0.00000   0.00000  -0.00014  -0.00006   1.64285
    Y8        1.36735   0.00000   0.00000   0.00019   0.00025   1.36760
    Z8       -2.82915   0.00000   0.00000   0.00010   0.00010  -2.82905
    X9        4.22066   0.00000   0.00000   0.00010   0.00015   4.22081
    Y9       -0.56336   0.00000   0.00000   0.00003   0.00007  -0.56329
    Z9       -0.30934   0.00000   0.00000  -0.00024  -0.00022  -0.30956
   X10        5.70845   0.00000   0.00000   0.00017   0.00023   5.70867
   Y10        0.86541   0.00000   0.00000  -0.00008  -0.00005   0.86536
   Z10       -0.36570   0.00000   0.00000  -0.00112  -0.00108  -0.36678
   X11        4.20190   0.00000   0.00000   0.00057   0.00059   4.20249
   Y11       -1.43181   0.00000   0.00000   0.00067   0.00071  -1.43110
   Z11        1.56092   0.00000   0.00000   0.00006   0.00009   1.56100
   X12        4.68551   0.00000   0.00000  -0.00036  -0.00031   4.68521
   Y12       -2.02892   0.00000   0.00000  -0.00048  -0.00044  -2.02936
   Z12       -1.69147   0.00000   0.00000   0.00015   0.00018  -1.69129
   X13        0.94562  -0.00003   0.00000  -0.00015  -0.00010   0.94552
   Y13        2.72791  -0.00001   0.00000  -0.00026  -0.00020   2.72771
   Z13        0.89363   0.00000   0.00000   0.00024   0.00023   0.89386
   X14        1.23659   0.00000   0.00000  -0.00006   0.00001   1.23660
   Y14        4.65501   0.00000   0.00000  -0.00014  -0.00008   4.65493
   Z14        0.24262   0.00000   0.00000   0.00064   0.00063   0.24325
   X15       -1.67987   0.00003   0.00000   0.00030   0.00035  -1.67952
   Y15        2.42775  -0.00001   0.00000  -0.00021  -0.00014   2.42762
   Z15        0.91196   0.00000   0.00000  -0.00005  -0.00008   0.91189
   X16        1.41988  -0.00001   0.00000  -0.00068  -0.00065   1.41923
   Y16        2.43649   0.00000   0.00000  -0.00065  -0.00059   2.43589
   Z16        2.87517   0.00000   0.00000   0.00030   0.00030   2.87548
         Item               Value     Threshold  Converged?
 Maximum Force            0.000046     0.000450     YES
 RMS     Force            0.000015     0.000300     YES
 Maximum Displacement     0.001078     0.001800     YES
 RMS     Displacement     0.000362     0.001200     YES
 Predicted change in Energy=-4.275617D-08
 Optimization completed.
    -- Stationary point found.
 GradGradGradGradGradGradGradGradGradGradGradGradGradGradGradGradGradGrad


 Test job not archived.
 1\1\GINC-NODE24\Freq\UB3LYP\CBSB7\C4H9O3(2)\NYEE\10-Jul-2014\0\\# freq
  nosymm b3lyp/cbsb7 iop(7/33=1)\\Title Card Required\\0,2\O,-1.840354,
 0.629173,0.362509\O,-1.48745,-0.143592,-0.775344\C,-0.243315,-0.777007
 ,-0.475787\H,-0.084648,-1.469606,-1.305898\O,-0.300496,-1.514381,0.704
 05\H,-0.856236,-1.003069,1.309685\C,0.861725,0.329582,-0.476243\H,0.86
 939,0.72357,-1.497121\C,2.233479,-0.298118,-0.163698\H,3.02078,0.45795
 5,-0.193522\H,2.223549,-0.757683,0.826002\H,2.479466,-1.073656,-0.8950
 89\C,0.500402,1.443549,0.472886\H,0.654374,2.463327,0.128388\H,-0.8889
 5,1.284712,0.482591\H,0.751369,1.289334,1.521476\\Version=AM64L-G03Rev
 D.01\HF=-383.4541963\S2=0.756298\S2-1=0.\S2A=0.750023\RMSD=8.228e-09\R
 MSF=1.502e-05\ZeroPoint=0.1266754\Thermal=0.1340902\Dipole=1.006142,0.
 435917,0.0287372\DipoleDeriv=-0.2445362,0.2128543,-0.0176484,0.4177029
 ,0.0599142,0.1772864,0.3406365,0.2798338,-0.0718037,-0.4049022,0.10794
 46,-0.0002071,-0.2667461,-0.4936491,0.0065933,-0.2811941,-0.1391924,-0
 .3289139,0.6987546,0.0761099,-0.0166743,0.2084191,0.9302046,-0.1353737
 ,-0.0128453,-0.4170849,0.7074435,0.0473983,0.009278,0.029687,0.0239925
 ,-0.0302479,-0.0792589,0.0110948,-0.0437045,-0.0542981,-0.4957473,-0.1
 144832,0.0681161,-0.1665175,-0.6393826,0.2359884,0.0451582,0.4049398,-
 0.6980394,0.2735102,-0.0009226,0.0007986,0.0792714,0.2739497,-0.099780
 3,-0.0512166,-0.063961,0.2911393,-0.1205723,-0.093793,0.0277888,-0.110
 4726,-0.2760935,-0.1011757,-0.0999666,-0.0582307,0.0714028,0.0004266,0
 .0131949,-0.0122937,0.014117,-0.0029452,0.0484888,0.0083219,0.0467186,
 -0.124954,0.1354338,0.0209657,-0.0357653,0.032464,0.1597367,0.0490432,
 0.0991192,0.0239021,0.0776444,-0.0721836,-0.0432351,0.013566,-0.119992
 1,-0.0483815,0.0044407,-0.0054743,0.0069952,0.0755584,0.0646314,0.0001
 68,0.0331166,0.027503,0.0355967,0.0441002,-0.0262135,0.0654872,-0.0792
 693,-0.0099625,0.0275446,0.0026099,0.0911346,-0.0372204,-0.0962455,0.0
 261399,-0.1080829,-0.0282356,0.2860411,0.331644,0.130953,-0.0286586,0.
 0623771,-0.0471852,-0.0174274,-0.0078461,0.0901918,0.0478392,-0.117819
 1,-0.0102851,0.0067822,-0.0538188,0.0118192,0.0014644,0.0411049,0.0389
 524,-0.2132019,-0.369219,-0.1297657,-0.2119045,0.0267197,-0.0652765,-0
 .0396212,-0.0416462,0.1039747,0.0070708,-0.0602321,-0.0839963,0.002904
 7,0.0332403,0.0465356,0.002024,0.0107673,-0.0707933\Polar=69.5007513,2
 .4677161,61.9691967,-0.7243918,5.8838636,53.9813714\PG=C01 [X(C4H9O3)]
 \NImag=1\\0.17271775,-0.03513908,0.09540310,-0.08246469,0.08088248,0.1
 8140894,-0.06612285,0.02922911,0.05510546,0.27231221,0.01687239,-0.053
 52097,-0.07821357,-0.07430439,0.16853298,0.01804392,-0.06315497,-0.166
 28983,0.03403358,0.07672975,0.29524971,-0.02119442,0.02208033,0.015484
 95,-0.13476978,0.02515394,-0.01404263,0.38426428,0.02311493,-0.0440598
 3,-0.02221879,0.01085735,-0.05579706,0.00125185,-0.02390530,0.49875374
 ,0.03624817,-0.01896705,-0.00984178,-0.04541802,0.00839043,-0.09632062
 ,-0.05846782,0.11219554,0.61631732,-0.00481909,0.00547680,0.00002894,-
 0.01038659,0.02270409,0.02437943,-0.05273599,0.01824762,0.01787690,0.0
 6307762,0.00259335,-0.00069030,0.00065339,0.00470202,-0.01036354,-0.01
 170693,0.02697370,-0.16114547,-0.13082220,-0.02754108,0.17343529,-0.00
 253284,0.00294716,0.00415612,0.00328538,0.00063485,0.00511471,0.023841
 36,-0.12635501,-0.19324611,-0.03201898,0.13078645,0.21932358,0.0016032
 3,0.00197861,-0.00689153,-0.00801008,0.03201841,-0.03612983,-0.0767194
 6,-0.00317404,0.04368980,0.00335669,-0.00611935,0.01061625,0.24912051,
 0.00382864,-0.00027342,0.00703370,0.01951145,-0.02054220,0.02567675,0.
 00910445,-0.12713647,0.03957262,0.00021420,0.01362049,-0.00821815,-0.1
 6739492,0.31831808,0.00208988,-0.00964135,0.00532380,-0.02464801,0.031
 32421,-0.02579603,0.01970093,0.06743400,-0.19008397,0.00379736,0.02048
 531,-0.03355668,-0.19114762,0.02479035,0.45587969,-0.00193943,-0.00090
 957,0.00206355,-0.00039742,0.00110579,-0.00312805,-0.00014302,-0.00096
 477,0.00359386,0.00047318,0.00039150,-0.00356496,-0.16506972,0.1461840
 0,0.18277094,0.16760407,-0.00143022,0.00374144,-0.00179243,0.00446907,
 -0.00383966,0.00179022,-0.01751149,0.01682220,0.01276752,0.00076087,-0
 .00079981,0.00155022,0.16032569,-0.16674308,-0.15665321,-0.14450123,0.
 15724487,0.00099701,0.00007144,0.00358964,0.00369716,-0.00609181,-0.00
 124084,0.02200294,-0.01562433,-0.04197613,0.00044884,0.00452975,-0.004
 62830,0.15595041,-0.12165129,-0.20272859,-0.18238749,0.13920971,0.2455
 7189,0.00601409,0.00263258,-0.00057397,-0.05235819,-0.00885132,-0.0064
 1337,-0.07317416,-0.02658074,0.00072206,0.00219673,0.00100671,0.001534
 03,-0.00040070,-0.00706016,0.00510224,-0.00045862,-0.00007448,-0.00030
 624,0.40793981,0.00771660,0.01021957,0.00633561,0.00508104,0.00017901,
 -0.00785092,-0.01642030,-0.09137391,-0.01805350,-0.01810096,-0.0137174
 5,-0.00143164,-0.01348695,-0.01761037,0.02009404,0.00092688,-0.0020994
 4,-0.00044569,-0.03631358,0.42779153,0.00144186,0.00258438,0.00160633,
 -0.01277384,-0.00454305,-0.00046691,0.00685658,-0.00748901,-0.07958507
 ,-0.01605475,-0.01531266,0.00082688,0.02119628,0.03032291,-0.01114616,
 0.00066881,0.00257572,0.00005690,-0.00560677,-0.04321125,0.58692483,-0
 .00063447,0.00086178,0.00055010,0.00148442,-0.00005718,-0.00016484,-0.
 00241265,-0.00831699,0.02114246,0.00082851,0.00031619,-0.00034257,-0.0
 0303235,-0.00484161,0.00159612,0.00010202,-0.00029742,-0.00028571,-0.0
 4704506,-0.00035022,0.00199794,0.05491080,-0.00023382,-0.00008570,-0.0
 0042340,0.00151894,0.00152663,-0.00076089,0.00019252,-0.00935150,0.023
 22781,0.00055126,0.00016227,-0.00025791,-0.00450078,-0.00413577,0.0017
 8609,0.00007077,-0.00085450,-0.00024122,-0.00250720,-0.08095595,0.0865
 8357,0.00065314,0.09432178,0.00035108,-0.00068902,-0.00050140,-0.00051
 956,-0.00058143,0.00146432,-0.00060481,0.00046726,-0.00298569,0.000362
 97,0.00025098,0.00085346,0.00003253,0.00081465,0.00143150,-0.00037418,
 -0.00030890,0.00023982,0.00428932,0.08612745,-0.27029118,-0.00289256,-
 0.09117750,0.29346587,0.00009255,-0.00197574,-0.00164447,-0.00542773,-
 0.00102132,0.00011178,-0.03142230,0.00412540,-0.00307890,0.00186953,0.
 00067849,0.00018587,-0.00041678,0.00193628,-0.00281706,-0.00010336,0.0
 0009711,-0.00004317,-0.14041708,0.03066312,-0.02014083,-0.00159118,0.0
 0057772,-0.00057313,0.46921844,-0.00204374,-0.00446944,-0.00401503,-0.
 00871616,0.00080782,0.00272684,-0.01651360,0.00872761,-0.00308562,-0.0
 0031230,0.00048709,-0.00004088,-0.00065104,0.00061767,0.00016848,-0.00
 031933,0.00010923,-0.00030255,0.03712107,-0.08161267,0.01498810,0.0128
 7458,-0.00540265,0.00238922,0.05267479,0.54453452,-0.00002372,-0.00282
 238,-0.00262361,-0.00170002,0.00077405,0.00173148,-0.00078024,-0.00154
 638,0.00238080,-0.00033317,0.00021663,-0.00012967,-0.00095461,0.000588
 77,-0.00138852,0.00062773,-0.00037524,0.00024963,-0.01352219,0.0112654
 5,-0.08083819,-0.02857712,0.01153952,-0.00511233,-0.02458948,0.0076003
 7,0.56288877,-0.00041259,-0.00110885,-0.00123002,-0.00279581,0.0001837
 6,0.00085286,-0.00206498,0.00376264,-0.00073456,0.00014533,-0.00005345
 ,-0.00013747,0.00011202,-0.00002414,0.00002973,0.00006117,0.00003515,-
 0.00012118,-0.02138540,-0.01768098,0.00217473,0.00109597,-0.00007151,-
 0.00031903,-0.17925384,-0.13274793,0.00599681,0.19718216,0.00015044,0.
 00063240,0.00060024,0.00164266,0.00023851,-0.00018216,0.00200160,-0.00
 206792,0.00079280,0.00018808,0.00017701,0.00015214,-0.00058667,0.00040
 871,-0.00032093,0.00000279,-0.00005447,-0.00008373,0.01225766,0.009831
 30,-0.00132269,-0.00086280,0.00056870,-0.00029068,-0.13366030,-0.17746
 883,0.00566578,0.14293006,0.19100150,-0.00014926,-0.00015651,0.0000023
 1,-0.00075091,-0.00024995,0.00027595,-0.00084675,0.00171154,-0.0008915
 5,0.00027344,0.00022886,0.00008311,0.00093731,-0.00021375,0.00077974,-
 0.00007051,0.00006339,0.00002783,-0.00581669,-0.00488486,-0.00078390,0
 .00021627,-0.00054150,0.00006786,0.00620197,0.00513100,-0.04781952,-0.
 00555797,-0.00632849,0.04662360,0.00018096,-0.00008555,0.00011737,0.00
 018573,-0.00058252,0.00061741,0.00147238,0.00163556,-0.00287679,-0.000
 11838,-0.00002735,0.00012739,0.00026374,-0.00053510,0.00157467,-0.0005
 6946,0.00004232,0.00018951,-0.00205874,0.01329332,-0.02812460,-0.00551
 757,0.00230551,-0.00100383,-0.04530095,-0.00334744,0.00740226,0.000035
 78,-0.00822878,0.02169257,0.05075079,0.00002409,0.00023682,0.00021193,
 0.00027498,-0.00021282,-0.00008833,-0.00079390,-0.00003452,-0.00045710
 ,0.00010219,0.00000283,0.00002639,-0.00090931,-0.00039395,-0.00066533,
 0.00011866,0.00011538,0.00015560,0.00110462,-0.00664711,0.01201130,0.0
 0240646,-0.00038907,0.00019023,-0.00222206,-0.09372792,0.10067486,0.00
 061064,-0.00922895,0.02020908,-0.00008409,0.09910374,-0.00001699,-0.00
 004743,0.00009072,-0.00019761,-0.00035189,0.00022971,0.00074034,0.0020
 4312,-0.00186281,-0.00002761,0.00002096,0.00003300,0.00158755,-0.00065
 823,0.00111390,0.00010539,0.00008896,0.00017319,-0.00231065,0.00218178
 ,-0.00695697,-0.00104606,0.00030400,0.00119803,0.00463777,0.09983606,-
 0.26706553,0.00058525,-0.00092980,0.00101616,-0.00470078,-0.11110881,0
 .28894753,0.00008180,0.00082036,0.00089129,0.00114766,-0.00061169,-0.0
 0079804,0.00063885,0.00194558,0.00121735,-0.00038812,-0.00065318,-0.00
 046178,0.00009135,-0.00069490,-0.00005452,-0.00005305,0.00020968,-0.00
 007062,-0.00894239,0.01996883,0.02024848,0.00116004,-0.00031537,-0.000
 25742,-0.05802122,0.03753967,0.03713104,0.00577392,-0.01566520,-0.0167
 6677,-0.00080431,-0.00003449,0.00041412,0.06378469,-0.00025313,-0.0004
 8598,-0.00050324,0.00005551,0.00061482,0.00081781,-0.00127491,-0.00041
 849,0.00021160,0.00042057,0.00047464,0.00009795,0.00004039,0.00032301,
 -0.00036484,0.00009830,-0.00007596,0.00012615,0.00355166,-0.00884801,-
 0.00802808,-0.00026837,-0.00002233,0.00026547,0.03773846,-0.17578342,-
 0.12358534,0.00512688,-0.01543641,-0.01522094,-0.00329461,0.01077252,0
 .00912250,-0.04464075,0.18920770,-0.00008474,0.00036674,0.00032848,0.0
 0055068,0.00028757,0.00002196,0.00001238,-0.00054337,0.00013944,0.0003
 0282,0.00007590,0.00012608,0.00040739,0.00057869,0.00024360,-0.0002930
 4,-0.00002785,-0.00012409,-0.00305941,0.00626962,0.00467838,0.00061018
 ,0.00003767,0.00068862,0.03798611,-0.12339274,-0.16576059,-0.00090942,
 0.00182931,0.00072750,0.00543144,-0.02176182,-0.01851426,-0.03994324,0
 .13644561,0.17653732,-0.10020630,-0.08453540,-0.03572959,-0.01206427,0
 .01753903,0.01868991,0.01724110,-0.01590729,-0.01163173,-0.00418602,-0
 .00256505,-0.00006931,-0.00324114,0.00175753,-0.00011123,0.00258439,-0
 .00115691,0.00161193,-0.05907493,0.01692574,0.01726406,0.00055069,0.00
 001392,-0.00030407,-0.01271275,0.02027685,0.01448829,0.00068224,0.0006
 7402,0.00041281,0.00120618,-0.00033087,0.00034702,-0.00285224,0.002428
 93,-0.00071256,0.15434281,-0.02148606,-0.00556779,0.00141456,0.0084013
 8,0.00089884,-0.00078334,-0.00758785,-0.03177029,-0.01642906,-0.001778
 67,-0.00159983,0.00000527,0.00160489,0.00349334,-0.00173411,-0.0007199
 8,-0.00015640,0.00017912,0.03226454,-0.13792899,-0.05528564,-0.0025525
 9,0.00623244,0.00517571,0.01013655,-0.01759227,-0.01015844,-0.00142508
 ,0.00143434,-0.00007692,-0.00136122,0.00067312,-0.00086068,0.00228437,
 -0.00015362,0.00009248,0.00559445,0.55021730,-0.00033655,-0.00042445,0
 .00417238,0.00269755,-0.00234017,0.00080104,-0.01326178,-0.00733179,0.
 00170964,0.00165973,0.00081341,0.00124809,0.00056395,0.00118079,-0.001
 52994,0.00032134,0.00056098,0.00058426,0.02585424,-0.04300796,-0.13514
 703,0.00732516,-0.02647315,-0.02051424,0.00516414,-0.00144491,0.003252
 25,-0.00088770,0.00015210,-0.00000221,-0.00121822,0.00149486,0.0011689
 4,-0.00197066,0.00090646,0.00035728,0.03298201,-0.04788619,0.55032937,
 0.00163108,0.00549146,0.00458120,0.00304745,-0.00246120,-0.00315257,-0
 .00548534,0.00029378,0.00072899,0.00068183,0.00010449,0.00002951,0.000
 87683,-0.00009909,-0.00048949,-0.00045304,0.00039017,-0.00031015,0.008
 26315,0.01058501,-0.00179924,-0.00023451,-0.00070030,-0.00026800,-0.00
 070003,0.00033158,-0.00074954,-0.00020369,-0.00009534,0.00000080,0.000
 07530,-0.00011278,0.00018652,-0.00000495,-0.00018304,0.00043862,-0.028
 87439,-0.04735157,0.01671592,0.02798871,-0.00129487,-0.00062965,-0.001
 51145,-0.00042717,0.00078464,0.00087255,0.00324685,-0.00191957,-0.0022
 9470,-0.00086345,-0.00059335,-0.00008684,-0.00019523,0.00050026,0.0001
 9434,0.00029316,0.00000687,0.00003307,-0.00603916,-0.01366523,0.007803
 63,0.00007017,0.00132571,-0.00021438,-0.00055607,-0.00098133,-0.000944
 41,0.00032395,0.00005593,0.00008684,-0.00008736,0.00013215,-0.00001944
 ,0.00049956,-0.00001610,-0.00005823,-0.03538824,-0.29442455,0.08641480
 ,0.04071699,0.31135867,0.00075464,0.00023322,0.00033217,0.00055410,-0.
 00035416,0.00010291,0.00089712,-0.00252924,-0.00285958,-0.00067511,-0.
 00057672,-0.00019559,0.00019565,0.00035960,0.00098194,-0.00042788,-0.0
 0026237,-0.00016184,-0.00301029,-0.01865461,0.00727553,-0.00041276,0.0
 0007708,0.00136886,-0.00053264,-0.00081204,-0.00113567,0.00008468,0.00
 017724,0.00012663,0.00010538,-0.00016314,0.00008354,0.00042392,-0.0001
 3062,0.00012416,0.01179884,0.08703817,-0.08138170,-0.01514705,-0.09086
 947,0.08135507,0.00806560,0.04992769,0.04608846,0.01427510,-0.02409633
 ,-0.03023948,-0.00324025,0.01147323,-0.00248495,-0.00018470,0.00020197
 ,-0.00045222,0.00096161,-0.00172081,0.00140444,-0.00079278,-0.00080951
 ,-0.00083617,-0.01999864,-0.00108947,0.00284706,-0.00059053,0.00027398
 ,0.00045684,0.00229811,0.00474505,0.00499217,0.00102276,-0.00063344,0.
 00010621,0.00006461,-0.00028676,-0.00004903,-0.00153415,0.00057738,-0.
 00060997,0.08774843,0.01055006,-0.00157530,-0.01092495,0.00136606,-0.0
 0053463,-0.06326416,0.00671383,-0.00107783,0.01140058,-0.00252391,-0.0
 2827515,-0.02484358,-0.00401313,-0.00023409,-0.00549954,0.00000133,0.0
 0076461,0.00001561,0.00090064,-0.00026257,0.00179503,-0.00107073,-0.00
 290864,0.00031348,0.00263748,-0.00083605,-0.00102014,-0.00058657,-0.00
 006489,0.00038397,0.00146569,0.00033219,0.00181354,0.00005865,-0.00007
 655,0.00004915,0.00011924,-0.00005046,-0.00004659,-0.00049684,-0.00018
 104,-0.00041223,0.06407539,-0.01387547,-0.00225083,-0.01533784,-0.0010
 5046,0.00065346,-0.04920746,0.04832642,0.02673447,0.01055802,-0.021821
 12,-0.01399668,-0.02612176,-0.01576247,-0.00251568,-0.00167465,0.00077
 572,0.00022943,0.00056688,-0.00014935,-0.00000121,-0.00018567,-0.00062
 496,0.00052645,0.00115138,0.00024930,0.00756367,0.00033706,-0.00021551
 ,-0.00003535,-0.00018990,-0.00034249,0.00043380,-0.00056948,0.00021062
 ,-0.00006772,0.00005034,-0.00009083,-0.00006214,-0.00008348,-0.0000067
 6,-0.00000486,-0.00021346,0.00001583,0.01261897,-0.00028845,-0.0238026
 5,0.00277722,0.00124933,-0.00029831,-0.02107585,0.01591771,0.06284159,
 0.00494210,0.00525550,0.00362295,-0.00011986,-0.00359146,-0.00266006,-
 0.00025427,0.00339306,-0.00052683,0.00018948,-0.00000897,-0.00003968,0
 .00050425,-0.00016581,0.00120163,-0.00084492,-0.00054880,-0.00053706,0
 .00090013,-0.00171808,0.00980421,0.00092586,0.00217121,0.00162385,0.00
 188859,-0.00091206,0.00059178,0.00000497,-0.00011477,0.00011747,0.0001
 3394,0.00013261,-0.00025522,-0.00007789,-0.00012328,-0.00012723,-0.041
 14382,0.01342679,-0.07403386,0.00431654,-0.00166517,0.00592604,-0.0139
 0607,-0.00273579,-0.01312450,0.04254095,0.00086664,0.00062757,0.000145
 42,0.00022811,-0.00103187,-0.00049463,-0.00073290,0.00100556,-0.001549
 55,-0.00007055,-0.00021449,0.00017437,0.00014966,-0.00018374,0.0013079
 3,-0.00070623,-0.00050802,-0.00017770,-0.00514967,0.00727376,-0.020657
 08,0.00095144,-0.00287515,-0.00280302,-0.00065813,0.00142242,-0.000706
 79,0.00008021,-0.00001526,0.00019306,0.00023808,-0.00035176,0.00042549
 ,-0.00015563,0.00002868,0.00021265,0.01059790,-0.05988017,0.03963604,0
 .00842768,-0.00088398,0.02581360,-0.00127165,-0.00053002,-0.00050388,-
 0.01279497,0.05611645,-0.00105226,-0.00174030,0.00006686,0.00008074,0.
 00070695,0.00088491,0.00098310,0.00020927,-0.00166960,-0.00025025,-0.0
 0021003,0.00014067,-0.00005232,0.00000824,0.00110068,-0.00043199,-0.00
 033810,0.00011736,-0.00444597,0.00492942,-0.01593793,0.00031875,-0.003
 49027,-0.00103101,-0.00130178,0.00082318,0.00116008,0.00024101,0.00003
 853,-0.00014267,0.00072838,-0.00064625,0.00035159,0.00000171,0.0000529
 8,0.00041028,-0.06165535,0.03959752,-0.30124546,-0.00354272,-0.0006556
 4,-0.00571812,0.00196243,0.00173040,-0.00097860,0.06841651,-0.04101592
 ,0.32249094\\-0.00001375,-0.00002596,0.00000571,-0.00001474,-0.0000049
 7,0.00000341,0.00000788,0.00000080,0.00001223,0.00000804,-0.00000128,0
 .00000586,0.00001435,-0.00004559,-0.00004030,-0.00002509,0.00004436,0.
 00002544,0.00000422,0.00000707,-0.00000144,0.00000186,-0.00000234,-0.0
 0000367,-0.00000281,0.00000066,0.00000064,0.,0.00000253,-0.00000003,-0
 .00000157,-0.00000034,-0.00000112,0.00000153,0.00000138,-0.00000250,0.
 00003248,0.00000623,0.00000191,0.00000322,0.00000111,-0.00000184,-0.00
 002541,0.00001490,-0.00000416,0.00000980,0.00000144,-0.00000014\\\@


 NOTHING MAKES A PERSON MORE PRODUCTIVE THAN THE LAST MINUTE.
 Job cpu time:  0 days  1 hours 10 minutes  4.1 seconds.
 File lengths (MBytes):  RWF=    125 Int=      0 D2E=      0 Chk=      8 Scr=      1
 Normal termination of Gaussian 03 at Thu Jul 10 13:48:41 2014.
