 Entering Gaussian System, Link 0=g03
 Input=p03freq.gjf
 Output=p03freq.log
 Initial command:
 /opt/g03/l1.exe /scratch/nyee/Gau-30561.inp -scrdir=/scratch/nyee/
 Entering Link 1 = /opt/g03/l1.exe PID=     30563.
  
 Copyright (c) 1988,1990,1992,1993,1995,1998,2003,2004, Gaussian, Inc.
                  All Rights Reserved.
  
 This is the Gaussian(R) 03 program.  It is based on the
 the Gaussian(R) 98 system (copyright 1998, Gaussian, Inc.),
 the Gaussian(R) 94 system (copyright 1995, Gaussian, Inc.),
 the Gaussian 92(TM) system (copyright 1992, Gaussian, Inc.),
 the Gaussian 90(TM) system (copyright 1990, Gaussian, Inc.),
 the Gaussian 88(TM) system (copyright 1988, Gaussian, Inc.),
 the Gaussian 86(TM) system (copyright 1986, Carnegie Mellon
 University), and the Gaussian 82(TM) system (copyright 1983,
 Carnegie Mellon University). Gaussian is a federally registered
 trademark of Gaussian, Inc.
  
 This software contains proprietary and confidential information,
 including trade secrets, belonging to Gaussian, Inc.
  
 This software is provided under written license and may be
 used, copied, transmitted, or stored only in accord with that
 written license.
  
 The following legend is applicable only to US Government
 contracts under FAR:
  
                    RESTRICTED RIGHTS LEGEND
  
 Use, reproduction and disclosure by the US Government is
 subject to restrictions as set forth in subparagraphs (a)
 and (c) of the Commercial Computer Software - Restricted
 Rights clause in FAR 52.227-19.
  
 Gaussian, Inc.
 340 Quinnipiac St., Bldg. 40, Wallingford CT 06492
  
  
 ---------------------------------------------------------------
 Warning -- This program may not be used in any manner that
 competes with the business of Gaussian, Inc. or will provide
 assistance to any competitor of Gaussian, Inc.  The licensee
 of this program is prohibited from giving any competitor of
 Gaussian, Inc. access to this program.  By using this program,
 the user acknowledges that Gaussian, Inc. is engaged in the
 business of creating and licensing software in the field of
 computational chemistry and represents and warrants to the
 licensee that it is not a competitor of Gaussian, Inc. and that
 it will not use this program in any manner prohibited above.
 ---------------------------------------------------------------
  

 Cite this work as:
 Gaussian 03, Revision D.01,
 M. J. Frisch, G. W. Trucks, H. B. Schlegel, G. E. Scuseria, 
 M. A. Robb, J. R. Cheeseman, J. A. Montgomery, Jr., T. Vreven, 
 K. N. Kudin, J. C. Burant, J. M. Millam, S. S. Iyengar, J. Tomasi, 
 V. Barone, B. Mennucci, M. Cossi, G. Scalmani, N. Rega, 
 G. A. Petersson, H. Nakatsuji, M. Hada, M. Ehara, K. Toyota, 
 R. Fukuda, J. Hasegawa, M. Ishida, T. Nakajima, Y. Honda, O. Kitao, 
 H. Nakai, M. Klene, X. Li, J. E. Knox, H. P. Hratchian, J. B. Cross, 
 V. Bakken, C. Adamo, J. Jaramillo, R. Gomperts, R. E. Stratmann, 
 O. Yazyev, A. J. Austin, R. Cammi, C. Pomelli, J. W. Ochterski, 
 P. Y. Ayala, K. Morokuma, G. A. Voth, P. Salvador, J. J. Dannenberg, 
 V. G. Zakrzewski, S. Dapprich, A. D. Daniels, M. C. Strain, 
 O. Farkas, D. K. Malick, A. D. Rabuck, K. Raghavachari, 
 J. B. Foresman, J. V. Ortiz, Q. Cui, A. G. Baboul, S. Clifford, 
 J. Cioslowski, B. B. Stefanov, G. Liu, A. Liashenko, P. Piskorz, 
 I. Komaromi, R. L. Martin, D. J. Fox, T. Keith, M. A. Al-Laham, 
 C. Y. Peng, A. Nanayakkara, M. Challacombe, P. M. W. Gill, 
 B. Johnson, W. Chen, M. W. Wong, C. Gonzalez, and J. A. Pople, 
 Gaussian, Inc., Wallingford CT, 2004.
 
 ******************************************
 Gaussian 03:  AM64L-G03RevD.01 13-Oct-2005
                15-Jul-2014 
 ******************************************
 %chk=p03freq.chk
 %mem=1000mb
 %nproc=8
 Will use up to    8 processors via shared memory.
 -------------------------------------
 # freq nosymm b3lyp/cbsb7 iop(7/33=1)
 -------------------------------------
 1/10=4,30=1,38=1/1,3;
 2/15=1,17=6,18=5,40=1/2;
 3/5=4,6=6,7=700,11=2,16=1,25=1,30=1,74=-5/1,2,3;
 4//1;
 5/5=2,38=5/2;
 8/6=4,10=90,11=11/1;
 11/6=1,8=1,9=11,15=111,16=1,31=1/1,2,10;
 10/6=1,31=1/2;
 6/7=2,8=2,9=2,10=2,18=1,28=1/1;
 7/8=1,10=1,25=1,30=1,33=1/1,2,3,16;
 1/10=4,30=1/3;
 99//99;
 -------------------
 Title Card Required
 -------------------
 Symbolic Z-matrix:
 Charge =  0 Multiplicity = 1
 O                    -3.31474   2.91514  -0.76901 
 H                    -3.77611   2.15805  -1.15006 
 C                    -2.16467   2.44035  -0.15984 
 H                    -1.73326   3.30138   0.3628 
 O                    -2.40458   1.33565   0.73819 
 C                    -1.3088    0.57725   0.16432 
 H                    -1.61537  -0.43701  -0.10431 
 H                    -0.45243   0.53061   0.84628 
 C                    -1.14975   1.60202  -0.9756 
 H                    -1.62042   1.2503   -1.89905 
 C                     0.21946   2.19451  -1.26478 
 H                     0.14079   3.04061  -1.95349 
 H                     0.69613   2.5511   -0.34676 
 H                     0.88516   1.45608  -1.7207 
 

 GradGradGradGradGradGradGradGradGradGradGradGradGradGradGradGradGradGrad
 Berny optimization.
 Initialization pass.
 Trust Radius=3.00D-01 FncErr=1.00D-07 GrdErr=1.00D-07
 Number of steps in this run=   2 maximum allowed number of steps=   2.
 GradGradGradGradGradGradGradGradGradGradGradGradGradGradGradGradGradGrad

                          Input orientation:                          
 ---------------------------------------------------------------------
 Center     Atomic     Atomic              Coordinates (Angstroms)
 Number     Number      Type              X           Y           Z
 ---------------------------------------------------------------------
    1          8             0       -3.314741    2.915141   -0.769014
    2          1             0       -3.776114    2.158048   -1.150055
    3          6             0       -2.164669    2.440347   -0.159844
    4          1             0       -1.733264    3.301375    0.362798
    5          8             0       -2.404576    1.335651    0.738192
    6          6             0       -1.308804    0.577250    0.164317
    7          1             0       -1.615367   -0.437005   -0.104307
    8          1             0       -0.452430    0.530610    0.846281
    9          6             0       -1.149746    1.602022   -0.975599
   10          1             0       -1.620423    1.250296   -1.899048
   11          6             0        0.219457    2.194510   -1.264780
   12          1             0        0.140793    3.040613   -1.953487
   13          1             0        0.696130    2.551100   -0.346757
   14          1             0        0.885160    1.456080   -1.720702
 ---------------------------------------------------------------------
                    Distance matrix (angstroms):
                    1          2          3          4          5
     1  O    0.000000
     2  H    0.965011   0.000000
     3  C    1.385346   1.912319   0.000000
     4  H    1.982737   2.787321   1.095735   0.000000
     5  O    2.365345   2.474456   1.443737   2.110841   0.000000
     6  C    3.218792   3.211560   2.075745   2.764131   1.450938
     7  H    3.816620   3.535070   2.929842   3.769293   2.115411
     8  H    4.060541   4.204853   2.755203   3.090539   2.114391
     9  C    2.540504   2.690243   1.548649   2.240446   2.140708
    10  H    2.630475   2.456015   2.176524   3.055422   2.752674
    11  C    3.640831   3.997384   2.639200   2.772594   3.411024
    12  H    3.655056   4.094702   2.982051   2.990863   4.078104
    13  H    4.049434   4.560783   2.869037   2.639761   3.502686
    14  H    4.546838   4.748249   3.564620   3.821286   4.108896
                    6          7          8          9         10
     6  C    0.000000
     7  H    1.093093   0.000000
     8  H    1.095731   1.786706   0.000000
     9  C    1.541060   2.265741   2.225628   0.000000
    10  H    2.192618   2.463352   3.069037   1.094535   0.000000
    11  C    2.644509   3.411473   2.770663   1.519666   2.163098
    12  H    3.557328   4.312469   3.806669   2.165941   2.511987
    13  H    2.859553   3.785574   2.612453   2.168744   3.077030
    14  H    3.023097   3.528334   3.038921   2.171939   2.520337
                   11         12         13         14
    11  C    0.000000
    12  H    1.093799   0.000000
    13  H    1.094139   1.769069   0.000000
    14  H    1.093757   1.766074   1.767067   0.000000
 Symmetry turned off by external request.
 Stoichiometry    C4H8O2
 Framework group  C1[X(C4H8O2)]
 Deg. of freedom    36
 Full point group                 C1
 Rotational constants (GHZ):      5.2462874      3.3325269      2.3147415
 Standard basis: CBSB7 (5D, 7F)
 Integral buffers will be    131072 words long.
 Raffenetti 2 integral format.
 Two-electron integral symmetry is turned off.
   156 basis functions,   256 primitive gaussians,   162 cartesian basis functions
    24 alpha electrons       24 beta electrons
       nuclear repulsion energy       254.4885224397 Hartrees.
 NAtoms=   14 NActive=   14 NUniq=   14 SFac= 7.50D-01 NAtFMM=   80 NAOKFM=F Big=F
 One-electron integrals computed using PRISM.
 NBasis=   156 RedAO= T  NBF=   156
 NBsUse=   156 1.00D-06 NBFU=   156
 Harris functional with IExCor=  402 diagonalized for initial guess.
 ExpMin= 1.03D-01 ExpMax= 8.59D+03 ExpMxC= 1.30D+03 IAcc=1 IRadAn=         1 AccDes= 1.00D-06
 HarFok:  IExCor= 402 AccDes= 1.00D-06 IRadAn=         1 IDoV=1
 ScaDFX=  1.000000  1.000000  1.000000  1.000000
 Requested convergence on RMS density matrix=1.00D-08 within 128 cycles.
 Requested convergence on MAX density matrix=1.00D-06.
 Requested convergence on             energy=1.00D-06.
 No special actions if energy rises.
 Keep R1 integrals in memory in canonical form, NReq=    90380328.
 Integral accuracy reduced to 1.0D-05 until final iterations.
 Initial convergence to 1.0D-05 achieved.  Increase integral accuracy.
 SCF Done:  E(RB+HF-LYP) =  -307.739938196     A.U. after   13 cycles
             Convg  =    0.7973D-08             -V/T =  2.0035
             S**2   =   0.0000
 Range of M.O.s used for correlation:     1   156
 NBasis=   156 NAE=    24 NBE=    24 NFC=     0 NFV=     0
 NROrb=    156 NOA=    24 NOB=    24 NVA=   132 NVB=   132
 Symmetrizing basis deriv contribution to polar:
 IMax=3 JMax=2 DiffMx= 0.00D+00
 G2DrvN: will do   15 centers at a time, making    1 passes doing MaxLOS=2.
 FoFDir/FoFCou used for L=0 through L=2.
 DoAtom=TTTTTTTTTTTTTT
          Differentiating once with respect to electric field.
                with respect to dipole field.
          Differentiating once with respect to nuclear coordinates.
          Store integrals in memory, NReq=    87990493.
          There are  45 degrees of freedom in the 1st order CPHF.
    42 vectors were produced by pass  0.
 AX will form  42 AO Fock derivatives at one time.
    42 vectors were produced by pass  1.
    42 vectors were produced by pass  2.
    42 vectors were produced by pass  3.
    42 vectors were produced by pass  4.
    29 vectors were produced by pass  5.
     3 vectors were produced by pass  6.
 Inv2:  IOpt= 1 Iter= 1 AM= 2.03D-15 Conv= 1.00D-12.
 Inverted reduced A of dimension  242 with in-core refinement.
 Isotropic polarizability for W=    0.000000       50.51 Bohr**3.
 End of Minotr Frequency-dependent properties file   721 does not exist.

 **********************************************************************

            Population analysis using the SCF density.

 **********************************************************************

 Alpha  occ. eigenvalues --  -19.12769 -19.11612 -10.26884 -10.22097 -10.18636
 Alpha  occ. eigenvalues --  -10.17337  -1.07381  -1.01248  -0.78813  -0.68951
 Alpha  occ. eigenvalues --   -0.67248  -0.59103  -0.52336  -0.48137  -0.47499
 Alpha  occ. eigenvalues --   -0.44335  -0.42580  -0.41475  -0.39405  -0.36838
 Alpha  occ. eigenvalues --   -0.34066  -0.31535  -0.29176  -0.26133
 Alpha virt. eigenvalues --    0.03601   0.04536   0.06782   0.07318   0.09562
 Alpha virt. eigenvalues --    0.10787   0.11037   0.12036   0.12719   0.16537
 Alpha virt. eigenvalues --    0.20726   0.21407   0.24275   0.29729   0.30355
 Alpha virt. eigenvalues --    0.31571   0.33329   0.38595   0.39329   0.41706
 Alpha virt. eigenvalues --    0.44132   0.46853   0.48774   0.50197   0.52748
 Alpha virt. eigenvalues --    0.53413   0.54567   0.56334   0.57075   0.57599
 Alpha virt. eigenvalues --    0.58531   0.60950   0.63328   0.64664   0.66065
 Alpha virt. eigenvalues --    0.80638   0.81274   0.83481   0.86582   0.87722
 Alpha virt. eigenvalues --    0.88869   0.99456   1.01298   1.04884   1.10832
 Alpha virt. eigenvalues --    1.14945   1.16533   1.20980   1.30910   1.35572
 Alpha virt. eigenvalues --    1.36402   1.41751   1.42987   1.44696   1.48190
 Alpha virt. eigenvalues --    1.49052   1.53474   1.53537   1.55662   1.57506
 Alpha virt. eigenvalues --    1.57941   1.60433   1.62993   1.63429   1.65204
 Alpha virt. eigenvalues --    1.68929   1.72799   1.74358   1.75996   1.77493
 Alpha virt. eigenvalues --    1.82817   1.87433   1.92756   1.94133   2.01115
 Alpha virt. eigenvalues --    2.03727   2.05368   2.08765   2.11142   2.13319
 Alpha virt. eigenvalues --    2.18638   2.23631   2.35039   2.36760   2.39023
 Alpha virt. eigenvalues --    2.42656   2.44342   2.45862   2.46896   2.52774
 Alpha virt. eigenvalues --    2.54372   2.59543   2.61563   2.63101   2.65514
 Alpha virt. eigenvalues --    2.69444   2.75702   2.77565   2.80552   2.84897
 Alpha virt. eigenvalues --    2.89311   3.01189   3.07273   3.11048   3.14553
 Alpha virt. eigenvalues --    3.16900   3.21527   3.26712   3.39913   3.44359
 Alpha virt. eigenvalues --    3.68170   3.71258   3.77982   3.79270   3.80084
 Alpha virt. eigenvalues --    3.88838   3.97627   4.05939   4.11820   4.41502
 Alpha virt. eigenvalues --    4.86672   4.98447   5.21017   5.40756   5.48209
 Alpha virt. eigenvalues --    5.74069  23.67597  23.78644  23.83515  23.91694
 Alpha virt. eigenvalues --   49.87791  49.97421
          Condensed to atoms (all electrons):
              1          2          3          4          5          6
     1  O    7.860571   0.302286   0.302058  -0.045106  -0.049463   0.006811
     2  H    0.302286   0.496146  -0.039794   0.013116   0.007613   0.001828
     3  C    0.302058  -0.039794   4.730233   0.374863   0.257221  -0.188691
     4  H   -0.045106   0.013116   0.374863   0.631466  -0.035106   0.008796
     5  O   -0.049463   0.007613   0.257221  -0.035106   8.058516   0.272103
     6  C    0.006811   0.001828  -0.188691   0.008796   0.272103   4.823954
     7  H    0.000445  -0.001368   0.007793  -0.002521  -0.029147   0.369554
     8  H   -0.000904   0.000501  -0.000660   0.004590  -0.033453   0.383213
     9  C   -0.025727  -0.013991   0.365483  -0.063481  -0.099636   0.348148
    10  H    0.000095   0.007066  -0.037900   0.007050   0.011344  -0.032345
    11  C    0.002317   0.000016  -0.048345   0.000880   0.009647  -0.054202
    12  H    0.001411   0.000089  -0.004403   0.001857  -0.000229   0.008663
    13  H   -0.000112   0.000056  -0.006630   0.003801   0.000868  -0.006133
    14  H   -0.000271   0.000026   0.007047  -0.000286  -0.000608  -0.005685
              7          8          9         10         11         12
     1  O    0.000445  -0.000904  -0.025727   0.000095   0.002317   0.001411
     2  H   -0.001368   0.000501  -0.013991   0.007066   0.000016   0.000089
     3  C    0.007793  -0.000660   0.365483  -0.037900  -0.048345  -0.004403
     4  H   -0.002521   0.004590  -0.063481   0.007050   0.000880   0.001857
     5  O   -0.029147  -0.033453  -0.099636   0.011344   0.009647  -0.000229
     6  C    0.369554   0.383213   0.348148  -0.032345  -0.054202   0.008663
     7  H    0.630575  -0.056039  -0.006336  -0.014095   0.002616  -0.000430
     8  H   -0.056039   0.636840  -0.038769   0.007025  -0.004550   0.000114
     9  C   -0.006336  -0.038769   5.295811   0.365771   0.310243  -0.035366
    10  H   -0.014095   0.007025   0.365771   0.588681  -0.015238  -0.004267
    11  C    0.002616  -0.004550   0.310243  -0.015238   4.849353   0.400083
    12  H   -0.000430   0.000114  -0.035366  -0.004267   0.400083   0.572918
    13  H   -0.000456   0.004588  -0.044488   0.009106   0.412618  -0.030032
    14  H    0.000701   0.000526  -0.023989  -0.008838   0.396826  -0.028194
             13         14
     1  O   -0.000112  -0.000271
     2  H    0.000056   0.000026
     3  C   -0.006630   0.007047
     4  H    0.003801  -0.000286
     5  O    0.000868  -0.000608
     6  C   -0.006133  -0.005685
     7  H   -0.000456   0.000701
     8  H    0.004588   0.000526
     9  C   -0.044488  -0.023989
    10  H    0.009106  -0.008838
    11  C    0.412618   0.396826
    12  H   -0.030032  -0.028194
    13  H    0.583720  -0.031789
    14  H   -0.031789   0.581626
 Mulliken atomic charges:
              1
     1  O   -0.354410
     2  H    0.226410
     3  C    0.281726
     4  H    0.100079
     5  O   -0.369668
     6  C    0.063987
     7  H    0.098709
     8  H    0.096977
     9  C   -0.333672
    10  H    0.116547
    11  C   -0.262263
    12  H    0.117788
    13  H    0.104884
    14  H    0.112908
 Sum of Mulliken charges=   0.00000
 Atomic charges with hydrogens summed into heavy atoms:
              1
     1  O   -0.128000
     2  H    0.000000
     3  C    0.381805
     4  H    0.000000
     5  O   -0.369668
     6  C    0.259672
     7  H    0.000000
     8  H    0.000000
     9  C   -0.217125
    10  H    0.000000
    11  C    0.073317
    12  H    0.000000
    13  H    0.000000
    14  H    0.000000
 Sum of Mulliken charges=   0.00000
 APT atomic charges:
              1
     1  O   -0.662382
     2  H    0.259585
     3  C    0.893924
     4  H   -0.069849
     5  O   -0.699362
     6  C    0.402872
     7  H   -0.055213
     8  H   -0.062251
     9  C    0.017188
    10  H   -0.046370
    11  C    0.075774
    12  H   -0.014239
    13  H   -0.018659
    14  H   -0.021016
 Sum of APT charges=   0.00000
 APT Atomic charges with hydrogens summed into heavy atoms:
              1
     1  O   -0.402798
     2  H    0.000000
     3  C    0.824074
     4  H    0.000000
     5  O   -0.699362
     6  C    0.285408
     7  H    0.000000
     8  H    0.000000
     9  C   -0.029182
    10  H    0.000000
    11  C    0.021861
    12  H    0.000000
    13  H    0.000000
    14  H    0.000000
 Sum of APT charges=   0.00000
 Electronic spatial extent (au):  <R**2>=  1668.1329
 Charge=     0.0000 electrons
 Dipole moment (field-independent basis, Debye):
    X=     1.6189    Y=    -1.1899    Z=    -1.6040  Tot=     2.5709
 Quadrupole moment (field-independent basis, Debye-Ang):
   XX=   -42.2444   YY=   -41.8503   ZZ=   -37.0349
   XY=     7.0619   XZ=     5.1145   YZ=    -0.5803
 Traceless Quadrupole moment (field-independent basis, Debye-Ang):
   XX=    -1.8679   YY=    -1.4737   ZZ=     3.3416
   XY=     7.0619   XZ=     5.1145   YZ=    -0.5803
 Octapole moment (field-independent basis, Debye-Ang**2):
  XXX=   183.1943  YYY=  -222.9013  ZZZ=    44.3425  XYY=    84.5829
  XXY=   -92.9318  XXZ=    -1.5835  XZZ=    57.7429  YZZ=   -68.4801
  YYZ=    21.6272  XYZ=     1.9515
 Hexadecapole moment (field-independent basis, Debye-Ang**3):
 XXXX=  -901.4141 YYYY= -1015.9027 ZZZZ=  -208.8114 XXXY=   414.9234
 XXXZ=    30.9563 YYYX=   443.2433 YYYZ=   149.9435 ZZZX=   -24.5392
 ZZZY=   114.1462 XXYY=  -412.0811 XXZZ=  -178.5609 YYZZ=  -195.5705
 XXYZ=    31.3112 YYXZ=   -29.9645 ZZXY=   116.1505
 N-N= 2.544885224397D+02 E-N=-1.229397332600D+03  KE= 3.066519415460D+02
  Exact polarizability:  53.612  -1.336  51.563   0.582  -1.996  46.366
 Approx polarizability:  69.941  -2.007  71.292   2.681  -1.265  65.615
 Use density number 0.
 Entering OneElI...
 Calculate overlap and kinetic energy integrals
    NBasis = 162  MinDer = 2  MaxDer = 2
 Requested accuracy = 0.1000D-12
 PrsmSu:  NPrtUS=   1 ThrOK=F
 PRISM was handed   130831384 working-precision words and  1953 shell-pairs
 Entering OneElI...
 Calculate potential energy integrals
    NBasis = 162  MinDer = 2  MaxDer = 2
 Requested accuracy = 0.1000D-12
 PrsmSu:  NPrtUS=   8 ThrOK=T
 PRISM was handed    16318126 working-precision words and  1872 shell-pairs
 PRISM was handed    16318126 working-precision words and  1872 shell-pairs
 PRISM was handed    16318126 working-precision words and  1872 shell-pairs
 PRISM was handed    16318126 working-precision words and  1872 shell-pairs
 PRISM was handed    16318126 working-precision words and  1872 shell-pairs
 PRISM was handed    16318126 working-precision words and  1872 shell-pairs
 PRISM was handed    16318126 working-precision words and  1872 shell-pairs
 PRISM was handed    16318126 working-precision words and  1872 shell-pairs
 Polarizability after L701:
                1             2             3
      1  0.536121D+02
      2 -0.133562D+01  0.515628D+02
      3  0.582139D+00 -0.199575D+01  0.463656D+02
 Dipole Derivatives after L701:
               1            2            3            4            5
      1-0.100432D+01 0.264566D+00-0.211429D+00 0.345696D+00-0.769286D-01
      2 0.359100D+00-0.423914D+00 0.225003D+00-0.423374D-02 0.136359D+00
      3-0.133768D+00 0.122056D+00-0.558916D+00-0.221985D-01-0.762806D-01
               6            7            8            9           10
      1-0.188531D-01 0.995358D+00-0.385223D+00 0.279116D+00-0.444452D-01
      2-0.581515D-01-0.239143D+00 0.978639D+00-0.358964D+00-0.612322D-01
      3 0.296699D+00 0.161864D+00-0.220805D+00 0.707774D+00-0.445826D-01
              11           12           13           14           15
      1-0.375900D-01-0.407240D-01-0.631800D+00 0.262156D+00 0.126821D+00
      2-0.144009D+00-0.692021D-01 0.106967D+00-0.854565D+00 0.214129D+00
      3-0.508344D-01-0.210945D-01 0.103279D+00 0.208818D+00-0.611723D+00
              16           17           18           19           20
      1 0.464034D+00-0.150880D+00-0.512840D-01 0.569165D-02-0.211183D-01
      2-0.237158D+00 0.503440D+00 0.156082D+00-0.620410D-01-0.196668D+00
      3 0.718923D-01 0.673650D-01 0.241141D+00-0.508420D-02-0.791504D-02
              21           22           23           24           25
      1-0.189579D-02-0.141352D+00 0.566917D-02-0.966735D-01 0.436518D-01
      2-0.611368D-01 0.666033D-01 0.589610D-02 0.178679D-01 0.119737D+00
      3 0.253380D-01-0.109781D+00-0.139438D-01-0.512982D-01 0.132128D-01
              26           27           28           29           30
      1 0.182743D+00 0.721642D-01-0.561400D-01-0.435558D-01-0.613629D-01
      2-0.467724D-01-0.424355D-01-0.549708D-01 0.176494D-01-0.279083D-01
      3-0.255325D-01 0.546831D-01-0.881043D-01-0.307052D-01-0.100619D+00
              31           32           33           34           35
      1 0.444665D-01-0.243838D-01 0.203685D-01 0.335743D-01-0.315182D-01
      2-0.332874D-01 0.853806D-01 0.177072D-01 0.189651D-01-0.623444D-01
      3 0.208408D-01 0.175648D-01 0.974745D-01-0.107347D-01 0.118261D+00
              36           37           38           39           40
      1 0.882424D-02 0.407198D-02-0.413279D-01-0.919313D-01-0.584907D-01
      2 0.106643D+00-0.312481D-01 0.404647D-01-0.664876D-01 0.519406D-01
      3-0.139460D-01-0.282146D-01-0.385793D-01-0.100513D+00 0.713800D-01
              41           42
      1 0.973907D-01 0.668600D-01
      2-0.395559D-01-0.531470D-01
      3-0.694689D-01 0.349990D-01
 Hessian after L701:
                1             2             3             4             5
      1  0.589978D+01
      2  0.223442D+01  0.106978D+02
      3 -0.523373D+01  0.241629D+00  0.123132D+02
      4 -0.471561D+01  0.224926D+01  0.125464D+01  0.450840D+01
      5  0.189526D+01 -0.348637D+01  0.148576D+01 -0.205931D+01  0.347685D+01
      6  0.120739D+01  0.168881D+01 -0.537259D+01 -0.144703D+01 -0.155595D+01
      7 -0.148974D+01 -0.311491D+01  0.408374D+01  0.112736D+00  0.229202D-01
      8 -0.300120D+01 -0.756201D+01 -0.130177D+01 -0.136260D+00  0.976164D-01
      9  0.413698D+01 -0.141799D+01 -0.667654D+01  0.485503D-02  0.157147D-01
     10 -0.274626D+00  0.280168D-01 -0.197844D+00  0.967102D-01  0.859127D-01
     11  0.765649D-01  0.190154D+00  0.899165D-01  0.109695D+00  0.904329D-02
     12 -0.202640D+00  0.481238D-01  0.439261D-01  0.117075D+00  0.684610D-01
     13 -0.195348D+00 -0.253138D+00  0.330787D+00 -0.512766D-01 -0.724556D-02
     14 -0.177003D+00  0.506023D-02 -0.501955D+00 -0.827617D-01 -0.522736D-01
     15  0.292417D+00 -0.552416D+00  0.396038D+00  0.871315D-01 -0.245929D-01
     16  0.505595D-01 -0.402718D+00  0.166973D+00  0.375549D-01 -0.144402D-01
     17 -0.349944D+00  0.159782D+00 -0.185774D+00 -0.413639D-01 -0.902392D-02
     18  0.154645D+00 -0.185148D+00 -0.194150D+00  0.285004D-01 -0.647740D-02
     19 -0.931252D-02 -0.172093D-01  0.232040D-02 -0.570728D-02  0.798238D-02
     20 -0.461157D-01  0.760614D-01 -0.142839D-01  0.434995D-03 -0.151314D-01
     21 -0.346437D-03  0.529823D-04 -0.205340D-01 -0.457415D-02  0.335091D-02
     22  0.113992D-01 -0.297315D-01  0.889832D-02  0.142179D-01  0.116046D-02
     23 -0.712644D-02 -0.439245D-02 -0.157141D-02 -0.669354D-02 -0.188145D-02
     24  0.164837D-01 -0.215301D-01 -0.174727D-02  0.114759D-01  0.167641D-02
     25  0.345040D+00 -0.546919D+00 -0.347477D+00 -0.103732D+00  0.596293D-01
     26 -0.485503D+00  0.119814D+00  0.177104D+00  0.929898D-02  0.175592D-01
     27 -0.269181D+00  0.143665D+00 -0.249394D+00 -0.280426D-02  0.964913D-02
     28 -0.587685D-01 -0.284951D-02  0.183908D-01  0.474014D-01 -0.238159D-01
     29 -0.288145D-01  0.882971D-03  0.723335D-02 -0.437707D-01 -0.220292D-01
     30 -0.223554D-01  0.470600D-01 -0.320155D-01 -0.479699D-01  0.300898D-02
     31  0.310939D+00 -0.113084D+00 -0.587514D-01  0.376855D-01  0.181827D-01
     32 -0.123506D+00 -0.148433D+00  0.990482D-02 -0.415510D-02 -0.151032D-01
     33 -0.447080D-01  0.395272D-02 -0.174981D+00  0.194079D-02  0.171527D-02
     34  0.602456D-01 -0.162147D-02 -0.238140D-01  0.549966D-02  0.367756D-02
     35  0.310238D-01 -0.328720D-01 -0.129996D-01  0.760060D-02  0.441788D-02
     36 -0.525110D-01  0.397606D-02 -0.113374D-01 -0.656270D-02 -0.517479D-02
     37  0.435805D-01 -0.114525D-01  0.601386D-02  0.839068D-02  0.537002D-02
     38  0.480101D-02 -0.193389D-01 -0.102011D-03  0.281836D-02  0.756479D-03
     39  0.310382D-01 -0.888391D-02 -0.132919D-01  0.648483D-02  0.506614D-02
     40  0.218656D-01 -0.180647D-01 -0.101429D-01  0.773055D-02  0.471455D-02
     41 -0.228550D-01  0.387087D-02  0.690188D-02 -0.479724D-02 -0.443106D-02
     42 -0.134837D-01  0.869787D-02 -0.653967D-02 -0.316189D-02 -0.221542D-02
                6             7             8             9            10
      6  0.519822D+01
      7  0.337564D-01  0.153874D+02
      8 -0.714693D-01  0.330484D+01  0.159472D+02
      9  0.114075D+00 -0.127736D+01  0.344980D+01  0.186121D+02
     10  0.106572D+00 -0.390637D+01  0.114122D+01  0.654835D+00  0.378499D+01
     11  0.793123D-01  0.121302D+01 -0.245325D+01  0.118300D+01 -0.140552D+01
     12  0.352792D-01  0.695789D+00  0.118328D+01 -0.383758D+01 -0.683427D+00
     13  0.593728D-01 -0.773104D+01  0.623842D+00 -0.141823D+01  0.173232D+00
     14 -0.120050D+00  0.477593D+00 -0.187564D+01 -0.445868D+01  0.985607D-01
     15  0.494853D-01 -0.128500D+01 -0.462069D+01 -0.407681D+01  0.757392D-01
     16  0.374516D-01  0.489809D+00  0.810131D-01 -0.387686D-01 -0.859752D-01
     17 -0.229523D-01  0.818229D-01  0.657832D+00 -0.170533D-01  0.180409D-01
     18 -0.979743D-02 -0.514522D-01  0.167767D-01  0.525773D+00 -0.162371D-02
     19 -0.346111D-02 -0.668825D-01 -0.175002D-02 -0.108995D-02  0.725741D-02
     20 -0.223021D-02 -0.113245D-01  0.217957D+00  0.301788D-01  0.593158D-02
     21 -0.136538D-02 -0.555173D-02  0.436758D-01 -0.723876D-01  0.651359D-03
     22  0.122294D-01  0.765790D-01 -0.601181D-01  0.940667D-01 -0.562211D-02
     23 -0.425872D-02 -0.549099D-01 -0.443277D-01 -0.515577D-01 -0.280125D-01
     24  0.438414D-02  0.900870D-01 -0.456801D-01  0.311287D-01  0.533034D-02
     25 -0.603764D-02 -0.318655D+01 -0.195098D+01 -0.198624D+01  0.223099D+00
     26  0.306352D-02 -0.175864D+01 -0.495044D+01  0.125638D+01  0.808978D-01
     27  0.257690D-01 -0.208368D+01  0.140632D+01 -0.464343D+01  0.886600D-01
     28 -0.164460D-01  0.100632D+00  0.268442D-01  0.483522D-01 -0.301425D-01
     29  0.555503D-02 -0.580960D-02  0.342699D-01 -0.612488D-01  0.486509D-02
     30 -0.270674D-01  0.293862D-02 -0.773607D-01  0.305012D-01  0.569738D-02
     31  0.881035D-02  0.992227D-01  0.211599D-01 -0.119152D+00 -0.808691D-02
     32 -0.170840D-02 -0.103121D+00 -0.353974D-01  0.481371D-01 -0.199447D-01
     33 -0.123027D-01 -0.114434D+00 -0.919807D-02 -0.478506D-03 -0.330703D-01
     34  0.556680D-03 -0.732841D-02 -0.641037D-02  0.274952D-02  0.219217D-02
     35  0.261045D-02  0.103857D-01 -0.287346D-02 -0.611887D-02 -0.103359D-02
     36 -0.386708D-02 -0.226336D-01 -0.817153D-02 -0.113211D-02 -0.141482D-01
     37  0.405680D-02 -0.607239D-02  0.128534D-01 -0.164606D-01  0.261012D-01
     38  0.131157D-02  0.375828D-02 -0.407889D-02 -0.795718D-03 -0.987192D-02
     39  0.214733D-02  0.196089D-01  0.898145D-02 -0.555764D-02 -0.812779D-02
     40  0.277445D-02  0.127622D+00 -0.550578D-01 -0.845311D-01 -0.276311D-02
     41 -0.204592D-02 -0.656293D-01 -0.268655D-01  0.302307D-01  0.932332D-03
     42 -0.236849D-02 -0.858039D-01  0.255022D-01  0.377300D-03  0.755947D-03
               11            12            13            14            15
     11  0.205658D+01
     12 -0.152755D+01  0.383743D+01
     13  0.703858D-01  0.106464D+00  0.102007D+02
     14  0.182886D-01  0.343368D+00  0.256277D+01  0.676928D+01
     15  0.339612D+00  0.302138D-02  0.357249D+01  0.345707D+01  0.846756D+01
     16 -0.175571D-02 -0.186048D-02 -0.249881D+01 -0.343051D+01 -0.286094D+01
     17  0.205767D+00  0.746538D-01 -0.359222D+01 -0.471770D+01  0.137733D+01
     18  0.621673D-01 -0.589586D-01 -0.274820D+01  0.120947D+01 -0.582949D+01
     19  0.545317D-02  0.448111D-03 -0.157657D+00  0.243181D+00  0.106901D+00
     20 -0.360987D-01 -0.133031D-02  0.227506D+00  0.238306D+00  0.127622D+00
     21 -0.273485D-02  0.756820D-02  0.721218D-01  0.106810D+00  0.123844D+00
     22 -0.497188D-01 -0.966346D-03  0.156581D+00  0.163920D+00  0.273560D+00
     23  0.595763D-01 -0.524335D-02  0.186223D+00 -0.722262D-01 -0.105010D+00
     24 -0.268160D-01 -0.194968D-01  0.288780D+00 -0.813061D-01  0.139491D+00
     25  0.682896D-01  0.707582D-01 -0.158335D+00 -0.758144D-01  0.243345D+00
     26 -0.678027D-01 -0.298392D+00 -0.200986D-01  0.118682D-01  0.116916D+00
     27 -0.352127D+00 -0.913326D-01  0.290771D+00  0.200527D+00  0.471869D+00
     28  0.133419D-02  0.104824D-02 -0.817013D-01  0.351438D-02 -0.710052D-01
     29  0.457950D-01  0.735435D-01 -0.803620D-02 -0.105142D+00  0.311611D-01
     30  0.943768D-01  0.633811D-01 -0.120608D+00 -0.446919D-02  0.245608D+00
     31 -0.462950D-01 -0.559593D-01  0.252544D+00  0.162250D+00 -0.366790D+00
     32 -0.462099D-02  0.393351D-01  0.151737D+00 -0.197135D+00 -0.118709D+00
     33  0.453465D-01  0.113457D-01 -0.388490D+00 -0.133047D+00  0.222881D-01
     34 -0.559925D-02 -0.186519D-01  0.753244D-03  0.106497D-01 -0.141395D-01
     35 -0.149218D-01 -0.628468D-02  0.259623D-01  0.271640D-02 -0.277140D-01
     36  0.128019D-01  0.208490D-01 -0.304568D-01 -0.208171D-01  0.170140D-01
     37 -0.290121D-01 -0.230851D-01  0.720646D-01  0.427807D-01 -0.309888D-01
     38 -0.142132D-01  0.280217D-02  0.484445D-01 -0.125971D-01 -0.144243D-01
     39 -0.267883D-02 -0.179222D-01  0.964004D-02  0.378232D-02 -0.357878D-01
     40 -0.684755D-02 -0.499190D-02  0.182804D-01  0.868538D-03 -0.227257D-01
     41  0.570173D-02  0.523243D-02 -0.161333D-01 -0.127989D-01  0.138466D-01
     42  0.537283D-02  0.248303D-02 -0.244437D-01 -0.701642D-03  0.587558D-02
               16            17            18            19            20
     16  0.136699D+02
     17  0.265156D+01  0.131273D+02
     18  0.194320D+01  0.642203D+00  0.154407D+02
     19 -0.392929D+01  0.514328D+00  0.165246D+00  0.418395D+01
     20  0.622056D+00 -0.161052D+01  0.829131D+00 -0.618470D+00  0.849102D+00
     21  0.173916D+00  0.699926D+00 -0.382783D+01 -0.870025D-01 -0.748454D+00
     22 -0.212455D+01 -0.130084D+00  0.139272D+01 -0.200730D-01 -0.205391D+00
     23 -0.310619D+00 -0.415892D+01 -0.194448D+00 -0.163222D+00  0.589155D-01
     24  0.145645D+01 -0.765574D-01 -0.316790D+01 -0.173943D+00 -0.168993D+00
     25 -0.569950D+01  0.772383D+00 -0.821211D+00 -0.580337D-01 -0.564728D-01
     26  0.550849D+00 -0.382656D+01 -0.226445D+01 -0.346410D-01  0.188612D+00
     27 -0.686181D+00 -0.246184D+01 -0.291668D+01  0.188416D-01 -0.935620D-01
     28  0.741101D-01  0.164015D-01  0.234959D-01  0.393971D-01 -0.496679D-02
     29  0.281431D-01  0.368956D-01  0.119683D+00  0.374147D-03 -0.402223D-01
     30 -0.247550D-01  0.136977D+00  0.273876D-02 -0.347381D-02  0.856029D-01
     31  0.207851D-01  0.423790D-02 -0.116084D-01  0.641235D-02  0.654195D-01
     32  0.149103D+00  0.796317D-01 -0.117495D+00  0.561512D-01  0.668356D-01
     33 -0.101527D+00 -0.666675D-01 -0.107392D-03 -0.189527D-01 -0.363312D-01
     34 -0.145566D-01  0.643264D-01 -0.563289D-01 -0.127394D-02 -0.213945D-02
     35  0.747111D-01  0.754042D-01 -0.107119D+00  0.122645D-02  0.450988D-02
     36 -0.630985D-01 -0.101865D+00  0.421777D-01 -0.611971D-03 -0.408930D-02
     37  0.659398D-02 -0.841888D-02 -0.109575D-01  0.179037D-02  0.652717D-02
     38  0.168598D-01 -0.162431D-01 -0.104543D-01  0.293711D-02  0.513109D-02
     39  0.169233D-01  0.568608D-02 -0.751087D-02  0.375905D-02  0.815833D-02
     40  0.335890D-02 -0.106866D-02 -0.642994D-02  0.941912D-02  0.170046D-01
     41 -0.142498D-01 -0.359630D-02  0.615725D-02  0.365889D-02 -0.345577D-02
     42 -0.177876D-01 -0.407200D-02  0.103938D-02 -0.898009D-02 -0.114201D-01
               21            22            23            24            25
     21  0.381875D+01
     22 -0.171300D+00  0.185805D+01
     23 -0.132862D+00  0.316866D+00  0.408055D+01
     24  0.489592D-01 -0.159856D+01  0.471445D+00  0.297051D+01
     25  0.405128D-01  0.709601D-01  0.493231D-01 -0.105432D+00  0.137645D+02
     26 -0.226138D-01  0.101129D-02  0.109104D+00  0.237127D-01 -0.371517D+00
     27 -0.976644D-04 -0.830900D-01  0.943175D-01 -0.136062D+00  0.270510D+01
     28  0.237332D-03 -0.259056D-03 -0.144040D-01  0.530438D-01 -0.384351D+01
     29  0.728929D-01 -0.980207D-02 -0.225324D-01 -0.169733D-01  0.382014D+00
     30 -0.500129D-01  0.699914D-01 -0.369093D-01  0.101852D+00  0.107581D+01
     31 -0.176102D-01 -0.153643D-01 -0.109219D-03 -0.574358D-02 -0.145849D+01
     32 -0.210494D-01 -0.811003D-02 -0.246102D-01 -0.179550D-01  0.177933D+01
     33 -0.239198D-01  0.847381D-02 -0.651574D-02  0.172592D-01 -0.870201D+00
     34  0.228743D-02 -0.235984D-02  0.896152D-03 -0.916996D-03  0.390486D-02
     35  0.316546D-02 -0.533266D-02  0.377726D-02 -0.114001D-01 -0.113711D-01
     36 -0.245536D-02  0.495731D-02 -0.648541D-02  0.897576D-02  0.147278D-01
     37  0.168795D-02 -0.128611D-01  0.280136D-01 -0.225837D-01  0.422152D-01
     38  0.164140D-02  0.117262D-01  0.222174D-01 -0.320294D-01 -0.222954D-01
     39  0.428061D-03 -0.108165D-01 -0.152310D-01 -0.116218D-01  0.351107D-01
     40 -0.502910D-02 -0.669475D-02  0.377388D-02 -0.144737D-01  0.584283D-01
     41 -0.380241D-02  0.360323D-02 -0.525178D-02  0.240671D-02 -0.756038D-01
     42 -0.949207D-03 -0.167129D-03 -0.567059D-02  0.142609D-01 -0.487657D-01
               26            27            28            29            30
     26  0.169414D+02
     27  0.695140D+00  0.148657D+02
     28  0.318665D+00  0.937391D+00  0.376420D+01
     29 -0.404755D+01  0.736000D+00 -0.357097D+00  0.410687D+01
     30  0.691355D+00 -0.228884D+01 -0.110573D+01 -0.104243D+01  0.182925D+01
     31  0.183342D+01 -0.868675D+00 -0.412677D-02  0.117230D-01  0.903847D-01
     32 -0.469382D+01 -0.376083D+00  0.109558D-01  0.364697D-02  0.557962D-01
     33 -0.396241D+00 -0.527764D+01  0.510766D-01  0.380801D-01  0.808631D-01
     34 -0.663224D-01  0.432569D-01 -0.137708D-01 -0.240398D-01  0.541924D-03
     35  0.789853D-01 -0.329408D-01 -0.154181D-01 -0.791364D-02  0.918813D-02
     36 -0.219258D-01  0.725315D-01 -0.228060D-02 -0.299886D-02  0.336249D-02
     37 -0.380516D-01 -0.394137D-01  0.592508D-01  0.553642D-01  0.808353D-01
     38  0.692065D-01 -0.138904D-01  0.509345D-01  0.387463D-03  0.448939D-01
     39  0.196102D-01  0.123089D+00  0.670712D-01  0.402519D-01  0.245039D-01
     40 -0.193733D-01 -0.509897D-01 -0.527209D-01 -0.511365D-02 -0.131128D-02
     41  0.496009D-01  0.448211D-01 -0.100986D-01  0.166458D-01 -0.709302D-02
     42  0.203397D-01  0.445654D-01 -0.464448D-02 -0.751948D-03  0.158759D-01
               31            32            33            34            35
     31  0.106897D+02
     32 -0.121684D+01  0.134768D+02
     33  0.968130D+00  0.339655D+00  0.135630D+02
     34 -0.382054D+01 -0.149378D-01  0.200492D-01  0.368249D+01
     35 -0.155088D+00 -0.223449D+01 -0.123636D+01 -0.286353D-01  0.208818D+01
     36  0.134104D+00 -0.127707D+01 -0.278039D+01  0.101721D+00  0.137437D+01
     37 -0.337509D+01  0.447580D+00  0.117648D+01  0.603746D-01  0.166286D-01
     38  0.399199D+00 -0.362669D+01  0.801490D+00  0.228652D-01  0.746614D-01
     39  0.946458D+00  0.717671D+00 -0.213784D+01 -0.354705D-01  0.240401D-01
     40 -0.273557D+01 -0.110424D+01 -0.654767D+00  0.443674D-01  0.493402D-01
     41 -0.984180D+00 -0.264663D+01  0.654116D+00  0.472907D-01 -0.395830D-01
     42 -0.643596D+00  0.719573D+00 -0.328705D+01 -0.218414D-01  0.275547D-01
               36            37            38            39            40
     36  0.262012D+01
     37 -0.546592D-01  0.298421D+01
     38  0.589336D-01 -0.536971D+00  0.350722D+01
     39 -0.581557D-01 -0.109381D+01 -0.742547D+00  0.215951D+01
     40 -0.854759D-02  0.894466D-01  0.479487D-02  0.121318D-01  0.241723D+01
     41 -0.148506D-02  0.878823D-02  0.135826D-01 -0.639076D-01  0.112927D+01
     42  0.723045D-01  0.228857D-01 -0.968298D-01 -0.219929D-01  0.849034D+00
               41            42
     41  0.265321D+01
     42 -0.685379D+00  0.316212D+01
 ReadGW:  IGet=0 IStart=         102 Next=        6311 LGW=        6209.
 ICntrl=12127.
 Symmetry not used in FoFDir.
 MinBra= 0 MaxBra= 2 Meth= 1.
 IRaf=       0 NMat=   1 IRICut=       1 DoRegI=T DoRafI=F ISym2E= 0 JSym2E=0.
 PrsmSu:  NPrtUS=   8 ThrOK=T
 PRISM was handed    16311527 working-precision words and  1920 shell-pairs
 PRISM was handed    16311527 working-precision words and  1920 shell-pairs
 PRISM was handed    16311527 working-precision words and  1920 shell-pairs
 PRISM was handed    16311527 working-precision words and  1920 shell-pairs
 PRISM was handed    16311527 working-precision words and  1920 shell-pairs
 PRISM was handed    16311527 working-precision words and  1920 shell-pairs
 PRISM was handed    16311527 working-precision words and  1920 shell-pairs
 PRISM was handed    16311527 working-precision words and  1920 shell-pairs
 Pruned (  75, 302) grid will be used in CalDFT.
 CkSvGd:  ISavGI=        -1 IRadAn=       4 IRASav=       4 ISavGd=        -1.
 CalDSu:  NPrtUS=   8 ThrOK=T
 IPart= 0 IRanGd=          0 ScrnBf=T ScrnGd=T RCrit=4.00D+00 DoMicB=T.
 IPart= 4 IRanGd=          0 ScrnBf=T ScrnGd=T RCrit=4.00D+00 DoMicB=T.
 IPart= 3 IRanGd=          0 ScrnBf=T ScrnGd=T RCrit=4.00D+00 DoMicB=T.
 IPart= 2 IRanGd=          0 ScrnBf=T ScrnGd=T RCrit=4.00D+00 DoMicB=T.
 CutRad = 1000.00    CtRdIn =    0.00    XCrit =  15.00   ICut = 0
 IPart= 6 IRanGd=          0 ScrnBf=T ScrnGd=T RCrit=4.00D+00 DoMicB=T.
 IPart= 1 IRanGd=          0 ScrnBf=T ScrnGd=T RCrit=4.00D+00 DoMicB=T.
 IPart= 5 IRanGd=          0 ScrnBf=T ScrnGd=T RCrit=4.00D+00 DoMicB=T.
 CutRad = 1000.00    CtRdIn =    0.00    XCrit =  15.00   ICut = 0
 CutRad = 1000.00    CtRdIn =    0.00    XCrit =  15.00   ICut = 0
 CutRad = 1000.00    CtRdIn =    0.00    XCrit =  15.00   ICut = 0
 CutRad = 1000.00    CtRdIn =    0.00    XCrit =  15.00   ICut = 0
 IPart= 7 IRanGd=          0 ScrnBf=T ScrnGd=T RCrit=4.00D+00 DoMicB=T.
 CutRad = 1000.00    CtRdIn =    0.00    XCrit =  15.00   ICut = 0
 CutRad = 1000.00    CtRdIn =    0.00    XCrit =  15.00   ICut = 0
 CutRad = 1000.00    CtRdIn =    0.00    XCrit =  15.00   ICut = 0
 IPart= 0        12538 of        14018 points in      29 batches and       88 microbatches, Max-NSigAt=      14 Max-NSgAt2=      14
 IPart= 1        12193 of        13870 points in      30 batches and      105 microbatches, Max-NSigAt=      14 Max-NSgAt2=      14
 IPart= 3        11746 of        13484 points in      28 batches and       82 microbatches, Max-NSigAt=      14 Max-NSgAt2=      14
 IPart= 6        11932 of        13132 points in      25 batches and       74 microbatches, Max-NSigAt=      14 Max-NSgAt2=      14
 IPart= 4        12479 of        13952 points in      29 batches and       92 microbatches, Max-NSigAt=      14 Max-NSgAt2=      14
 IPart= 7        12773 of        14318 points in      29 batches and       81 microbatches, Max-NSigAt=      14 Max-NSgAt2=      14
 IPart= 5        12274 of        13816 points in      27 batches and       90 microbatches, Max-NSigAt=      14 Max-NSgAt2=      14
 IPart= 2        12722 of        14986 points in      31 batches and       87 microbatches, Max-NSigAt=      14 Max-NSgAt2=      14
 Polarizability after L703:
                1             2             3
      1  0.536121D+02
      2 -0.133562D+01  0.515628D+02
      3  0.582139D+00 -0.199575D+01  0.463656D+02
 Dipole Derivatives after L703:
               1            2            3            4            5
      1-0.100432D+01 0.264566D+00-0.211429D+00 0.345696D+00-0.769286D-01
      2 0.359100D+00-0.423914D+00 0.225003D+00-0.423374D-02 0.136359D+00
      3-0.133768D+00 0.122056D+00-0.558916D+00-0.221985D-01-0.762806D-01
               6            7            8            9           10
      1-0.188531D-01 0.995358D+00-0.385223D+00 0.279116D+00-0.444452D-01
      2-0.581515D-01-0.239143D+00 0.978639D+00-0.358964D+00-0.612322D-01
      3 0.296699D+00 0.161864D+00-0.220805D+00 0.707774D+00-0.445826D-01
              11           12           13           14           15
      1-0.375900D-01-0.407240D-01-0.631800D+00 0.262156D+00 0.126821D+00
      2-0.144009D+00-0.692021D-01 0.106967D+00-0.854565D+00 0.214129D+00
      3-0.508344D-01-0.210945D-01 0.103279D+00 0.208818D+00-0.611723D+00
              16           17           18           19           20
      1 0.464034D+00-0.150880D+00-0.512840D-01 0.569165D-02-0.211183D-01
      2-0.237158D+00 0.503440D+00 0.156082D+00-0.620410D-01-0.196668D+00
      3 0.718923D-01 0.673650D-01 0.241141D+00-0.508420D-02-0.791504D-02
              21           22           23           24           25
      1-0.189579D-02-0.141352D+00 0.566917D-02-0.966735D-01 0.436518D-01
      2-0.611368D-01 0.666033D-01 0.589610D-02 0.178679D-01 0.119737D+00
      3 0.253380D-01-0.109781D+00-0.139438D-01-0.512982D-01 0.132128D-01
              26           27           28           29           30
      1 0.182743D+00 0.721642D-01-0.561400D-01-0.435558D-01-0.613629D-01
      2-0.467724D-01-0.424355D-01-0.549708D-01 0.176494D-01-0.279083D-01
      3-0.255325D-01 0.546831D-01-0.881043D-01-0.307052D-01-0.100619D+00
              31           32           33           34           35
      1 0.444665D-01-0.243838D-01 0.203685D-01 0.335743D-01-0.315182D-01
      2-0.332874D-01 0.853806D-01 0.177072D-01 0.189651D-01-0.623444D-01
      3 0.208408D-01 0.175648D-01 0.974745D-01-0.107347D-01 0.118261D+00
              36           37           38           39           40
      1 0.882424D-02 0.407198D-02-0.413279D-01-0.919313D-01-0.584907D-01
      2 0.106643D+00-0.312481D-01 0.404647D-01-0.664876D-01 0.519406D-01
      3-0.139460D-01-0.282146D-01-0.385793D-01-0.100513D+00 0.713800D-01
              41           42
      1 0.973907D-01 0.668600D-01
      2-0.395559D-01-0.531470D-01
      3-0.694689D-01 0.349990D-01
 Hessian after L703:
                1             2             3             4             5
      1  0.386900D+00
      2  0.925658D-01  0.466608D+00
      3  0.199878D+00  0.112051D+00  0.189192D+00
      4 -0.131442D+00 -0.142367D+00 -0.925813D-01  0.157678D+00
      5 -0.185811D+00 -0.340098D+00 -0.158536D+00  0.172685D+00  0.328269D+00
      6 -0.958562D-01 -0.133276D+00 -0.836105D-01  0.112917D+00  0.150307D+00
      7 -0.211820D+00  0.162896D-01 -0.654825D-01 -0.269603D-01  0.103116D-01
      8  0.540027D-01 -0.111095D+00  0.140568D-01 -0.347405D-01  0.103785D-01
      9 -0.589580D-01 -0.338143D-02 -0.965116D-01 -0.214626D-01  0.585960D-02
     10 -0.266378D-01 -0.215472D-01 -0.248380D-01 -0.403461D-02  0.146151D-02
     11  0.577291D-02  0.113541D-01  0.513065D-02  0.354068D-02  0.150766D-02
     12 -0.150098D-01 -0.114951D-01 -0.854643D-02 -0.280604D-02  0.121912D-02
     13  0.899057D-02  0.311893D-01 -0.240607D-01  0.321072D-02 -0.111296D-02
     14  0.192804D-01 -0.191514D-01  0.266344D-01  0.160235D-02  0.599888D-04
     15 -0.127170D-01  0.237150D-01 -0.116015D-01  0.235962D-02 -0.273203D-03
     16 -0.171069D-02  0.534082D-03  0.292421D-02  0.301895D-03  0.162364D-02
     17  0.776814D-03 -0.176374D-02 -0.272618D-02  0.625054D-05 -0.693039D-03
     18 -0.404563D-03  0.448350D-02 -0.543832D-02 -0.340136D-03 -0.627194D-04
     19 -0.517510D-04  0.425757D-03 -0.684337D-03 -0.336428D-04  0.811892D-04
     20  0.538651D-03 -0.869014D-03  0.194093D-03 -0.121380D-03  0.513993D-04
     21 -0.804617D-03  0.123245D-03  0.594746D-03  0.588681D-04  0.268032D-03
     22 -0.106114D-03  0.195489D-02 -0.236080D-02  0.136543D-03 -0.200178D-03
     23  0.793741D-03 -0.153134D-02  0.775020D-03 -0.314353D-03 -0.911533D-04
     24 -0.710920D-03 -0.547576D-03  0.180062D-02  0.293539D-03 -0.268853D-04
     25 -0.247587D-01  0.191413D-01  0.646641D-02  0.129454D-02  0.106379D-02
     26  0.112192D-01 -0.427869D-02  0.936153D-03 -0.158202D-02  0.614687D-03
     27 -0.173610D-01  0.689079D-02  0.102522D-01 -0.647364D-03  0.209140D-02
     28  0.326878D-02 -0.655983D-03 -0.518860D-05 -0.657287D-03 -0.328556D-03
     29 -0.222151D-02  0.287042D-02  0.274104D-02  0.144457D-02  0.436181D-03
     30  0.193784D-03  0.146091D-02  0.328263D-02  0.151328D-02 -0.555966D-03
     31 -0.112299D-02  0.592951D-03  0.550094D-03 -0.415903D-04  0.286785D-03
     32  0.438157D-02 -0.302068D-02 -0.107781D-02 -0.435750D-03 -0.348207D-03
     33  0.780335D-03  0.577734D-04  0.431925D-03  0.646002D-03 -0.206862D-03
     34  0.222553D-04  0.264884D-03 -0.602247D-03 -0.773764D-04 -0.101801D-03
     35 -0.616621D-03  0.405129D-03 -0.324235D-03  0.467916D-04 -0.524759D-04
     36  0.291065D-03 -0.317708D-03  0.164006D-03 -0.655960D-04  0.142173D-04
     37  0.155839D-03  0.585799D-03  0.525316D-03  0.401615D-03 -0.312349D-04
     38  0.566449D-04  0.387841D-04  0.990321D-04  0.168486D-03 -0.839858D-04
     39 -0.156250D-04  0.208298D-03  0.130266D-03  0.108534D-03 -0.601036D-04
     40 -0.168802D-02  0.102563D-02  0.270770D-03  0.222853D-03  0.720202D-04
     41 -0.739065D-03  0.532490D-03  0.457254D-04  0.663262D-04  0.500815D-04
     42  0.694254D-03  0.268572D-04 -0.140490D-03  0.645250D-05 -0.381840D-04
                6             7             8             9            10
      6  0.931751D-01
      7 -0.176312D-01  0.532858D+00
      8 -0.176602D-01  0.197688D-01  0.580543D+00
      9 -0.136845D-01  0.728786D-01  0.103279D+00  0.439341D+00
     10 -0.485125D-02 -0.838029D-01 -0.647084D-01 -0.384586D-01  0.104010D+00
     11  0.146390D-02 -0.759834D-01 -0.202227D+00 -0.102939D+00  0.782155D-01
     12  0.143264D-05 -0.438353D-01 -0.999750D-01 -0.115382D+00  0.571766D-01
     13  0.521319D-02 -0.854275D-01 -0.158981D-01  0.114928D-01  0.394123D-02
     14 -0.265168D-02 -0.527839D-01 -0.112273D+00  0.544373D-01 -0.708174D-02
     15  0.156178D-02  0.369274D-01  0.211894D-01 -0.106774D+00 -0.103992D-02
     16 -0.207776D-02 -0.105283D-01  0.383461D-01 -0.888849D-02 -0.174387D-02
     17  0.764554D-03  0.490110D-01 -0.800523D-01  0.190029D-01 -0.157034D-02
     18  0.158573D-02 -0.732060D-02  0.133029D-01  0.916550D-02  0.429384D-03
     19  0.195695D-03 -0.197376D-02  0.930875D-03  0.422322D-02  0.460640D-03
     20 -0.184595D-03  0.309234D-03 -0.609762D-03 -0.131279D-02 -0.153647D-03
     21 -0.254173D-03  0.697389D-03  0.261883D-02 -0.539996D-02 -0.655012D-03
     22  0.679109D-03 -0.355711D-02 -0.488625D-02  0.374878D-02  0.162685D-03
     23 -0.304796D-03  0.115658D-02  0.183446D-02 -0.884857D-03 -0.221761D-04
     24 -0.399599D-03  0.239870D-02  0.122866D-02 -0.284371D-02 -0.267619D-03
     25  0.106889D-02 -0.993768D-01  0.130058D-01  0.204018D-01  0.755212D-02
     26  0.190781D-02  0.322689D-01 -0.874324D-01 -0.605858D-01  0.129379D-01
     27  0.264339D-02  0.205274D-01 -0.430875D-01 -0.928628D-01  0.112232D-01
     28  0.232461D-04  0.773318D-02  0.787494D-02  0.170409D-01 -0.176088D-02
     29 -0.168070D-03 -0.119624D-01 -0.113832D-01 -0.203538D-01  0.272992D-02
     30 -0.488633D-03 -0.962348D-02 -0.334070D-02 -0.128552D-01  0.150262D-02
     31  0.204269D-03 -0.181634D-01 -0.698654D-02  0.245138D-02  0.190209D-02
     32 -0.143604D-03  0.122589D-01  0.133940D-01  0.670257D-02  0.108166D-03
     33 -0.468215D-03  0.104583D-01  0.747554D-02 -0.357160D-02  0.191078D-03
     34  0.716816D-04  0.125342D-02 -0.459782D-03  0.107760D-02  0.104110D-04
     35  0.946746D-04  0.264773D-03 -0.227026D-03  0.530167D-03 -0.221788D-03
     36  0.148160D-04 -0.706064D-03  0.114867D-02 -0.311782D-03  0.172240D-03
     37 -0.443280D-04  0.652696D-03 -0.133668D-02 -0.231251D-02 -0.191634D-03
     38 -0.149673D-03  0.107402D-02  0.838055D-03 -0.537054D-04 -0.605816D-04
     39 -0.865482D-04  0.509489D-03 -0.621407D-03  0.248600D-03 -0.362887D-03
     40  0.879191D-04 -0.887373D-03 -0.491296D-02 -0.323493D-02  0.132471D-03
     41  0.000000D+00 -0.198380D-02 -0.168793D-02 -0.299554D-03 -0.871903D-04
     42  0.985034D-05  0.201867D-03  0.385161D-03  0.144264D-02 -0.221763D-03
               11            12            13            14            15
     11  0.223149D+00
     12  0.100184D+00  0.120414D+00
     13 -0.740294D-02  0.841672D-02  0.255331D+00
     14 -0.260977D-01  0.252497D-01 -0.571005D-01  0.273094D+00
     15  0.282934D-02  0.107389D-01 -0.125709D+00 -0.633402D-01  0.242345D+00
     16 -0.341377D-02  0.303057D-02 -0.131581D+00  0.522147D-01  0.288957D-01
     17 -0.632602D-04 -0.456378D-03  0.272367D-01 -0.903919D-01 -0.106319D-01
     18  0.702620D-03 -0.157127D-02  0.497931D-01 -0.402278D-01 -0.865551D-01
     19  0.104415D-02 -0.915980D-03  0.541939D-02  0.310609D-01  0.742423D-02
     20 -0.917655D-03  0.124385D-03  0.708316D-02 -0.149539D-01 -0.454220D-02
     21 -0.189164D-03  0.910523D-03  0.140779D-02 -0.153901D-01  0.297972D-04
     22  0.795616D-03 -0.277272D-03 -0.249184D-01  0.146370D-01 -0.741500D-02
     23 -0.422157D-03 -0.169406D-03  0.190376D-01 -0.320890D-02  0.889572D-02
     24  0.156574D-03  0.636489D-04  0.158758D-01 -0.269206D-02  0.157760D-01
     25 -0.413412D-02 -0.672426D-02 -0.332877D-01  0.172510D-02  0.672789D-01
     26 -0.626023D-02 -0.134541D-01 -0.121217D-02 -0.131348D-01  0.245595D-01
     27 -0.734481D-02 -0.716038D-02  0.486879D-01  0.177732D-01 -0.577434D-01
     28  0.119619D-02  0.152885D-02 -0.162280D-02 -0.182897D-02 -0.409066D-03
     29 -0.112888D-02 -0.221022D-02 -0.422291D-03  0.492602D-03  0.129216D-03
     30 -0.115417D-03 -0.805119D-03  0.412826D-02  0.119818D-02 -0.326717D-03
     31 -0.110771D-02 -0.155633D-02  0.486023D-03 -0.194724D-02  0.129720D-02
     32  0.652485D-03  0.228360D-03 -0.108700D-02  0.553506D-02 -0.404753D-02
     33 -0.258269D-03  0.103255D-02  0.491843D-02 -0.705511D-03 -0.741846D-02
     34  0.450887D-03  0.164791D-03 -0.789339D-03  0.135969D-02  0.731891D-03
     35  0.163774D-03  0.206034D-03 -0.776884D-03  0.743613D-03  0.451316D-03
     36 -0.290645D-03 -0.282615D-03  0.332458D-03 -0.847367D-03 -0.390925D-04
     37  0.848048D-03  0.770072D-03  0.444580D-03  0.404152D-03  0.170794D-03
     38  0.721673D-04  0.259131D-03  0.468199D-03 -0.665225D-03  0.316642D-03
     39  0.349116D-03  0.385021D-03 -0.309143D-03  0.944623D-05  0.454201D-03
     40  0.177944D-03  0.373259D-04 -0.196248D-03 -0.154183D-02  0.220422D-02
     41  0.217346D-03  0.289006D-03 -0.216596D-05 -0.485036D-04  0.748777D-03
     42  0.321036D-03  0.202368D-03 -0.187806D-03  0.552474D-03 -0.447548D-03
               16            17            18            19            20
     16  0.484018D+00
     17  0.236686D-01  0.598837D+00
     18  0.119056D+00  0.309484D-02  0.448540D+00
     19 -0.795058D-01 -0.817789D-01 -0.219180D-01  0.807457D-01
     20 -0.765354D-01 -0.263194D+00 -0.582425D-01  0.740937D-01  0.288700D+00
     21 -0.212829D-01 -0.556876D-01 -0.683495D-01  0.221653D-01  0.655520D-01
     22 -0.191076D+00 -0.253995D-02 -0.124270D+00 -0.518723D-02 -0.131044D-02
     23 -0.239671D-02 -0.537847D-01  0.604987D-03 -0.230801D-01  0.172609D-02
     24 -0.127048D+00  0.266724D-02 -0.156882D+00 -0.663502D-02  0.642738D-03
     25 -0.640485D-01 -0.135939D-01 -0.173801D-01 -0.784075D-03 -0.435912D-02
     26 -0.266479D-01 -0.108211D+00  0.581607D-01 -0.260480D-02 -0.971594D-02
     27 -0.478241D-02  0.441822D-01 -0.126396D+00 -0.519750D-02 -0.381574D-02
     28 -0.198285D-02 -0.108292D-03 -0.414098D-03  0.856469D-03  0.149847D-04
     29  0.133829D-01  0.785967D-02  0.227126D-01  0.496908D-03  0.137650D-02
     30 -0.926250D-02 -0.708295D-02 -0.157981D-01  0.749970D-04  0.326147D-03
     31  0.118022D-02 -0.790364D-03  0.557660D-02  0.917418D-04  0.118032D-02
     32 -0.194246D-01 -0.106772D-01 -0.105160D-02 -0.959193D-03 -0.147643D-02
     33  0.185549D-01  0.613016D-02 -0.102354D-02  0.649173D-03  0.109760D-02
     34 -0.456316D-02 -0.166154D-02 -0.204633D-02 -0.263130D-03 -0.564477D-03
     35 -0.134151D-02  0.685986D-03 -0.193146D-02 -0.165935D-04 -0.239888D-03
     36  0.426101D-03  0.988406D-03  0.161448D-02  0.436892D-03  0.192970D-03
     37  0.105646D-02  0.815944D-03 -0.108967D-02  0.310458D-03  0.736734D-04
     38 -0.771032D-03  0.719148D-03 -0.143672D-02  0.295639D-03  0.858862D-04
     39  0.228852D-03  0.422381D-03  0.882035D-03  0.134287D-03 -0.412957D-04
     40  0.183866D-03  0.527898D-03  0.327993D-03 -0.850437D-04 -0.249292D-03
     41  0.760861D-03  0.729238D-03 -0.109430D-03  0.105636D-04  0.365214D-04
     42  0.225758D-03 -0.667575D-03  0.226669D-03  0.470971D-04  0.913990D-05
               21            22            23            24            25
     21  0.660043D-01
     22 -0.901636D-02  0.215802D+00
     23 -0.190918D-01 -0.836777D-02  0.555486D-01
     24 -0.309782D-02  0.133286D+00 -0.263773D-02  0.160764D+00
     25  0.703792D-02  0.681071D-02  0.125589D-01 -0.173345D-01  0.510487D+00
     26  0.205722D-01 -0.869180D-04  0.238227D-03 -0.148647D-02  0.659121D-01
     27  0.981957D-02  0.416810D-02  0.116864D-01 -0.154214D-01  0.951890D-02
     28  0.624676D-03  0.396756D-03  0.586512D-03 -0.391128D-03 -0.936556D-01
     29 -0.123952D-02 -0.965433D-03 -0.201901D-02  0.395122D-02 -0.357142D-01
     30  0.137486D-02  0.146518D-02  0.147039D-02 -0.187173D-02 -0.918624D-01
     31 -0.139215D-02  0.708597D-03  0.608964D-03 -0.938574D-03 -0.178300D+00
     32  0.209577D-02  0.265082D-03  0.198456D-02 -0.184931D-02 -0.402617D-01
     33 -0.132823D-02  0.210113D-03  0.295539D-03  0.148535D-02  0.154711D-01
     34  0.910939D-03  0.173762D-03  0.101082D-03  0.110519D-03  0.329972D-02
     35  0.362578D-03  0.799759D-04  0.103332D-03 -0.134693D-03  0.876207D-03
     36 -0.358770D-03  0.127026D-03 -0.355577D-03  0.464132D-03  0.160940D-03
     37  0.967747D-04  0.463341D-03 -0.343537D-03  0.102766D-02 -0.153506D-01
     38  0.170181D-03  0.434541D-03 -0.358476D-03  0.768993D-03 -0.631145D-02
     39  0.484808D-04 -0.248922D-03 -0.342632D-03  0.442151D-03  0.244327D-02
     40  0.151370D-03  0.189993D-03 -0.318707D-03  0.333658D-03 -0.198820D-01
     41 -0.164625D-03  0.189837D-03 -0.195702D-04 -0.407058D-04 -0.990866D-02
     42  0.614798D-05 -0.963421D-04  0.587588D-04 -0.279128D-03  0.345319D-02
               26            27            28            29            30
     26  0.407942D+00
     27  0.302382D-01  0.591610D+00
     28 -0.350643D-01 -0.915188D-01  0.104662D+00
     29 -0.729646D-01 -0.708887D-01  0.410504D-01  0.782849D-01
     30 -0.711478D-01 -0.230850D+00  0.976673D-01  0.749255D-01  0.249271D+00
     31 -0.414695D-01  0.167142D-01 -0.141807D-01 -0.604519D-02  0.360639D-02
     32 -0.102959D+00  0.816010D-02 -0.110501D-01 -0.425818D-02  0.254028D-02
     33  0.761556D-02 -0.819302D-01 -0.261781D-01 -0.106502D-01  0.709958D-02
     34 -0.261649D-01  0.214116D-01  0.116390D-02  0.346374D-03 -0.599402D-03
     35 -0.102358D-01  0.815873D-02 -0.220647D-04  0.244721D-04 -0.371902D-03
     36  0.363500D-02 -0.453759D-02  0.388908D-03 -0.227747D-03  0.559771D-03
     37 -0.102321D-01 -0.260818D-01 -0.512495D-02 -0.236243D-02  0.190671D-02
     38 -0.523576D-02 -0.110358D-01 -0.256806D-02 -0.198162D-03  0.822153D-03
     39  0.257233D-02  0.605620D-02  0.174051D-02  0.793248D-03  0.943673D-03
     40  0.227265D-01  0.133376D-01  0.903807D-03  0.242406D-03 -0.710740D-03
     41  0.116333D-01  0.699160D-02  0.903374D-03  0.607301D-03 -0.128785D-03
     42 -0.352327D-02 -0.347956D-02 -0.979859D-04  0.485442D-03  0.463641D-03
               31            32            33            34            35
     31  0.488232D+00
     32 -0.327613D-01  0.545070D+00
     33  0.162241D-01  0.729002D-02  0.560751D+00
     34 -0.486519D-01  0.174123D-01 -0.149230D-01  0.522825D-01
     35  0.167923D-01 -0.201386D+00  0.126170D+00 -0.163614D-01  0.217599D+00
     36 -0.145855D-01  0.126053D+00 -0.150448D+00  0.145918D-01 -0.140148D+00
     37 -0.929800D-01 -0.345695D-01 -0.913882D-01 -0.191718D-02 -0.344641D-03
     38 -0.348446D-01 -0.739608D-01 -0.698101D-01  0.110215D-01  0.942333D-02
     39 -0.926281D-01 -0.702896D-01 -0.232522D+00 -0.752801D-02 -0.708686D-02
     40 -0.139160D+00  0.106123D+00  0.643859D-01 -0.194397D-02  0.164140D-02
     41  0.106491D+00 -0.168550D+00 -0.745014D-01  0.143572D-01 -0.170073D-01
     42  0.644764D-01 -0.746110D-01 -0.920902D-01 -0.133718D-01  0.140231D-01
               36            37            38            39            40
     36  0.160355D+00
     37 -0.194137D-02  0.103052D+00
     38  0.214577D-01  0.411648D-01  0.766520D-01
     39 -0.166170D-01  0.101127D+00  0.773361D-01  0.250912D+00
     40  0.371040D-03  0.902737D-02 -0.101281D-01 -0.519970D-02  0.153182D+00
     41 -0.113035D-01  0.532771D-02 -0.732690D-02 -0.324903D-02 -0.115386D+00
     42  0.942325D-02  0.172330D-01 -0.187439D-01 -0.112777D-01 -0.723624D-01
               41            42
     41  0.180834D+00
     42  0.817218D-01  0.959400D-01
 FrcOut:
 IF    =  1026 IFX   =  1068 IFXYZ =  1110
 IFFX  =  1152 IFFFX =  2055 IFLen =    42
 IFFLen=   903 IFFFLn=     0 IEDerv=  2055
 LEDerv=  2069 IFroze=  4128 ICStrt= 53261
 DipoleDeriv   =-1.00431786D+00 3.59099947D-01-1.33768272D-01
                 2.64565800D-01-4.23913881D-01 1.22055545D-01
                -2.11429039D-01 2.25002811D-01-5.58915680D-01
                 3.45696353D-01-4.23373636D-03-2.21984776D-02
                -7.69285517D-02 1.36359027D-01-7.62806079D-02
                -1.88531437D-02-5.81514977D-02 2.96699262D-01
                 9.95357859D-01-2.39142610D-01 1.61863630D-01
                -3.85222737D-01 9.78638656D-01-2.20804520D-01
                 2.79115783D-01-3.58963633D-01 7.07774189D-01
                -4.44451650D-02-6.12321551D-02-4.45825612D-02
                -3.75900279D-02-1.44008841D-01-5.08344303D-02
                -4.07240133D-02-6.92021480D-02-2.10944511D-02
                -6.31799585D-01 1.06967199D-01 1.03279122D-01
                 2.62156424D-01-8.54564995D-01 2.08818261D-01
                 1.26820939D-01 2.14128813D-01-6.11722779D-01
                 4.64034498D-01-2.37157662D-01 7.18922735D-02
                -1.50879703D-01 5.03439519D-01 6.73649565D-02
                -5.12839665D-02 1.56082295D-01 2.41140511D-01
                 5.69165108D-03-6.20409914D-02-5.08419604D-03
                -2.11182567D-02-1.96667587D-01-7.91503760D-03
                -1.89579093D-03-6.11367931D-02 2.53380278D-02
                -1.41351629D-01 6.66033067D-02-1.09781493D-01
                 5.66916927D-03 5.89610161D-03-1.39437736D-02
                -9.66735446D-02 1.78678980D-02-5.12982119D-02
                 4.36517929D-02 1.19737225D-01 1.32127578D-02
                 1.82742868D-01-4.67723522D-02-2.55324563D-02
                 7.21642141D-02-4.24355294D-02 5.46830915D-02
                -5.61399851D-02-5.49707553D-02-8.81043399D-02
                -4.35557571D-02 1.76493996D-02-3.07051731D-02
                -6.13628694D-02-2.79083296D-02-1.00618592D-01
                 4.44664709D-02-3.32873765D-02 2.08407797D-02
                -2.43838369D-02 8.53805990D-02 1.75648127D-02
                 2.03685311D-02 1.77072098D-02 9.74744629D-02
                 3.35742707D-02 1.89651274D-02-1.07346640D-02
                -3.15182062D-02-6.23444395D-02 1.18260646D-01
                 8.82423919D-03 1.06643489D-01-1.39460427D-02
                 4.07197817D-03-3.12481355D-02-2.82145724D-02
                -4.13278736D-02 4.04646635D-02-3.85792858D-02
                -9.19313414D-02-6.64876273D-02-1.00512815D-01
                -5.84906540D-02 5.19406170D-02 7.13800125D-02
                 9.73906882D-02-3.95558705D-02-6.94689375D-02
                 6.68600033D-02-5.31469580D-02 3.49990288D-02
 Full mass-weighted force constant matrix:
 Low frequencies ---  -13.4352   -5.6915   -0.0004   -0.0001    0.0004   18.6816
 Low frequencies ---  104.0723  212.6339  265.4429
 Dipole derivatives wrt mode   1:  6.16691D-01  9.42077D-01  1.83234D-01
 Vibrational polarizability contributions from mode   1       0.9456308       2.2067761       0.0834827
 Vibrational hyperpolarizability contributions from mode   1       0.0000000       0.0000000       0.0000000
 Dipole derivatives wrt mode   2:  1.43170D-01  8.19344D-02 -3.09822D-01
 Vibrational polarizability contributions from mode   2       0.0122005       0.0039958       0.0571347
 Vibrational hyperpolarizability contributions from mode   2       0.0000000       0.0000000       0.0000000
 Dipole derivatives wrt mode   3: -8.69113D-01 -3.06908D-01 -1.57982D+00
 Vibrational polarizability contributions from mode   3       0.2884989       0.0359757       0.9532559
 Vibrational hyperpolarizability contributions from mode   3       0.0000000       0.0000000       0.0000000
 Dipole derivatives wrt mode   4: -2.78965D+00 -1.60510D+00  2.96120D+00
 Vibrational polarizability contributions from mode   4       2.2123936       0.7324366       2.4928739
 Vibrational hyperpolarizability contributions from mode   4       0.0000000       0.0000000       0.0000000
 Dipole derivatives wrt mode   5: -1.81446D+00 -1.92415D+00  7.29841D+00
 Vibrational polarizability contributions from mode   5       0.6637501       0.7464303      10.7390975
 Vibrational hyperpolarizability contributions from mode   5       0.0000000       0.0000000       0.0000000
 Dipole derivatives wrt mode   6:  2.82435D+00  4.44316D-01 -5.18534D+00
 Vibrational polarizability contributions from mode   6       1.0023902       0.0248076       3.3787414
 Vibrational hyperpolarizability contributions from mode   6       0.0000000       0.0000000       0.0000000
 Dipole derivatives wrt mode   7: -3.01672D+00 -1.09709D+00  6.98896D-01
 Vibrational polarizability contributions from mode   7       0.7788704       0.1030097       0.0418042
 Vibrational hyperpolarizability contributions from mode   7       0.0000000       0.0000000       0.0000000
 Dipole derivatives wrt mode   8: -1.25026D+00  9.08533D-01 -1.24447D+00
 Vibrational polarizability contributions from mode   8       0.0837629       0.0442318       0.0829889
 Vibrational hyperpolarizability contributions from mode   8       0.0000000       0.0000000       0.0000000
 Dipole derivatives wrt mode   9:  1.56536D+00  8.59298D-02  4.15768D+00
 Vibrational polarizability contributions from mode   9       0.0902797       0.0002721       0.6368924
 Vibrational hyperpolarizability contributions from mode   9       0.0000000       0.0000000       0.0000000
 Dipole derivatives wrt mode  10:  3.64197D-01  1.81078D+00 -2.35386D+00
 Vibrational polarizability contributions from mode  10       0.0045027       0.1113103       0.1880901
 Vibrational hyperpolarizability contributions from mode  10       0.0000000       0.0000000       0.0000000
 Dipole derivatives wrt mode  11:  7.28414D-01  1.27594D+00  8.24604D-01
 Vibrational polarizability contributions from mode  11       0.0164369       0.0504342       0.0210647
 Vibrational hyperpolarizability contributions from mode  11       0.0000000       0.0000000       0.0000000
 Dipole derivatives wrt mode  12:  1.38256D+00  7.53158D+00 -5.09452D+00
 Vibrational polarizability contributions from mode  12       0.0557632       1.6548307       0.7571611
 Vibrational hyperpolarizability contributions from mode  12       0.0000000       0.0000000       0.0000000
 Dipole derivatives wrt mode  13: -7.87698D+00  5.75082D+00  1.35534D+00
 Vibrational polarizability contributions from mode  13       1.6989545       0.9055709       0.0502993
 Vibrational hyperpolarizability contributions from mode  13       0.0000000       0.0000000       0.0000000
 Dipole derivatives wrt mode  14: -4.55459D+00  2.57070D+00 -2.64078D+00
 Vibrational polarizability contributions from mode  14       0.4666778       0.1486694       0.1568858
 Vibrational hyperpolarizability contributions from mode  14       0.0000000       0.0000000       0.0000000
 Dipole derivatives wrt mode  15:  4.65125D+00 -1.54095D+00 -1.93009D-01
 Vibrational polarizability contributions from mode  15       0.4601958       0.0505101       0.0007924
 Vibrational hyperpolarizability contributions from mode  15       0.0000000       0.0000000       0.0000000
 Dipole derivatives wrt mode  16: -4.41132D+00  3.67524D+00 -1.87860D+00
 Vibrational polarizability contributions from mode  16       0.4003543       0.2778935       0.0726062
 Vibrational hyperpolarizability contributions from mode  16       0.0000000       0.0000000       0.0000000
 Dipole derivatives wrt mode  17: -9.20427D+00  4.84801D+00 -3.96922D+00
 Vibrational polarizability contributions from mode  17       1.6764298       0.4650860       0.3117574
 Vibrational hyperpolarizability contributions from mode  17       0.0000000       0.0000000       0.0000000
 Dipole derivatives wrt mode  18:  1.17901D+00 -1.55602D+00  1.23199D+00
 Vibrational polarizability contributions from mode  18       0.0268329       0.0467366       0.0292982
 Vibrational hyperpolarizability contributions from mode  18       0.0000000       0.0000000       0.0000000
 Dipole derivatives wrt mode  19:  2.67643D+00 -2.82931D+00  5.76346D-01
 Vibrational polarizability contributions from mode  19       0.1230971       0.1375620       0.0057083
 Vibrational hyperpolarizability contributions from mode  19       0.0000000       0.0000000       0.0000000
 Dipole derivatives wrt mode  20:  2.20901D+00 -5.44568D-01 -6.94654D-01
 Vibrational polarizability contributions from mode  20       0.0804497       0.0048892       0.0079555
 Vibrational hyperpolarizability contributions from mode  20       0.0000000       0.0000000       0.0000000
 Dipole derivatives wrt mode  21: -4.86838D-01 -6.87951D-01  1.60430D+00
 Vibrational polarizability contributions from mode  21       0.0036523       0.0072931       0.0396615
 Vibrational hyperpolarizability contributions from mode  21       0.0000000       0.0000000       0.0000000
 Dipole derivatives wrt mode  22: -1.95754D+00 -3.19684D-01  1.01760D+00
 Vibrational polarizability contributions from mode  22       0.0574083       0.0015311       0.0155135
 Vibrational hyperpolarizability contributions from mode  22       0.0000000       0.0000000       0.0000000
 Dipole derivatives wrt mode  23: -3.20621D-02 -4.70397D-02 -6.63949D-01
 Vibrational polarizability contributions from mode  23       0.0000141       0.0000304       0.0060584
 Vibrational hyperpolarizability contributions from mode  23       0.0000000       0.0000000       0.0000000
 Dipole derivatives wrt mode  24: -1.31733D+00 -1.41602D+00  3.83441D-01
 Vibrational polarizability contributions from mode  24       0.0232858       0.0269055       0.0019729
 Vibrational hyperpolarizability contributions from mode  24       0.0000000       0.0000000       0.0000000
 Dipole derivatives wrt mode  25: -7.28546D+00  4.36000D+00 -2.46648D+00
 Vibrational polarizability contributions from mode  25       0.6746625       0.2416274       0.0773263
 Vibrational hyperpolarizability contributions from mode  25       0.0000000       0.0000000       0.0000000
 Dipole derivatives wrt mode  26: -1.57878D+00  2.72936D+00  1.31439D+00
 Vibrational polarizability contributions from mode  26       0.0298823       0.0893090       0.0207121
 Vibrational hyperpolarizability contributions from mode  26       0.0000000       0.0000000       0.0000000
 Dipole derivatives wrt mode  27: -1.44521D+00  1.13902D+00 -2.53819D+00
 Vibrational polarizability contributions from mode  27       0.0249847       0.0155194       0.0770654
 Vibrational hyperpolarizability contributions from mode  27       0.0000000       0.0000000       0.0000000
 Dipole derivatives wrt mode  28: -1.26748D+00  5.37986D-01 -1.47259D+00
 Vibrational polarizability contributions from mode  28       0.0183720       0.0033099       0.0247993
 Vibrational hyperpolarizability contributions from mode  28       0.0000000       0.0000000       0.0000000
 Dipole derivatives wrt mode  29: -3.06079D+00  6.49225D+00 -2.91044D+00
 Vibrational polarizability contributions from mode  29       0.0277244       0.1247344       0.0250676
 Vibrational hyperpolarizability contributions from mode  29       0.0000000       0.0000000       0.0000000
 Dipole derivatives wrt mode  30: -4.69887D+00  1.15547D+00  6.63607D-01
 Vibrational polarizability contributions from mode  30       0.0650543       0.0039338       0.0012975
 Vibrational hyperpolarizability contributions from mode  30       0.0000000       0.0000000       0.0000000
 Dipole derivatives wrt mode  31: -2.07397D+00 -4.12511D+00 -5.88691D-01
 Vibrational polarizability contributions from mode  31       0.0125660       0.0497125       0.0010124
 Vibrational hyperpolarizability contributions from mode  31       0.0000000       0.0000000       0.0000000
 Dipole derivatives wrt mode  32: -4.10311D+00 -2.76138D+00 -3.41842D+00
 Vibrational polarizability contributions from mode  32       0.0489411       0.0221667       0.0339703
 Vibrational hyperpolarizability contributions from mode  32       0.0000000       0.0000000       0.0000000
 Dipole derivatives wrt mode  33: -3.71472D+00 -5.48364D+00 -1.65091D+00
 Vibrational polarizability contributions from mode  33       0.0393893       0.0858348       0.0077799
 Vibrational hyperpolarizability contributions from mode  33       0.0000000       0.0000000       0.0000000
 Dipole derivatives wrt mode  34: -7.56170D-01  5.15579D+00  3.48260D+00
 Vibrational polarizability contributions from mode  34       0.0016152       0.0750894       0.0342606
 Vibrational hyperpolarizability contributions from mode  34       0.0000000       0.0000000       0.0000000
 Dipole derivatives wrt mode  35:  2.72156D+00 -6.52923D-01  5.68691D+00
 Vibrational polarizability contributions from mode  35       0.0208974       0.0012028       0.0912455
 Vibrational hyperpolarizability contributions from mode  35       0.0000000       0.0000000       0.0000000
 Dipole derivatives wrt mode  36:  3.76422D+00  2.39405D+00  1.81075D+00
 Vibrational polarizability contributions from mode  36       0.0264781       0.0107103       0.0061271
 Vibrational hyperpolarizability contributions from mode  36       0.0000000       0.0000000       0.0000000
 Diagonal vibrational polarizability:
       12.1623997       8.5103392      20.5317609
 Harmonic frequencies (cm**-1), IR intensities (KM/Mole), Raman scattering
 activities (A**4/AMU), depolarization ratios for plane and unpolarized
 incident light, reduced masses (AMU), force constants (mDyne/A),
 and normal coordinates:
                           1         2         3         4         5
                           A         A         A         A         A
       Frequencies ---   104.0336  212.6323  265.4426  307.6697  365.3513
    Reduced masses ---     3.0947    1.1315    2.3449    1.8954    1.5250
   Force constants ---     0.0197    0.0301    0.0973    0.1057    0.1199
    IR Intensities ---     1.3014    0.1232    3.3454   19.1272   60.2613
 Coord Atom Element:
   1     1     8          0.09731   0.03719   0.12265  -0.03560   0.04171
   2     1     8          0.12517  -0.01350   0.04167   0.07014  -0.06028
   3     1     8          0.00409  -0.04963  -0.06147   0.07645  -0.02192
   1     2     1          0.08748   0.07185   0.11917  -0.39538  -0.29247
   2     2     1          0.22044  -0.01167   0.11284   0.05319  -0.25269
   3     2     1         -0.17407  -0.09502  -0.19731   0.54311   0.76271
   1     3     6         -0.00874   0.01199   0.05610   0.02350   0.05069
   2     3     6         -0.05380  -0.00598  -0.05381  -0.04300   0.02252
   3     3     6          0.04678   0.00535  -0.02266  -0.12641   0.03396
   1     4     1          0.02469   0.00050   0.13594   0.19378   0.02774
   2     4     1         -0.15890   0.00467  -0.05893  -0.06444   0.03548
   3     4     1          0.19764  -0.00365  -0.08140  -0.22196   0.03746
   1     5     8         -0.16583   0.00123   0.05365  -0.00214  -0.07180
   2     5     8         -0.14895   0.01276   0.02188   0.02770   0.02171
   3     5     8         -0.10430   0.02797   0.08073  -0.07088  -0.03245
   1     6     6          0.10675  -0.01657  -0.06471   0.04863  -0.07820
   2     6     6          0.04839  -0.01631  -0.10761   0.01337  -0.03848
   3     6     6          0.15101   0.02627   0.00523   0.04288   0.00772
   1     7     1          0.40179  -0.04443  -0.22094   0.11624  -0.16171
   2     7     1         -0.06040  -0.00852  -0.05436  -0.05095   0.01489
   3     7     1          0.23453   0.02905  -0.02014   0.21519  -0.09778
   1     8     1          0.02157  -0.01695  -0.04078   0.05362  -0.16026
   2     8     1          0.35622  -0.03674  -0.25226   0.18880  -0.17658
   3     8     1          0.28345   0.02469  -0.03798   0.05034   0.09675
   1     9     6          0.02370  -0.00184  -0.03104   0.00235   0.06977
   2     9     6         -0.02741  -0.01763  -0.10897  -0.12720   0.01936
   3     9     6          0.07261   0.02158  -0.00594  -0.09393   0.05936
   1    10     1         -0.04857  -0.01754  -0.00279   0.09080   0.02781
   2    10     1         -0.16165  -0.00765  -0.11454  -0.22863   0.07021
   3    10     1          0.15807   0.02533  -0.01753  -0.09583   0.06391
   1    11     6         -0.05275  -0.03212  -0.14629  -0.02144   0.04002
   2    11     6          0.03462   0.03129   0.15205   0.01663   0.05447
   3    11     6         -0.14392  -0.01536   0.02010   0.08906  -0.06889
   1    12     1         -0.19886  -0.17673  -0.34726  -0.04410  -0.10347
   2    12     1         -0.04817   0.37548   0.00000   0.14893  -0.00705
   3    12     1         -0.22898   0.42171  -0.14569   0.25311  -0.13005
   1    13     1          0.03104   0.20875  -0.36229  -0.15100   0.12220
   2    13     1          0.17326  -0.43387   0.49019  -0.10795   0.16804
   3    13     1         -0.24185   0.03992   0.00096   0.20605  -0.15569
   1    14     1         -0.05270  -0.17636   0.13513   0.10339   0.03812
   2    14     1          0.03496   0.23286   0.27746   0.17742   0.07084
   3    14     1         -0.14422  -0.54887   0.23243   0.01411  -0.09725
                           6         7         8         9        10
                           A         A         A         A         A
       Frequencies ---   462.7712  560.7503  708.6631  854.6436  890.3589
    Reduced masses ---     2.5203    3.4227    4.3339    1.9670    2.2673
   Force constants ---     0.3180    0.6341    1.2824    0.8465    1.0590
    IR Intensities ---    35.0621   10.7927    3.9373   19.7441    8.9523
 Coord Atom Element:
   1     1     8         -0.12207  -0.12834   0.08548  -0.07271  -0.00282
   2     1     8         -0.01193   0.20536  -0.01974   0.03388  -0.00038
   3     1     8          0.15682  -0.14206  -0.00265  -0.05465   0.00417
   1     2     1          0.24304  -0.57250  -0.11343   0.12175   0.04815
   2     2     1          0.13884   0.30338   0.09248  -0.12741  -0.03159
   3     2     1         -0.58268   0.19364   0.01917   0.02633   0.00440
   1     3     6          0.00052  -0.16286  -0.06914  -0.00214  -0.02159
   2     3     6         -0.01091  -0.05544  -0.17821   0.13209   0.04110
   3     3     6         -0.08173  -0.03040   0.02997   0.14615   0.02426
   1     4     1          0.02050  -0.22631   0.08919  -0.18162  -0.00461
   2     4     1          0.00554  -0.03679  -0.24906   0.15004   0.03588
   3     4     1         -0.12298  -0.01957   0.00800   0.26020   0.01706
   1     5     8         -0.03195   0.10298  -0.12406   0.04000  -0.07252
   2     5     8          0.06694  -0.07978  -0.03603  -0.01186  -0.00417
   3     5     8         -0.04781   0.12631   0.24267  -0.03872   0.08233
   1     6     6         -0.09404   0.06876  -0.12736  -0.02620   0.02104
   2     6     6         -0.05270  -0.09894   0.10627  -0.09349   0.15372
   3     6     6          0.06915   0.01082  -0.00353   0.01354  -0.17566
   1     7     1         -0.23906  -0.04857  -0.02708   0.03056   0.15286
   2     7     1          0.01105  -0.01514   0.01185  -0.22303   0.15987
   3     7     1         -0.01932  -0.18838   0.25591   0.43142  -0.32048
   1     8     1         -0.17998   0.03898   0.00671   0.06417   0.06477
   2     8     1         -0.24438  -0.33318   0.35928   0.20777   0.17682
   3     8     1          0.16220   0.02579  -0.15762  -0.06733  -0.24092
   1     9     6          0.14133   0.06893  -0.03523  -0.00244   0.09135
   2     9     6         -0.07296  -0.00813   0.00360  -0.09434  -0.12821
   3     9     6          0.01740   0.09038  -0.23725  -0.05692   0.04898
   1    10     1          0.26019   0.18779   0.03431  -0.25116   0.19176
   2    10     1         -0.18417  -0.10558   0.05473   0.17006  -0.12729
   3    10     1         -0.00600   0.06642  -0.29079  -0.03088  -0.00202
   1    11     6          0.12559   0.09024   0.21823   0.08225   0.00162
   2    11     6          0.05797   0.01330   0.09863  -0.02609  -0.10431
   3    11     6         -0.07078  -0.02944  -0.09580  -0.04455   0.04869
   1    12     1         -0.08358   0.00955   0.44429  -0.10576  -0.60969
   2    12     1          0.03673  -0.03531   0.16888   0.08024  -0.14085
   3    12     1         -0.07659  -0.08004  -0.03593   0.10439   0.06698
   1    13     1          0.19125   0.25966   0.04638  -0.22352   0.02352
   2    13     1          0.14911   0.04670  -0.01416   0.07418   0.20749
   3    13     1         -0.14186  -0.13160   0.03832   0.07984  -0.08583
   1    14     1          0.16738  -0.02087   0.29261   0.45200   0.22848
   2    14     1          0.15023  -0.04066   0.10058   0.29311   0.24058
   3    14     1         -0.15731  -0.10883   0.00442  -0.01539  -0.17221
                          11        12        13        14        15
                           A         A         A         A         A
[...]
     41  0.248600D-03  0.385021D-03  0.454201D-03  0.882035D-03  0.484808D-04
     42  0.144264D-02  0.202368D-03 -0.447548D-03  0.226669D-03  0.614798D-05
               36            37            38            39            40
     36  0.160764D+00
     37 -0.154214D-01  0.591610D+00
     38 -0.187173D-02 -0.230850D+00  0.249271D+00
     39  0.148535D-02 -0.819302D-01  0.709958D-02  0.560751D+00
     40  0.464132D-03 -0.453759D-02  0.559771D-03 -0.150448D+00  0.160355D+00
     41  0.442151D-03  0.605620D-02  0.943673D-03 -0.232522D+00 -0.166170D-01
     42 -0.279128D-03 -0.347956D-02  0.463641D-03 -0.920902D-01  0.942325D-02
               41            42
     41  0.250912D+00
     42 -0.112777D-01  0.959400D-01
 Final forces over variables, Energy=-3.07739938D+02:
 -3.20083548D-06 2.00267877D-06 1.44470908D-06 4.28096558D-06
  3.21230312D-06-1.23004486D-06-9.70477602D-07 2.38759549D-06
  5.01415796D-07-4.11327206D-06-1.90389862D-06-1.86883983D-06
  1.76749164D-06-2.30979108D-06-2.05882402D-06 6.76985256D-06
 -8.36998968D-08 5.63333479D-07 1.36390587D-06-1.64971610D-08
  3.62267771D-08-3.72473344D-07 1.07714135D-06-3.02275143D-07
 -1.59455981D-06-1.06908528D-06-1.51179851D-06-2.80124694D-06
  1.83427548D-06 7.79318626D-06 9.66682970D-07 1.43743043D-06
  3.95971447D-06-5.34352352D-07 1.12258193D-06-1.22390433D-06
 -3.05414842D-07 7.80558631D-08-3.02787511D-06-3.46503767D-06
 -3.60152223D-06-5.03382071D-06

 GradGradGradGradGradGradGradGradGradGradGradGradGradGradGradGradGradGrad
 Berny optimization.
 Search for a local minimum.
 Step number   1 out of a maximum of   2
 All quantities printed in internal units (Hartrees-Bohrs-Radians)
 Second derivative matrix not updated -- analytic derivatives used.
     Eigenvalues ---    0.00150   0.00198   0.00594   0.00742   0.01126
     Eigenvalues ---    0.02807   0.03928   0.04550   0.04664   0.05660
     Eigenvalues ---    0.05863   0.06850   0.08207   0.09993   0.10256
     Eigenvalues ---    0.11506   0.12056   0.14094   0.15234   0.20357
     Eigenvalues ---    0.22040   0.23536   0.25281   0.38031   0.47425
     Eigenvalues ---    0.49114   0.56288   0.66627   0.67840   0.72890
     Eigenvalues ---    0.74488   0.77096   0.79484   0.85436   0.92352
     Eigenvalues ---    1.02763
 Angle between quadratic step and forces=  80.94 degrees.
 Linear search not attempted -- first point.
 TrRot= -0.000017 -0.000004  0.000008 -0.000001 -0.000010 -0.000001
 Variable       Old X    -DE/DX   Delta X   Delta X   Delta X     New X
                                 (Linear)    (Quad)   (Total)
    X1       -6.26395   0.00000   0.00000   0.00004   0.00005  -6.26391
    Y1        5.50882   0.00000   0.00000   0.00003   0.00004   5.50886
    Z1       -1.45323   0.00000   0.00000  -0.00007  -0.00012  -1.45334
    X2       -7.13582   0.00000   0.00000  -0.00008  -0.00008  -7.13590
    Y2        4.07812   0.00001   0.00000   0.00001   0.00002   4.07814
    Z2       -2.17329   0.00001   0.00000   0.00016   0.00010  -2.17319
    X3       -4.09063   0.00000   0.00000   0.00000  -0.00001  -4.09064
    Y3        4.61159   0.00000   0.00000  -0.00001  -0.00001   4.61157
    Z3       -0.30206   0.00000   0.00000  -0.00001  -0.00004  -0.30210
    X4       -3.27539   0.00000   0.00000   0.00001   0.00000  -3.27540
    Y4        6.23869   0.00000   0.00000  -0.00006  -0.00006   6.23863
    Z4        0.68559   0.00000   0.00000   0.00007   0.00004   0.68563
    X5       -4.54399   0.00000   0.00000  -0.00011  -0.00013  -4.54412
    Y5        2.52401   0.00000   0.00000  -0.00005  -0.00005   2.52396
    Z5        1.39498   0.00000   0.00000  -0.00008  -0.00012   1.39486
    X6       -2.47328   0.00000   0.00000   0.00001  -0.00001  -2.47329
    Y6        1.09084   0.00000   0.00000   0.00001   0.00001   1.09086
    Z6        0.31051   0.00000   0.00000   0.00004   0.00003   0.31054
    X7       -3.05260   0.00000   0.00000   0.00012   0.00010  -3.05250
    Y7       -0.82582   0.00000   0.00000  -0.00002  -0.00003  -0.82585
    Z7       -0.19711   0.00000   0.00000   0.00007   0.00005  -0.19706
    X8       -0.85497   0.00000   0.00000  -0.00004  -0.00007  -0.85504
    Y8        1.00271   0.00000   0.00000   0.00012   0.00012   1.00283
    Z8        1.59924   0.00000   0.00000   0.00012   0.00012   1.59936
    X9       -2.17271   0.00000   0.00000   0.00003   0.00004  -2.17267
    Y9        3.02738   0.00000   0.00000   0.00000   0.00000   3.02738
    Z9       -1.84361   0.00000   0.00000   0.00003   0.00002  -1.84360
   X10       -3.06216   0.00000   0.00000   0.00000   0.00002  -3.06214
   Y10        2.36272   0.00000   0.00000  -0.00002  -0.00002   2.36269
   Z10       -3.58868   0.00000   0.00000   0.00005   0.00003  -3.58865
   X11        0.41471   0.00000   0.00000   0.00002   0.00003   0.41474
   Y11        4.14702   0.00000   0.00000   0.00000   0.00000   4.14702
   Z11       -2.39009   0.00000   0.00000  -0.00002  -0.00001  -2.39010
   X12        0.26606   0.00000   0.00000  -0.00005  -0.00003   0.26603
   Y12        5.74593   0.00000   0.00000   0.00010   0.00009   5.74602
   Z12       -3.69156   0.00000   0.00000   0.00010   0.00011  -3.69145
   X13        1.31550   0.00000   0.00000   0.00016   0.00015   1.31565
   Y13        4.82088   0.00000   0.00000  -0.00014  -0.00014   4.82074
   Z13       -0.65528   0.00000   0.00000  -0.00004  -0.00002  -0.65529
   X14        1.67271   0.00000   0.00000  -0.00007  -0.00006   1.67265
   Y14        2.75159   0.00000   0.00000   0.00005   0.00004   2.75163
   Z14       -3.25166  -0.00001   0.00000  -0.00023  -0.00020  -3.25186
         Item               Value     Threshold  Converged?
 Maximum Force            0.000008     0.000450     YES
 RMS     Force            0.000003     0.000300     YES
 Maximum Displacement     0.000203     0.001800     YES
 RMS     Displacement     0.000075     0.001200     YES
 Predicted change in Energy=-7.035086D-10
 Optimization completed.
    -- Stationary point found.
 GradGradGradGradGradGradGradGradGradGradGradGradGradGradGradGradGradGrad


 Test job not archived.
 1\1\GINC-NODE34\Freq\RB3LYP\CBSB7\C4H8O2\NYEE\15-Jul-2014\0\\# freq no
 symm b3lyp/cbsb7 iop(7/33=1)\\Title Card Required\\0,1\O,-3.314741,2.9
 15141,-0.769014\H,-3.776114,2.158048,-1.150055\C,-2.164669,2.440347,-0
 .159844\H,-1.733264,3.301375,0.362798\O,-2.404576,1.335651,0.738192\C,
 -1.308804,0.57725,0.164317\H,-1.615367,-0.437005,-0.104307\H,-0.45243,
 0.53061,0.846281\C,-1.149746,1.602022,-0.975599\H,-1.620423,1.250296,-
 1.899048\C,0.219457,2.19451,-1.26478\H,0.140793,3.040613,-1.953487\H,0
 .69613,2.5511,-0.346757\H,0.88516,1.45608,-1.720702\\Version=AM64L-G03
 RevD.01\HF=-307.7399382\RMSD=7.973e-09\RMSF=2.667e-06\ZeroPoint=0.1195
 457\Thermal=0.1258475\Dipole=0.6369247,-0.4681511,-0.6310462\DipoleDer
 iv=-1.0043179,0.3590999,-0.1337683,0.2645658,-0.4239139,0.1220555,-0.2
 11429,0.2250028,-0.5589157,0.3456964,-0.0042337,-0.0221985,-0.0769286,
 0.136359,-0.0762806,-0.0188531,-0.0581515,0.2966993,0.9953579,-0.23914
 26,0.1618636,-0.3852227,0.9786387,-0.2208045,0.2791158,-0.3589636,0.70
 77742,-0.0444452,-0.0612322,-0.0445826,-0.03759,-0.1440088,-0.0508344,
 -0.040724,-0.0692021,-0.0210945,-0.6317996,0.1069672,0.1032791,0.26215
 64,-0.854565,0.2088183,0.1268209,0.2141288,-0.6117228,0.4640345,-0.237
 1577,0.0718923,-0.1508797,0.5034395,0.067365,-0.051284,0.1560823,0.241
 1405,0.0056917,-0.062041,-0.0050842,-0.0211183,-0.1966676,-0.007915,-0
 .0018958,-0.0611368,0.025338,-0.1413516,0.0666033,-0.1097815,0.0056692
 ,0.0058961,-0.0139438,-0.0966735,0.0178679,-0.0512982,0.0436518,0.1197
 372,0.0132128,0.1827429,-0.0467724,-0.0255325,0.0721642,-0.0424355,0.0
 546831,-0.05614,-0.0549708,-0.0881043,-0.0435558,0.0176494,-0.0307052,
 -0.0613629,-0.0279083,-0.1006186,0.0444665,-0.0332874,0.0208408,-0.024
 3838,0.0853806,0.0175648,0.0203685,0.0177072,0.0974745,0.0335743,0.018
 9651,-0.0107347,-0.0315182,-0.0623444,0.1182606,0.0088242,0.1066435,-0
 .013946,0.004072,-0.0312481,-0.0282146,-0.0413279,0.0404647,-0.0385793
 ,-0.0919313,-0.0664876,-0.1005128,-0.0584907,0.0519406,0.07138,0.09739
 07,-0.0395559,-0.0694689,0.06686,-0.053147,0.034999\Polar=53.6121456,-
 1.3356161,51.562755,0.5821387,-1.9957527,46.3656439\PG=C01 [X(C4H8O2)]
 \NImag=0\\0.38690034,0.09256580,0.46660765,0.19987828,0.11205114,0.189
 19246,-0.13144158,-0.14236681,-0.09258133,0.15767823,-0.18581118,-0.34
 009848,-0.15853583,0.17268539,0.32826880,-0.09585617,-0.13327577,-0.08
 361046,0.11291674,0.15030738,0.09317509,-0.21182009,0.01628963,-0.0654
 8245,-0.02696030,0.01031159,-0.01763124,0.53285834,0.05400270,-0.11109
 525,0.01405680,-0.03474053,0.01037854,-0.01766023,0.01976883,0.5805425
 4,-0.05895797,-0.00338143,-0.09651158,-0.02146257,0.00585960,-0.013684
 46,0.07287856,0.10327884,0.43934066,-0.02663785,-0.02154718,-0.0248380
 3,-0.00403461,0.00146151,-0.00485125,-0.08380294,-0.06470841,-0.038458
 62,0.10401013,0.00577291,0.01135414,0.00513065,0.00354068,0.00150766,0
 .00146390,-0.07598342,-0.20222652,-0.10293939,0.07821553,0.22314882,-0
 .01500980,-0.01149508,-0.00854643,-0.00280604,0.00121912,0.00000143,-0
 .04383527,-0.09997504,-0.11538246,0.05717662,0.10018447,0.12041383,0.0
 0899057,0.03118929,-0.02406069,0.00321072,-0.00111296,0.00521319,-0.08
 542752,-0.01589811,0.01149283,0.00394123,-0.00740294,0.00841672,0.2553
 3057,0.01928036,-0.01915141,0.02663439,0.00160235,0.00005999,-0.002651
 68,-0.05278391,-0.11227318,0.05443732,-0.00708174,-0.02609769,0.025249
 69,-0.05710050,0.27309420,-0.01271705,0.02371504,-0.01160153,0.0023596
 2,-0.00027320,0.00156178,0.03692738,0.02118943,-0.10677380,-0.00103992
 ,0.00282934,0.01073890,-0.12570883,-0.06334017,0.24234499,-0.00171069,
 0.00053408,0.00292421,0.00030190,0.00162364,-0.00207776,-0.01052825,0.
 03834610,-0.00888849,-0.00174387,-0.00341377,0.00303057,-0.13158108,0.
 05221467,0.02889569,0.48401755,0.00077681,-0.00176374,-0.00272618,0.00
 000625,-0.00069304,0.00076455,0.04901102,-0.08005226,0.01900285,-0.001
 57034,-0.00006326,-0.00045638,0.02723674,-0.09039187,-0.01063186,0.023
 66858,0.59883684,-0.00040456,0.00448350,-0.00543832,-0.00034014,-0.000
 06272,0.00158573,-0.00732060,0.01330293,0.00916550,0.00042938,0.000702
 62,-0.00157127,0.04979308,-0.04022777,-0.08655512,0.11905626,0.0030948
 4,0.44853999,-0.00005175,0.00042576,-0.00068434,-0.00003364,0.00008119
 ,0.00019569,-0.00197376,0.00093087,0.00422322,0.00046064,0.00104415,-0
 .00091598,0.00541939,0.03106087,0.00742423,-0.07950578,-0.08177891,-0.
 02191805,0.08074571,0.00053865,-0.00086901,0.00019409,-0.00012138,0.00
 005140,-0.00018460,0.00030923,-0.00060976,-0.00131279,-0.00015365,-0.0
 0091766,0.00012438,0.00708316,-0.01495391,-0.00454220,-0.07653536,-0.2
 6319371,-0.05824245,0.07409368,0.28869990,-0.00080462,0.00012324,0.000
 59475,0.00005887,0.00026803,-0.00025417,0.00069739,0.00261883,-0.00539
 996,-0.00065501,-0.00018916,0.00091052,0.00140779,-0.01539009,0.000029
 80,-0.02128287,-0.05568764,-0.06834951,0.02216529,0.06555200,0.0660043
 4,-0.00010611,0.00195489,-0.00236080,0.00013654,-0.00020018,0.00067911
 ,-0.00355711,-0.00488625,0.00374878,0.00016268,0.00079562,-0.00027727,
 -0.02491837,0.01463699,-0.00741500,-0.19107580,-0.00253995,-0.12426977
 ,-0.00518723,-0.00131044,-0.00901636,0.21580224,0.00079374,-0.00153134
 ,0.00077502,-0.00031435,-0.00009115,-0.00030480,0.00115658,0.00183446,
 -0.00088486,-0.00002218,-0.00042216,-0.00016941,0.01903762,-0.00320890
 ,0.00889572,-0.00239671,-0.05378471,0.00060499,-0.02308015,0.00172609,
 -0.01909183,-0.00836777,0.05554864,-0.00071092,-0.00054758,0.00180062,
 0.00029354,-0.00002689,-0.00039960,0.00239870,0.00122866,-0.00284371,-
 0.00026762,0.00015657,0.00006365,0.01587581,-0.00269206,0.01577599,-0.
 12704826,0.00266724,-0.15688237,-0.00663502,0.00064274,-0.00309782,0.1
 3328616,-0.00263773,0.16076383,-0.02475869,0.01914125,0.00646641,0.001
 29454,0.00106379,0.00106889,-0.09937683,0.01300579,0.02040181,0.007552
 12,-0.00413412,-0.00672426,-0.03328773,0.00172510,0.06727886,-0.064048
 52,-0.01359386,-0.01738011,-0.00078407,-0.00435912,0.00703792,0.006810
 71,0.01255890,-0.01733453,0.51048703,0.01121918,-0.00427869,0.00093615
 ,-0.00158202,0.00061469,0.00190781,0.03226890,-0.08743242,-0.06058580,
 0.01293792,-0.00626023,-0.01345407,-0.00121217,-0.01313478,0.02455949,
 -0.02664787,-0.10821106,0.05816066,-0.00260480,-0.00971594,0.02057224,
 -0.00008692,0.00023823,-0.00148647,0.06591214,0.40794198,-0.01736101,0
 .00689079,0.01025217,-0.00064736,0.00209140,0.00264339,0.02052741,-0.0
 4308749,-0.09286282,0.01122316,-0.00734481,-0.00716038,0.04868790,0.01
 777316,-0.05774339,-0.00478241,0.04418216,-0.12639617,-0.00519750,-0.0
 0381574,0.00981957,0.00416810,0.01168641,-0.01542137,0.00951890,0.0302
 3820,0.59161024,0.00326878,-0.00065598,-0.00000519,-0.00065729,-0.0003
 2856,0.00002325,0.00773318,0.00787494,0.01704092,-0.00176088,0.0011961
 9,0.00152885,-0.00162280,-0.00182897,-0.00040907,-0.00198285,-0.000108
 29,-0.00041410,0.00085647,0.00001498,0.00062468,0.00039676,0.00058651,
 -0.00039113,-0.09365564,-0.03506432,-0.09151882,0.10466220,-0.00222151
 ,0.00287042,0.00274104,0.00144457,0.00043618,-0.00016807,-0.01196236,-
 0.01138323,-0.02035383,0.00272992,-0.00112888,-0.00221022,-0.00042229,
 0.00049260,0.00012922,0.01338288,0.00785967,0.02271261,0.00049691,0.00
 137650,-0.00123952,-0.00096543,-0.00201901,0.00395122,-0.03571423,-0.0
 7296457,-0.07088867,0.04105037,0.07828489,0.00019378,0.00146091,0.0032
 8263,0.00151328,-0.00055597,-0.00048863,-0.00962348,-0.00334070,-0.012
 85522,0.00150262,-0.00011542,-0.00080512,0.00412826,0.00119818,-0.0003
 2672,-0.00926250,-0.00708295,-0.01579811,0.00007500,0.00032615,0.00137
 486,0.00146518,0.00147039,-0.00187173,-0.09186236,-0.07114784,-0.23085
 006,0.09766727,0.07492549,0.24927143,-0.00112299,0.00059295,0.00055009
 ,-0.00004159,0.00028679,0.00020427,-0.01816345,-0.00698654,0.00245138,
 0.00190209,-0.00110771,-0.00155633,0.00048602,-0.00194724,0.00129720,0
 .00118022,-0.00079036,0.00557660,0.00009174,0.00118032,-0.00139215,0.0
 0070860,0.00060896,-0.00093857,-0.17830009,-0.04146951,0.01671422,-0.0
 1418069,-0.00604519,0.00360639,0.48823186,0.00438157,-0.00302068,-0.00
 107781,-0.00043575,-0.00034821,-0.00014360,0.01225891,0.01339399,0.006
 70257,0.00010817,0.00065249,0.00022836,-0.00108700,0.00553506,-0.00404
 753,-0.01942458,-0.01067722,-0.00105160,-0.00095919,-0.00147643,0.0020
 9577,0.00026508,0.00198456,-0.00184931,-0.04026175,-0.10295894,0.00816
 010,-0.01105014,-0.00425818,0.00254028,-0.03276133,0.54507010,0.000780
 33,0.00005777,0.00043193,0.00064600,-0.00020686,-0.00046822,0.01045831
 ,0.00747554,-0.00357160,0.00019108,-0.00025827,0.00103255,0.00491843,-
 0.00070551,-0.00741846,0.01855486,0.00613016,-0.00102354,0.00064917,0.
 00109760,-0.00132823,0.00021011,0.00029554,0.00148535,0.01547107,0.007
 61556,-0.08193022,-0.02617810,-0.01065021,0.00709958,0.01622407,0.0072
 9002,0.56075096,0.00002226,0.00026488,-0.00060225,-0.00007738,-0.00010
 180,0.00007168,0.00125342,-0.00045978,0.00107760,0.00001041,0.00045089
 ,0.00016479,-0.00078934,0.00135969,0.00073189,-0.00456316,-0.00166154,
 -0.00204633,-0.00026313,-0.00056448,0.00091094,0.00017376,0.00010108,0
 .00011052,0.00329972,-0.02616493,0.02141157,0.00116390,0.00034637,-0.0
 0059940,-0.04865185,0.01741232,-0.01492303,0.05228254,-0.00061662,0.00
 040513,-0.00032423,0.00004679,-0.00005248,0.00009467,0.00026477,-0.000
 22703,0.00053017,-0.00022179,0.00016377,0.00020603,-0.00077688,0.00074
 361,0.00045132,-0.00134151,0.00068599,-0.00193146,-0.00001659,-0.00023
 989,0.00036258,0.00007998,0.00010333,-0.00013469,0.00087621,-0.0102357
 7,0.00815873,-0.00002206,0.00002447,-0.00037190,0.01679234,-0.20138573
 ,0.12617023,-0.01636139,0.21759851,0.00029107,-0.00031771,0.00016401,-
 0.00006560,0.00001422,0.00001482,-0.00070606,0.00114867,-0.00031178,0.
 00017224,-0.00029065,-0.00028262,0.00033246,-0.00084737,-0.00003909,0.
 00042610,0.00098841,0.00161448,0.00043689,0.00019297,-0.00035877,0.000
 12703,-0.00035558,0.00046413,0.00016094,0.00363500,-0.00453759,0.00038
 891,-0.00022775,0.00055977,-0.01458547,0.12605332,-0.15044816,0.014591
 83,-0.14014773,0.16035456,0.00015584,0.00058580,0.00052532,0.00040162,
 -0.00003123,-0.00004433,0.00065270,-0.00133668,-0.00231251,-0.00019163
 ,0.00084805,0.00077007,0.00044458,0.00040415,0.00017079,0.00105646,0.0
 0081594,-0.00108967,0.00031046,0.00007367,0.00009677,0.00046334,-0.000
 34354,0.00102766,-0.01535058,-0.01023208,-0.02608176,-0.00512495,-0.00
 236243,0.00190671,-0.09298002,-0.03456953,-0.09138817,-0.00191718,-0.0
 0034464,-0.00194137,0.10305200,0.00005664,0.00003878,0.00009903,0.0001
 6849,-0.00008399,-0.00014967,0.00107402,0.00083805,-0.00005371,-0.0000
 6058,0.00007217,0.00025913,0.00046820,-0.00066523,0.00031664,-0.000771
 03,0.00071915,-0.00143672,0.00029564,0.00008589,0.00017018,0.00043454,
 -0.00035848,0.00076899,-0.00631145,-0.00523576,-0.01103583,-0.00256806
 ,-0.00019816,0.00082215,-0.03484458,-0.07396085,-0.06981015,0.01102146
 ,0.00942333,0.02145770,0.04116480,0.07665199,-0.00001563,0.00020830,0.
 00013027,0.00010853,-0.00006010,-0.00008655,0.00050949,-0.00062141,0.0
 0024860,-0.00036289,0.00034912,0.00038502,-0.00030914,0.00000945,0.000
 45420,0.00022885,0.00042238,0.00088203,0.00013429,-0.00004130,0.000048
 48,-0.00024892,-0.00034263,0.00044215,0.00244327,0.00257233,0.00605620
 ,0.00174051,0.00079325,0.00094367,-0.09262813,-0.07028961,-0.23252173,
 -0.00752801,-0.00708686,-0.01661701,0.10112746,0.07733611,0.25091233,-
 0.00168802,0.00102563,0.00027077,0.00022285,0.00007202,0.00008792,-0.0
 0088737,-0.00491296,-0.00323493,0.00013247,0.00017794,0.00003733,-0.00
 019625,-0.00154183,0.00220422,0.00018387,0.00052790,0.00032799,-0.0000
 8504,-0.00024929,0.00015137,0.00018999,-0.00031871,0.00033366,-0.01988
 196,0.02272648,0.01333759,0.00090381,0.00024241,-0.00071074,-0.1391598
 5,0.10612321,0.06438585,-0.00194397,0.00164140,0.00037104,0.00902737,-
 0.01012809,-0.00519970,0.15318210,-0.00073907,0.00053249,0.00004573,0.
 00006633,0.00005008,0.00000010,-0.00198380,-0.00168793,-0.00029955,-0.
 00008719,0.00021735,0.00028901,-0.00000217,-0.00004850,0.00074878,0.00
 076086,0.00072924,-0.00010943,0.00001056,0.00003652,-0.00016462,0.0001
 8984,-0.00001957,-0.00004071,-0.00990866,0.01163326,0.00699160,0.00090
 337,0.00060730,-0.00012878,0.10649110,-0.16854997,-0.07450142,0.014357
 24,-0.01700726,-0.01130351,0.00532771,-0.00732690,-0.00324903,-0.11538
 612,0.18083390,0.00069425,0.00002686,-0.00014049,0.00000645,-0.0000381
 8,0.00000985,0.00020187,0.00038516,0.00144264,-0.00022176,0.00032104,0
 .00020237,-0.00018781,0.00055247,-0.00044755,0.00022576,-0.00066757,0.
 00022667,0.00004710,0.00000914,0.00000615,-0.00009634,0.00005876,-0.00
 027913,0.00345319,-0.00352327,-0.00347956,-0.00009799,0.00048544,0.000
 46364,0.06447643,-0.07461097,-0.09209021,-0.01337181,0.01402315,0.0094
 2325,0.01723302,-0.01874387,-0.01127766,-0.07236236,0.08172185,0.09594
 003\\0.00000320,0.00000206,-0.00000183,-0.00000200,-0.00000677,-0.0000
 0779,-0.00000144,0.00000008,-0.00000097,-0.00000428,-0.00000056,-0.000
 00144,-0.00000321,-0.00000136,-0.00000396,0.00000123,0.00000002,0.0000
 0053,0.00000097,-0.00000004,-0.00000112,-0.00000239,0.00000037,0.00000
 122,-0.00000050,-0.00000108,0.00000031,0.00000411,0.00000030,-0.000000
 08,0.00000190,0.00000159,0.00000303,0.00000187,0.00000107,0.00000347,-
 0.00000177,0.00000151,0.00000360,0.00000231,0.00000280,0.00000503\\\@


 IT IS A PROFOUNDLY ERRONEOUS TRUISM ... THAT WE SHOULD CULTIVATE
 THE HABIT OF THINKING OF WHAT WE ARE DOING.
 THE PRECISE OPPOSITE IS THE CASE.
 CIVILIZATION ADVANCES BY EXTENDING THE NUMBER OF IMPORTANT OPERATIONS
 WHICH WE CAN PERFORM WITHOUT THINKING ABOUT THEM.

                                    -- ALFRED NORTH WHITEHEAD
 Job cpu time:  0 days  0 hours 26 minutes 32.9 seconds.
 File lengths (MBytes):  RWF=     39 Int=      0 D2E=      0 Chk=      7 Scr=      1
 Normal termination of Gaussian 03 at Tue Jul 15 16:54:20 2014.
