 Entering Gaussian System, Link 0=g03
 Input=TS11freq.gjf
 Output=TS11freq.log
 Initial command:
 /opt/g03/l1.exe /scratch/nyee/Gau-12856.inp -scrdir=/scratch/nyee/
 Entering Link 1 = /opt/g03/l1.exe PID=     12858.
  
 Copyright (c) 1988,1990,1992,1993,1995,1998,2003,2004, Gaussian, Inc.
                  All Rights Reserved.
  
 This is the Gaussian(R) 03 program.  It is based on the
 the Gaussian(R) 98 system (copyright 1998, Gaussian, Inc.),
 the Gaussian(R) 94 system (copyright 1995, Gaussian, Inc.),
 the Gaussian 92(TM) system (copyright 1992, Gaussian, Inc.),
 the Gaussian 90(TM) system (copyright 1990, Gaussian, Inc.),
 the Gaussian 88(TM) system (copyright 1988, Gaussian, Inc.),
 the Gaussian 86(TM) system (copyright 1986, Carnegie Mellon
 University), and the Gaussian 82(TM) system (copyright 1983,
 Carnegie Mellon University). Gaussian is a federally registered
 trademark of Gaussian, Inc.
  
 This software contains proprietary and confidential information,
 including trade secrets, belonging to Gaussian, Inc.
  
 This software is provided under written license and may be
 used, copied, transmitted, or stored only in accord with that
 written license.
  
 The following legend is applicable only to US Government
 contracts under FAR:
  
                    RESTRICTED RIGHTS LEGEND
  
 Use, reproduction and disclosure by the US Government is
 subject to restrictions as set forth in subparagraphs (a)
 and (c) of the Commercial Computer Software - Restricted
 Rights clause in FAR 52.227-19.
  
 Gaussian, Inc.
 340 Quinnipiac St., Bldg. 40, Wallingford CT 06492
  
  
 ---------------------------------------------------------------
 Warning -- This program may not be used in any manner that
 competes with the business of Gaussian, Inc. or will provide
 assistance to any competitor of Gaussian, Inc.  The licensee
 of this program is prohibited from giving any competitor of
 Gaussian, Inc. access to this program.  By using this program,
 the user acknowledges that Gaussian, Inc. is engaged in the
 business of creating and licensing software in the field of
 computational chemistry and represents and warrants to the
 licensee that it is not a competitor of Gaussian, Inc. and that
 it will not use this program in any manner prohibited above.
 ---------------------------------------------------------------
  

 Cite this work as:
 Gaussian 03, Revision D.01,
 M. J. Frisch, G. W. Trucks, H. B. Schlegel, G. E. Scuseria, 
 M. A. Robb, J. R. Cheeseman, J. A. Montgomery, Jr., T. Vreven, 
 K. N. Kudin, J. C. Burant, J. M. Millam, S. S. Iyengar, J. Tomasi, 
 V. Barone, B. Mennucci, M. Cossi, G. Scalmani, N. Rega, 
 G. A. Petersson, H. Nakatsuji, M. Hada, M. Ehara, K. Toyota, 
 R. Fukuda, J. Hasegawa, M. Ishida, T. Nakajima, Y. Honda, O. Kitao, 
 H. Nakai, M. Klene, X. Li, J. E. Knox, H. P. Hratchian, J. B. Cross, 
 V. Bakken, C. Adamo, J. Jaramillo, R. Gomperts, R. E. Stratmann, 
 O. Yazyev, A. J. Austin, R. Cammi, C. Pomelli, J. W. Ochterski, 
 P. Y. Ayala, K. Morokuma, G. A. Voth, P. Salvador, J. J. Dannenberg, 
 V. G. Zakrzewski, S. Dapprich, A. D. Daniels, M. C. Strain, 
 O. Farkas, D. K. Malick, A. D. Rabuck, K. Raghavachari, 
 J. B. Foresman, J. V. Ortiz, Q. Cui, A. G. Baboul, S. Clifford, 
 J. Cioslowski, B. B. Stefanov, G. Liu, A. Liashenko, P. Piskorz, 
 I. Komaromi, R. L. Martin, D. J. Fox, T. Keith, M. A. Al-Laham, 
 C. Y. Peng, A. Nanayakkara, M. Challacombe, P. M. W. Gill, 
 B. Johnson, W. Chen, M. W. Wong, C. Gonzalez, and J. A. Pople, 
 Gaussian, Inc., Wallingford CT, 2004.
 
 ******************************************
 Gaussian 03:  AM64L-G03RevD.01 13-Oct-2005
                 8-Jul-2014 
 ******************************************
 %chk=TS11freq.chk
 %mem=1000mb
 %nproc=8
 Will use up to    8 processors via shared memory.
 -------------------------------------
 # freq nosymm b3lyp/cbsb7 iop(7/33=1)
 -------------------------------------
 1/10=4,30=1,38=1/1,3;
 2/15=1,17=6,18=5,40=1/2;
 3/5=4,6=6,7=700,11=2,16=1,25=1,30=1,74=-5/1,2,3;
 4//1;
 5/5=2,38=5/2;
 8/6=4,10=90,11=11/1;
 11/6=1,8=1,9=11,15=111,16=1,31=1/1,2,10;
 10/6=1,31=1/2;
 6/7=2,8=2,9=2,10=2,18=1,28=1/1;
 7/8=1,10=1,25=1,30=1,33=1/1,2,3,16;
 1/10=4,30=1/3;
 99//99;
 -------------------
 Title Card Required
 -------------------
 Symbolic Z-matrix:
 Charge =  0 Multiplicity = 2
 O                     2.35808  -0.77021   0.60546 
 H                     2.51241   0.12608   0.94244 
 O                     0.92397  -0.8787    0.7806 
 C                     0.32984  -0.23399  -0.31945 
 H                     0.70757  -0.67116  -1.2474 
 O                     0.49445   1.17769  -0.29421 
 H                    -0.77573   1.17476  -0.04705 
 C                    -1.16819  -0.10765  -0.1345 
 C                    -1.77779  -0.54799   1.17683 
 H                    -1.86373  -1.64191   1.19638 
 H                    -1.16326  -0.25603   2.02774 
 H                    -2.77887  -0.12734   1.29489 
 C                    -1.99603  -0.27106  -1.38714 
 H                    -1.51751   0.20414  -2.24597 
 H                    -2.11812  -1.33732  -1.61918 
 H                    -2.99266   0.15881  -1.2632 
 

 GradGradGradGradGradGradGradGradGradGradGradGradGradGradGradGradGradGrad
 Berny optimization.
 Initialization pass.
 Trust Radius=3.00D-01 FncErr=1.00D-07 GrdErr=1.00D-07
 Number of steps in this run=   2 maximum allowed number of steps=   2.
 GradGradGradGradGradGradGradGradGradGradGradGradGradGradGradGradGradGrad

                          Input orientation:                          
 ---------------------------------------------------------------------
 Center     Atomic     Atomic              Coordinates (Angstroms)
 Number     Number      Type              X           Y           Z
 ---------------------------------------------------------------------
    1          8             0        2.358082   -0.770210    0.605460
    2          1             0        2.512410    0.126083    0.942440
    3          8             0        0.923974   -0.878698    0.780600
    4          6             0        0.329842   -0.233991   -0.319451
    5          1             0        0.707565   -0.671160   -1.247400
    6          8             0        0.494450    1.177694   -0.294206
    7          1             0       -0.775731    1.174762   -0.047050
    8          6             0       -1.168192   -0.107649   -0.134501
    9          6             0       -1.777791   -0.547991    1.176834
   10          1             0       -1.863729   -1.641910    1.196381
   11          1             0       -1.163260   -0.256025    2.027743
   12          1             0       -2.778873   -0.127336    1.294887
   13          6             0       -1.996032   -0.271056   -1.387139
   14          1             0       -1.517514    0.204142   -2.245966
   15          1             0       -2.118122   -1.337316   -1.619182
   16          1             0       -2.992659    0.158812   -1.263202
 ---------------------------------------------------------------------
                    Distance matrix (angstroms):
                    1          2          3          4          5
     1  O    0.000000
     2  H    0.969904   0.000000
     3  O    1.448830   1.886506   0.000000
     4  C    2.292760   2.546689   1.406681   0.000000
     5  H    2.483366   2.947620   2.050046   1.093106   0.000000
     6  O    2.841980   2.589854   2.359756   1.421474   2.090994
     7  H    3.745593   3.590361   2.791182   1.811375   2.654889
     8  C    3.663487   3.842039   2.410204   1.514686   2.252677
     9  C    4.181064   4.349154   2.750619   2.603763   3.474058
    10  H    4.351176   4.726614   2.920044   3.015251   3.677768
    11  H    3.832378   3.851550   2.509907   2.781934   3.794586
    12  H    5.222729   5.309060   3.813150   3.504507   4.349048
    13  C    4.814345   5.090256   3.687107   2.559496   2.736612
    14  H    4.909199   5.139291   4.036522   2.704837   2.591190
    15  H    5.030611   5.490471   3.901747   2.983145   2.926857
    16  H    5.743293   5.930574   4.538014   3.476201   3.792197
                    6          7          8          9         10
     6  O    0.000000
     7  H    1.294007   0.000000
     8  C    2.107603   1.343968   0.000000
     9  C    3.210144   2.338780   1.511659   0.000000
    10  H    3.966488   3.265502   2.146852   1.097464   0.000000
    11  H    3.192961   2.549921   2.167335   1.089467   1.761391
    12  H    3.865613   2.740225   2.153562   1.092269   1.772322
    13  C    3.081539   2.318483   1.510339   2.588103   2.927682
    14  H    2.967351   2.515468   2.162758   3.514116   3.921419
    15  H    3.860877   3.253329   2.149122   2.925161   2.843394
    16  H    3.759921   2.725060   2.161862   2.815892   3.250636
                   11         12         13         14         15
    11  H    0.000000
    12  H    1.778720   0.000000
    13  C    3.514990   2.797635   0.000000
    14  H    4.312985   3.773400   1.091960   0.000000
    15  H    3.921864   3.223731   1.098026   1.769090   0.000000
    16  H    3.788022   2.582906   1.092434   1.773114   1.769162
                   16
    16  H    0.000000
 Symmetry turned off by external request.
 Stoichiometry    C4H9O3(2)
 Framework group  C1[X(C4H9O3)]
 Deg. of freedom    42
 Full point group                 C1
 Rotational constants (GHZ):      4.4179269      1.7258238      1.4951372
 Standard basis: CBSB7 (5D, 7F)
 Integral buffers will be    131072 words long.
 Raffenetti 2 integral format.
 Two-electron integral symmetry is turned off.
   180 basis functions,   296 primitive gaussians,   187 cartesian basis functions
    29 alpha electrons       28 beta electrons
       nuclear repulsion energy       331.2602309661 Hartrees.
 NAtoms=   16 NActive=   16 NUniq=   16 SFac= 7.50D-01 NAtFMM=   80 NAOKFM=F Big=F
 One-electron integrals computed using PRISM.
 NBasis=   180 RedAO= T  NBF=   180
 NBsUse=   180 1.00D-06 NBFU=   180
 Harris functional with IExCor=  402 diagonalized for initial guess.
 ExpMin= 1.03D-01 ExpMax= 8.59D+03 ExpMxC= 1.30D+03 IAcc=1 IRadAn=         1 AccDes= 1.00D-06
 HarFok:  IExCor= 402 AccDes= 1.00D-06 IRadAn=         1 IDoV=1
 ScaDFX=  1.000000  1.000000  1.000000  1.000000
 <S**2> of initial guess= 0.7500
 Requested convergence on RMS density matrix=1.00D-08 within 128 cycles.
 Requested convergence on MAX density matrix=1.00D-06.
 Requested convergence on             energy=1.00D-06.
 No special actions if energy rises.
 Integral accuracy reduced to 1.0D-05 until final iterations.
 Initial convergence to 1.0D-05 achieved.  Increase integral accuracy.
 SCF Done:  E(UB+HF-LYP) =  -383.423942318     A.U. after   18 cycles
             Convg  =    0.6528D-08             -V/T =  2.0032
             S**2   =   0.7571
 Annihilation of the first spin contaminant:
 S**2 before annihilation     0.7571,   after     0.7500
 Range of M.O.s used for correlation:     1   180
 NBasis=   180 NAE=    29 NBE=    28 NFC=     0 NFV=     0
 NROrb=    180 NOA=    29 NOB=    28 NVA=   151 NVB=   152
 Symmetrizing basis deriv contribution to polar:
 IMax=3 JMax=2 DiffMx= 0.00D+00
 G2DrvN: will do   17 centers at a time, making    1 passes doing MaxLOS=2.
 FoFDir/FoFCou used for L=0 through L=2.
 DoAtom=TTTTTTTTTTTTTTTT
          Differentiating once with respect to electric field.
                with respect to dipole field.
          Differentiating once with respect to nuclear coordinates.
 Symmetry not used in FoFDir.
 MinBra= 0 MaxBra= 2 Meth= 1.
 IRaf=       0 NMat=  51 IRICut=      51 DoRegI=T DoRafI=T ISym2E= 0 JSym2E=0.
          There are  51 degrees of freedom in the 1st order CPHF.
    48 vectors were produced by pass  0.
 AX will form  48 AO Fock derivatives at one time.
    48 vectors were produced by pass  1.
    48 vectors were produced by pass  2.
    48 vectors were produced by pass  3.
    48 vectors were produced by pass  4.
    48 vectors were produced by pass  5.
    33 vectors were produced by pass  6.
     5 vectors were produced by pass  7.
     2 vectors were produced by pass  8.
 Inv2:  IOpt= 1 Iter= 1 AM= 2.34D-15 Conv= 1.00D-12.
 Inverted reduced A of dimension  328 with in-core refinement.
 Isotropic polarizability for W=    0.000000       62.68 Bohr**3.
 End of Minotr Frequency-dependent properties file   721 does not exist.

 **********************************************************************

            Population analysis using the SCF density.

 **********************************************************************

 Alpha  occ. eigenvalues --  -19.18148 -19.17241 -19.14104 -10.27274 -10.22302
 Alpha  occ. eigenvalues --  -10.18606 -10.18139  -1.13479  -1.03193  -0.91250
 Alpha  occ. eigenvalues --   -0.81649  -0.71629  -0.66284  -0.60117  -0.55027
 Alpha  occ. eigenvalues --   -0.49684  -0.47803  -0.46972  -0.45209  -0.42315
 Alpha  occ. eigenvalues --   -0.42135  -0.41358  -0.40504  -0.37795  -0.34593
 Alpha  occ. eigenvalues --   -0.31647  -0.29513  -0.28920  -0.24594
 Alpha virt. eigenvalues --    0.00851   0.03258   0.06286   0.06847   0.08134
 Alpha virt. eigenvalues --    0.09510   0.09811   0.11262   0.12963   0.13501
 Alpha virt. eigenvalues --    0.15542   0.17064   0.20525   0.22926   0.25112
 Alpha virt. eigenvalues --    0.27122   0.29039   0.32189   0.36719   0.38448
 Alpha virt. eigenvalues --    0.39292   0.41238   0.43647   0.47272   0.49150
 Alpha virt. eigenvalues --    0.50313   0.54018   0.55019   0.55980   0.56650
 Alpha virt. eigenvalues --    0.57149   0.58432   0.59080   0.61797   0.62574
 Alpha virt. eigenvalues --    0.63234   0.66535   0.74682   0.75448   0.78666
 Alpha virt. eigenvalues --    0.80209   0.85432   0.86592   0.89367   0.90804
 Alpha virt. eigenvalues --    0.94543   0.95119   0.97640   0.99380   1.06522
 Alpha virt. eigenvalues --    1.17382   1.19598   1.25128   1.28412   1.30472
 Alpha virt. eigenvalues --    1.33782   1.36870   1.37957   1.43209   1.43958
 Alpha virt. eigenvalues --    1.44593   1.45869   1.47286   1.47712   1.51332
 Alpha virt. eigenvalues --    1.52452   1.54088   1.58048   1.58878   1.62461
 Alpha virt. eigenvalues --    1.63261   1.66625   1.68478   1.70495   1.71861
 Alpha virt. eigenvalues --    1.74039   1.77812   1.78825   1.90577   1.91705
 Alpha virt. eigenvalues --    1.93887   1.94325   1.96387   1.99310   2.03061
 Alpha virt. eigenvalues --    2.05241   2.06507   2.09456   2.24851   2.28917
 Alpha virt. eigenvalues --    2.32202   2.35876   2.39692   2.42228   2.43707
 Alpha virt. eigenvalues --    2.45701   2.47415   2.49581   2.49947   2.51075
 Alpha virt. eigenvalues --    2.53558   2.56605   2.58810   2.61045   2.63551
 Alpha virt. eigenvalues --    2.65898   2.67762   2.73237   2.76298   2.77654
 Alpha virt. eigenvalues --    2.83036   2.86296   2.87897   2.96113   3.00864
 Alpha virt. eigenvalues --    3.05267   3.10512   3.10983   3.16141   3.25336
 Alpha virt. eigenvalues --    3.29282   3.35169   3.37124   3.52511   3.59381
 Alpha virt. eigenvalues --    3.66564   3.73837   3.77499   3.79037   3.80551
 Alpha virt. eigenvalues --    3.82357   3.87196   3.94187   4.26529   4.31585
 Alpha virt. eigenvalues --    4.70787   4.81012   4.86438   4.89622   5.10302
 Alpha virt. eigenvalues --    5.20941   5.30221   5.52211   5.71069  23.65306
 Alpha virt. eigenvalues --   23.73443  23.89584  23.92547  49.77076  49.82245
 Alpha virt. eigenvalues --   49.91766
  Beta  occ. eigenvalues --  -19.18157 -19.17236 -19.12513 -10.27337 -10.21474
  Beta  occ. eigenvalues --  -10.18608 -10.18123  -1.13375  -1.00325  -0.90790
  Beta  occ. eigenvalues --   -0.80416  -0.71416  -0.65470  -0.58436  -0.54970
  Beta  occ. eigenvalues --   -0.48521  -0.46752  -0.46333  -0.44711  -0.42123
  Beta  occ. eigenvalues --   -0.41278  -0.40717  -0.39184  -0.37490  -0.33011
  Beta  occ. eigenvalues --   -0.30918  -0.28979  -0.28439
  Beta virt. eigenvalues --   -0.11249   0.00914   0.03521   0.06427   0.06994
  Beta virt. eigenvalues --    0.08399   0.09702   0.10023   0.11864   0.13129
  Beta virt. eigenvalues --    0.13583   0.16062   0.17637   0.20867   0.23413
  Beta virt. eigenvalues --    0.25498   0.27336   0.29312   0.32579   0.36939
  Beta virt. eigenvalues --    0.38659   0.39427   0.41457   0.44395   0.48258
  Beta virt. eigenvalues --    0.49498   0.51114   0.54536   0.55642   0.56208
  Beta virt. eigenvalues --    0.56967   0.57443   0.58762   0.59233   0.61985
  Beta virt. eigenvalues --    0.62859   0.63710   0.66811   0.74862   0.75972
  Beta virt. eigenvalues --    0.79224   0.80519   0.85807   0.86754   0.90249
  Beta virt. eigenvalues --    0.91125   0.95097   0.96453   0.98217   1.00149
  Beta virt. eigenvalues --    1.07102   1.17729   1.19743   1.25450   1.28702
  Beta virt. eigenvalues --    1.30786   1.33904   1.36980   1.38224   1.43660
  Beta virt. eigenvalues --    1.44644   1.45411   1.46254   1.47463   1.48154
  Beta virt. eigenvalues --    1.51621   1.53215   1.54492   1.58350   1.59049
  Beta virt. eigenvalues --    1.62901   1.63681   1.66865   1.68781   1.70662
  Beta virt. eigenvalues --    1.72573   1.74289   1.78277   1.79111   1.90862
  Beta virt. eigenvalues --    1.92259   1.93996   1.94937   1.96989   1.99935
  Beta virt. eigenvalues --    2.04208   2.05533   2.06897   2.09648   2.25113
  Beta virt. eigenvalues --    2.29370   2.32441   2.36014   2.40156   2.42367
  Beta virt. eigenvalues --    2.43988   2.46147   2.47646   2.49776   2.50422
  Beta virt. eigenvalues --    2.51511   2.53828   2.56768   2.59015   2.61280
  Beta virt. eigenvalues --    2.63769   2.66100   2.68417   2.73657   2.76800
  Beta virt. eigenvalues --    2.78791   2.83672   2.86541   2.88406   2.98441
  Beta virt. eigenvalues --    3.02209   3.06304   3.10733   3.11326   3.17836
  Beta virt. eigenvalues --    3.25453   3.29516   3.35655   3.39154   3.55017
  Beta virt. eigenvalues --    3.60058   3.66988   3.74065   3.77580   3.79110
  Beta virt. eigenvalues --    3.80850   3.82508   3.87666   3.95339   4.27256
  Beta virt. eigenvalues --    4.33000   4.70795   4.81284   4.86632   4.90521
  Beta virt. eigenvalues --    5.15186   5.21445   5.30705   5.52969   5.71294
  Beta virt. eigenvalues --   23.65410  23.74216  23.89591  23.92562  49.77129
  Beta virt. eigenvalues --   49.82615  49.92936
          Condensed to atoms (all electrons):
              1          2          3          4          5          6
     1  O    7.934706   0.282942   0.082856  -0.053190   0.007564  -0.002798
     2  H    0.282942   0.472319  -0.033777  -0.001937   0.000885   0.012321
     3  O    0.082856  -0.033777   8.083667   0.215204  -0.049746  -0.050543
     4  C   -0.053190  -0.001937   0.215204   4.759922   0.415069   0.251808
     5  H    0.007564   0.000885  -0.049746   0.415069   0.590004  -0.042667
     6  O   -0.002798   0.012321  -0.050543   0.251808  -0.042667   8.173772
     7  H   -0.000596   0.000520   0.005894  -0.113072   0.012605   0.136214
     8  C    0.008093  -0.001476  -0.023477   0.300615  -0.062390  -0.127018
     9  C   -0.000205  -0.000142   0.004056  -0.067272   0.002051   0.003298
    10  H   -0.000168   0.000104   0.002280  -0.008704   0.000169  -0.000153
    11  H   -0.000361  -0.000013   0.008313  -0.003652   0.001345   0.003759
    12  H    0.000006   0.000000   0.000354   0.008091  -0.000185  -0.000523
    13  C   -0.000178   0.000026  -0.000307  -0.040825   0.009476  -0.004043
    14  H   -0.000026  -0.000043   0.000495  -0.004882  -0.002758   0.008635
    15  H   -0.000025   0.000008   0.000264  -0.008603   0.000081  -0.000266
    16  H    0.000007   0.000001  -0.000170   0.008625   0.000504  -0.000743
              7          8          9         10         11         12
     1  O   -0.000596   0.008093  -0.000205  -0.000168  -0.000361   0.000006
     2  H    0.000520  -0.001476  -0.000142   0.000104  -0.000013   0.000000
     3  O    0.005894  -0.023477   0.004056   0.002280   0.008313   0.000354
     4  C   -0.113072   0.300615  -0.067272  -0.008704  -0.003652   0.008091
     5  H    0.012605  -0.062390   0.002051   0.000169   0.001345  -0.000185
     6  O    0.136214  -0.127018   0.003298  -0.000153   0.003759  -0.000523
     7  H    0.559093   0.253841  -0.021839   0.004745  -0.001216  -0.005811
     8  C    0.253841   5.551574   0.317852  -0.031916  -0.032857  -0.036567
     9  C   -0.021839   0.317852   4.848239   0.389156   0.399550   0.406514
    10  H    0.004745  -0.031916   0.389156   0.574923  -0.025285  -0.029916
    11  H   -0.001216  -0.032857   0.399550  -0.025285   0.539339  -0.025679
    12  H   -0.005811  -0.036567   0.406514  -0.029916  -0.025679   0.573439
    13  C   -0.013244   0.298436  -0.051312  -0.003675   0.007576  -0.008133
    14  H   -0.004977  -0.027153   0.007930  -0.000484  -0.000441   0.000050
    15  H    0.005005  -0.035349  -0.004064   0.004690  -0.000415  -0.000640
    16  H   -0.004211  -0.036558  -0.006238  -0.000625   0.000154   0.004043
             13         14         15         16
     1  O   -0.000178  -0.000026  -0.000025   0.000007
     2  H    0.000026  -0.000043   0.000008   0.000001
     3  O   -0.000307   0.000495   0.000264  -0.000170
     4  C   -0.040825  -0.004882  -0.008603   0.008625
     5  H    0.009476  -0.002758   0.000081   0.000504
     6  O   -0.004043   0.008635  -0.000266  -0.000743
     7  H   -0.013244  -0.004977   0.005005  -0.004211
     8  C    0.298436  -0.027153  -0.035349  -0.036558
     9  C   -0.051312   0.007930  -0.004064  -0.006238
    10  H   -0.003675  -0.000484   0.004690  -0.000625
    11  H    0.007576  -0.000441  -0.000415   0.000154
    12  H   -0.008133   0.000050  -0.000640   0.004043
    13  C    4.860444   0.393745   0.391632   0.407526
    14  H    0.393745   0.557938  -0.026515  -0.026359
    15  H    0.391632  -0.026515   0.579142  -0.029756
    16  H    0.407526  -0.026359  -0.029756   0.563856
 Mulliken atomic charges:
              1
     1  O   -0.258627
     2  H    0.268261
     3  O   -0.245364
     4  C    0.342804
     5  H    0.117994
     6  O   -0.361053
     7  H    0.187050
     8  C   -0.315651
     9  C   -0.227573
    10  H    0.124858
    11  H    0.129884
    12  H    0.114958
    13  C   -0.247142
    14  H    0.124844
    15  H    0.124812
    16  H    0.119945
 Sum of Mulliken charges=   0.00000
 Atomic charges with hydrogens summed into heavy atoms:
              1
     1  O    0.009634
     2  H    0.000000
     3  O   -0.245364
     4  C    0.460798
     5  H    0.000000
     6  O   -0.174003
     7  H    0.000000
     8  C   -0.315651
     9  C    0.142128
    10  H    0.000000
    11  H    0.000000
    12  H    0.000000
    13  C    0.122459
    14  H    0.000000
    15  H    0.000000
    16  H    0.000000
 Sum of Mulliken charges=   0.00000
          Atomic-Atomic Spin Densities.
              1          2          3          4          5          6
     1  O    0.001217  -0.000402   0.001279  -0.000617   0.000197  -0.000739
     2  H   -0.000402   0.000618  -0.000035  -0.000220  -0.000131   0.000965
     3  O    0.001279  -0.000035  -0.006928   0.005376   0.000511   0.001085
     4  C   -0.000617  -0.000220   0.005376  -0.033853   0.002969   0.004342
     5  H    0.000197  -0.000131   0.000511   0.002969  -0.003043   0.000496
     6  O   -0.000739   0.000965   0.001085   0.004342   0.000496   0.705252
     7  H   -0.000013   0.000419  -0.000584   0.004509  -0.001249  -0.063708
     8  C   -0.000192   0.000935  -0.001979  -0.035340  -0.000546  -0.140672
     9  C    0.000024  -0.000139  -0.000333   0.008216   0.000123   0.008953
    10  H   -0.000010   0.000080   0.000274  -0.002206  -0.000045  -0.001109
    11  H    0.000041  -0.000177   0.000093   0.001491  -0.000022   0.001986
    12  H   -0.000001   0.000000  -0.000008  -0.000115   0.000008  -0.000009
    13  C    0.000012  -0.000047   0.000065   0.006386  -0.000185   0.009622
    14  H    0.000006  -0.000014  -0.000029   0.001422   0.000332   0.002250
    15  H   -0.000006   0.000018   0.000024  -0.001843  -0.000178  -0.001229
    16  H    0.000000  -0.000001   0.000003  -0.000014  -0.000001   0.000166
              7          8          9         10         11         12
     1  O   -0.000013  -0.000192   0.000024  -0.000010   0.000041  -0.000001
     2  H    0.000419   0.000935  -0.000139   0.000080  -0.000177   0.000000
     3  O   -0.000584  -0.001979  -0.000333   0.000274   0.000093  -0.000008
     4  C    0.004509  -0.035340   0.008216  -0.002206   0.001491  -0.000115
     5  H   -0.001249  -0.000546   0.000123  -0.000045  -0.000022   0.000008
     6  O   -0.063708  -0.140672   0.008953  -0.001109   0.001986  -0.000009
     7  H   -0.035793   0.105605  -0.010425   0.001361  -0.002628   0.000486
     8  C    0.105605   0.650810  -0.046347  -0.002842  -0.009951  -0.001872
     9  C   -0.010425  -0.046347   0.016026  -0.006291   0.009701   0.002556
    10  H    0.001361  -0.002842  -0.006291   0.056764  -0.008003  -0.000876
    11  H   -0.002628  -0.009951   0.009701  -0.008003   0.012053   0.000404
    12  H    0.000486  -0.001872   0.002556  -0.000876   0.000404  -0.000541
    13  C   -0.009375  -0.038126   0.011269  -0.003882   0.000902   0.000557
    14  H   -0.002308  -0.009987   0.001007  -0.000407   0.000119   0.000001
    15  H    0.001306  -0.003744  -0.004331   0.004130  -0.000409  -0.000007
    16  H    0.000017  -0.002783   0.001012  -0.000216   0.000045  -0.000092
             13         14         15         16
     1  O    0.000012   0.000006  -0.000006   0.000000
     2  H   -0.000047  -0.000014   0.000018  -0.000001
     3  O    0.000065  -0.000029   0.000024   0.000003
     4  C    0.006386   0.001422  -0.001843  -0.000014
     5  H   -0.000185   0.000332  -0.000178  -0.000001
     6  O    0.009622   0.002250  -0.001229   0.000166
     7  H   -0.009375  -0.002308   0.001306   0.000017
     8  C   -0.038126  -0.009987  -0.003744  -0.002783
     9  C    0.011269   0.001007  -0.004331   0.001012
    10  H   -0.003882  -0.000407   0.004130  -0.000216
    11  H    0.000902   0.000119  -0.000409   0.000045
    12  H    0.000557   0.000001  -0.000007  -0.000092
    13  C    0.001309   0.008498  -0.004305   0.003178
    14  H    0.008498   0.011407  -0.007670   0.000966
    15  H   -0.004305  -0.007670   0.054367  -0.001998
    16  H    0.003178   0.000966  -0.001998   0.000774
 Mulliken atomic spin densities:
              1
     1  O    0.000800
     2  H    0.001869
     3  O   -0.001185
     4  C   -0.039495
     5  H   -0.000764
     6  O    0.527652
     7  H   -0.012381
     8  C    0.462970
     9  C   -0.008979
    10  H    0.036722
    11  H    0.005645
    12  H    0.000490
    13  C   -0.014122
    14  H    0.005594
    15  H    0.034127
    16  H    0.001057
 Sum of Mulliken spin densities=   1.00000
 APT atomic charges:
              1
     1  O   -0.279676
     2  H    0.250275
     3  O   -0.340167
     4  C    0.617529
     5  H   -0.042309
     6  O   -0.456964
     7  H   -0.011692
     8  C    0.224689
     9  C    0.022295
    10  H   -0.012193
    11  H    0.026838
    12  H   -0.006436
    13  C    0.024241
    14  H    0.007587
    15  H   -0.017925
    16  H   -0.006093
 Sum of APT charges=   0.00000
 APT Atomic charges with hydrogens summed into heavy atoms:
              1
     1  O   -0.029402
     2  H    0.000000
     3  O   -0.340167
     4  C    0.575221
     5  H    0.000000
     6  O   -0.468655
     7  H    0.000000
     8  C    0.224689
     9  C    0.030504
    10  H    0.000000
    11  H    0.000000
    12  H    0.000000
    13  C    0.007810
    14  H    0.000000
    15  H    0.000000
    16  H    0.000000
 Sum of APT charges=   0.00000
 Electronic spatial extent (au):  <R**2>=   880.5691
 Charge=     0.0000 electrons
 Dipole moment (field-independent basis, Debye):
    X=    -2.3205    Y=     0.2425    Z=    -0.3948  Tot=     2.3663
 Quadrupole moment (field-independent basis, Debye-Ang):
   XX=   -39.9617   YY=   -46.7473   ZZ=   -41.8018
   XY=     3.4797   XZ=     1.0109   YZ=     2.8972
 Traceless Quadrupole moment (field-independent basis, Debye-Ang):
   XX=     2.8752   YY=    -3.9104   ZZ=     1.0351
   XY=     3.4797   XZ=     1.0109   YZ=     2.8972
 Octapole moment (field-independent basis, Debye-Ang**2):
  XXX=    33.0322  YYY=    28.0101  ZZZ=    -5.3887  XYY=     4.9947
  XXY=    20.4412  XXZ=     2.1962  XZZ=    11.6313  YZZ=    11.0391
  YYZ=    -2.5822  XYZ=     4.3964
 Hexadecapole moment (field-independent basis, Debye-Ang**3):
 XXXX=  -643.7314 YYYY=  -174.9568 ZZZZ=  -260.9720 XXXY=    21.8597
 XXXZ=   -38.2298 YYYX=     2.1882 YYYZ=    31.2498 ZZZX=   -49.5117
 ZZZY=    29.7774 XXYY=  -148.3314 XXZZ=  -151.4705 YYZZ=   -75.1501
 XXYZ=    17.5406 YYXZ=   -18.9861 ZZXY=     2.5202
 N-N= 3.312602309661D+02 E-N=-1.562032272152D+03  KE= 3.821847702485D+02
  Exact polarizability:  78.796   4.837  53.411   2.686  -1.188  55.834
 Approx polarizability: 107.051  10.790  84.752  -0.105  -1.864  72.902
                          Isotropic Fermi Contact Couplings
        Atom                 a.u.       MegaHertz       Gauss      10(-4) cm-1
     1  O(17)              0.00083      -0.50222      -0.17920      -0.16752
     2  H(1)              -0.00008      -0.35101      -0.12525      -0.11708
     3  O(17)             -0.00639       3.87583       1.38299       1.29284
     4  C(13)             -0.01811     -20.35697      -7.26387      -6.79035
     5  H(1)              -0.00003      -0.12633      -0.04508      -0.04214
     6  O(17)              0.07178     -43.51391     -15.52684     -14.51468
     7  H(1)              -0.01082     -48.35106     -17.25286     -16.12818
     8  C(13)              0.13967     157.01573      56.02712      52.37481
     9  C(13)              0.00445       5.00078       1.78440       1.66808
    10  H(1)               0.01567      70.04527      24.99389      23.36459
    11  H(1)               0.00370      16.52956       5.89816       5.51367
    12  H(1)               0.00038       1.71266       0.61112       0.57128
    13  C(13)             -0.00162      -1.82625      -0.65165      -0.60917
    14  H(1)               0.00325      14.54674       5.19064       4.85227
    15  H(1)               0.01466      65.54732      23.38891      21.86423
    16  H(1)               0.00084       3.74775       1.33729       1.25012
 --------------------------------------------------------
       Center         ----  Spin Dipole Couplings  ----
                      3XX-RR        3YY-RR        3ZZ-RR
 --------------------------------------------------------
     1   Atom       -0.007825      0.010622     -0.002797
     2   Atom        0.004291     -0.002650     -0.001641
     3   Atom        0.006517     -0.003116     -0.003400
     4   Atom       -0.001749      0.021230     -0.019481
     5   Atom       -0.001717      0.007908     -0.006191
     6   Atom        2.178492     -1.115633     -1.062860
     7   Atom        0.070357      0.028815     -0.099172
     8   Atom       -0.221352      0.528568     -0.307216
     9   Atom       -0.011116      0.003272      0.007844
    10   Atom       -0.004975      0.005243     -0.000268
    11   Atom       -0.006877     -0.005872      0.012749
    12   Atom        0.005605     -0.005211     -0.000394
    13   Atom       -0.004076     -0.006053      0.010129
    14   Atom       -0.004830     -0.006603      0.011433
    15   Atom       -0.003070      0.002811      0.000260
    16   Atom        0.008234     -0.005540     -0.002694
 --------------------------------------------------------
                        XY            XZ            YZ
 --------------------------------------------------------
     1   Atom       -0.012973      0.004247     -0.012381
     2   Atom       -0.004198      0.006297     -0.002871
     3   Atom       -0.000648      0.004116     -0.006295
     4   Atom       -0.015342     -0.004790      0.001803
     5   Atom       -0.003875     -0.004907      0.010143
     6   Atom        0.439697     -0.664492     -0.080835
     7   Atom        0.069989     -0.024296      0.003337
     8   Atom        0.244860      0.015362      0.057847
     9   Atom        0.020138     -0.019020     -0.029229
    10   Atom        0.002876     -0.003769     -0.003697
    11   Atom        0.001610     -0.000692     -0.004364
    12   Atom        0.001576     -0.009872     -0.001506
    13   Atom        0.014904      0.020172      0.019180
    14   Atom        0.001856      0.005247      0.000803
    15   Atom        0.003260      0.004860      0.004068
    16   Atom        0.000188      0.008390      0.000254
 --------------------------------------------------------


 ---------------------------------------------------------------------------------
              Anisotropic Spin Dipole Couplings in Principal Axis System
 ---------------------------------------------------------------------------------

       Atom             a.u.   MegaHertz   Gauss  10(-4) cm-1        Axes

              Baa    -0.0150     1.088     0.388     0.363  0.8058  0.5325  0.2592
     1 O(17)  Bbb    -0.0086     0.625     0.223     0.209 -0.4439  0.2534  0.8595
              Bcc     0.0237    -1.713    -0.611    -0.571 -0.3920  0.8076 -0.4406
 
              Baa    -0.0057    -3.021    -1.078    -1.008 -0.4830  0.1492  0.8628
     2 H(1)   Bbb    -0.0046    -2.465    -0.880    -0.822  0.3905  0.9186  0.0597
              Bcc     0.0103     5.487     1.958     1.830  0.7837 -0.3658  0.5020
 
              Baa    -0.0100     0.720     0.257     0.240 -0.1574  0.6608  0.7338
     3 O(17)  Bbb     0.0012    -0.084    -0.030    -0.028  0.4872  0.6983 -0.5243
              Bcc     0.0088    -0.636    -0.227    -0.212  0.8590 -0.2750  0.4319
 
              Baa    -0.0208    -2.795    -0.997    -0.932  0.2925  0.0658  0.9540
     4 C(13)  Bbb    -0.0084    -1.124    -0.401    -0.375  0.8425  0.4542 -0.2896
              Bcc     0.0292     3.918     1.398     1.307 -0.4524  0.8884  0.0774
 
              Baa    -0.0122    -6.511    -2.323    -2.172  0.2669 -0.3925  0.8802
     5 H(1)   Bbb    -0.0030    -1.582    -0.565    -0.528  0.9075  0.4097 -0.0925
              Bcc     0.0152     8.093     2.888     2.700 -0.3243  0.8235  0.4655
 
              Baa    -1.1952    86.486    30.860    28.849  0.2180 -0.2445  0.9448
     6 O(17)  Bbb    -1.1716    84.775    30.250    28.278 -0.0735  0.9613  0.2657
              Bcc     2.3668  -171.261   -61.110   -57.126  0.9732  0.1273 -0.1916
 
              Baa    -0.1042   -55.588   -19.835   -18.542  0.1845 -0.1216  0.9753
     7 H(1)   Bbb    -0.0198   -10.558    -3.768    -3.522 -0.5647  0.7990  0.2064
              Bcc     0.1240    66.146    23.603    22.064  0.8044  0.5889 -0.0788
 
              Baa    -0.3113   -41.776   -14.907   -13.935  0.0802 -0.0918  0.9925
     8 C(13)  Bbb    -0.2940   -39.457   -14.079   -13.161  0.9553 -0.2771 -0.1029
              Bcc     0.6054    81.233    28.986    27.097  0.2845  0.9564  0.0654
 
              Baa    -0.0256    -3.438    -1.227    -1.147 -0.6714  0.7036  0.2329
     9 C(13)  Bbb    -0.0222    -2.982    -1.064    -0.995  0.6073  0.3422  0.7169
              Bcc     0.0478     6.420     2.291     2.141 -0.4247 -0.6228  0.6571
 
              Baa    -0.0071    -3.798    -1.355    -1.267  0.8898 -0.0722  0.4507
    10 H(1)   Bbb    -0.0014    -0.732    -0.261    -0.244 -0.3353  0.5665  0.7528
              Bcc     0.0085     4.529     1.616     1.511  0.3097  0.8209 -0.4798
 
              Baa    -0.0083    -4.432    -1.581    -1.478  0.7166 -0.6873 -0.1189
    11 H(1)   Bbb    -0.0055    -2.916    -1.041    -0.973  0.6957  0.6921  0.1922
              Bcc     0.0138     7.348     2.622     2.451 -0.0498 -0.2205  0.9741
 
              Baa    -0.0077    -4.132    -1.474    -1.378  0.5816  0.1168  0.8051
    12 H(1)   Bbb    -0.0054    -2.899    -1.034    -0.967 -0.1633  0.9863 -0.0252
              Bcc     0.0132     7.031     2.509     2.345  0.7969  0.1169 -0.5926
 
              Baa    -0.0200    -2.686    -0.958    -0.896 -0.6461  0.7615 -0.0522
    13 C(13)  Bbb    -0.0178    -2.392    -0.853    -0.798 -0.5649 -0.4312  0.7035
              Bcc     0.0378     5.077     1.812     1.694  0.5132  0.4840  0.7087
 
              Baa    -0.0081    -4.316    -1.540    -1.440 -0.6563  0.7402  0.1460
    14 H(1)   Bbb    -0.0050    -2.654    -0.947    -0.885  0.6977  0.6691 -0.2559
              Bcc     0.0131     6.971     2.487     2.325  0.2871  0.0661  0.9556
 
              Baa    -0.0066    -3.497    -1.248    -1.167  0.8253 -0.0426 -0.5631
    15 H(1)   Bbb    -0.0019    -1.038    -0.370    -0.346 -0.3550  0.7363 -0.5761
              Bcc     0.0085     4.535     1.618     1.513  0.4392  0.6754  0.5925
 
              Baa    -0.0073    -3.870    -1.381    -1.291 -0.4742 -0.0783  0.8770
    16 H(1)   Bbb    -0.0055    -2.953    -1.054    -0.985 -0.0510  0.9968  0.0614
              Bcc     0.0128     6.823     2.434     2.276  0.8790  0.0156  0.4766
 

 ---------------------------------------------------------------------------------

 Use density number 0.
 Entering OneElI...
 Calculate overlap and kinetic energy integrals
    NBasis = 187  MinDer = 2  MaxDer = 2
 Requested accuracy = 0.1000D-12
 PrsmSu:  NPrtUS=   1 ThrOK=F
 PRISM was handed   130760396 working-precision words and  2542 shell-pairs
 Entering OneElI...
 Calculate potential energy integrals
    NBasis = 187  MinDer = 2  MaxDer = 2
 Requested accuracy = 0.1000D-12
 PrsmSu:  NPrtUS=   8 ThrOK=T
 PRISM was handed    16302059 working-precision words and  2361 shell-pairs
 PRISM was handed    16302059 working-precision words and  2361 shell-pairs
 PRISM was handed    16302059 working-precision words and  2361 shell-pairs
 PRISM was handed    16302059 working-precision words and  2361 shell-pairs
 PRISM was handed    16302059 working-precision words and  2361 shell-pairs
 PRISM was handed    16302059 working-precision words and  2361 shell-pairs
 PRISM was handed    16302059 working-precision words and  2361 shell-pairs
 PRISM was handed    16302059 working-precision words and  2361 shell-pairs
 Polarizability after L701:
                1             2             3
      1  0.787956D+02
      2  0.483741D+01  0.534108D+02
      3  0.268620D+01 -0.118757D+01  0.558338D+02
 Dipole Derivatives after L701:
               1            2            3            4            5
      1-0.429474D+00-0.106292D+00-0.109782D+00 0.288073D+00 0.742279D-02
      2 0.616457D-01-0.923187D-01 0.104182D+00 0.556236D-01 0.147174D+00
      3-0.142865D+00 0.102177D+00-0.317236D+00 0.519937D-01-0.571175D-01
               6            7            8            9           10
      1 0.105786D+00-0.217080D+00 0.288678D+00-0.191864D+00 0.535073D+00
      2-0.456945D-01 0.689100D-01-0.369649D+00 0.109665D+00-0.100928D+00
      3 0.315577D+00-0.677858D-01 0.413825D-01-0.433771D+00 0.660075D-01
              11           12           13           14           15
      1-0.664163D+00 0.277608D+00 0.783036D-02 0.725580D-01-0.673590D-02
      2 0.660318D+00-0.117448D+00 0.429453D-01-0.242106D-01-0.465978D-01
      3-0.890434D-01 0.657198D+00 0.683525D-01-0.552563D-01-0.110545D+00
              16           17           18           19           20
      1-0.285030D+00 0.148957D+00-0.912215D-01-0.217454D+00-0.191308D+00
      2-0.241763D+00-0.714880D+00 0.237203D-02-0.121182D-01 0.880425D-01
      3-0.410482D-01 0.863661D-01-0.370981D+00 0.557681D-01 0.200447D-01
              21           22           23           24           25
      1 0.431028D-01 0.271082D+00 0.722478D+00 0.303605D-01 0.884513D-01
      2-0.763660D-02 0.148177D+00 0.223896D+00-0.285150D-02-0.132492D-01
      3 0.943367D-01 0.217026D-01-0.878046D-01 0.179089D+00-0.227315D-01
              26           27           28           29           30
      1-0.172447D+00-0.554751D-01 0.447158D-01-0.321704D-01 0.592266D-01
      2 0.380577D-01-0.402013D-02-0.244909D-01-0.109244D+00-0.943492D-03
      3 0.963738D-01-0.596229D-01 0.398255D-01 0.124602D-01 0.279493D-01
              31           32           33           34           35
      1 0.423957D-01-0.270421D-01-0.596136D-01-0.120593D+00 0.871121D-01
      2-0.372955D-01 0.667673D-01-0.124690D-01 0.574472D-01 0.427916D-01
      3-0.789490D-01-0.425825D-01-0.286485D-01 0.474891D-01-0.320453D-02
              36           37           38           39           40
      1 0.104572D-01 0.574556D-01-0.166936D+00-0.506251D-02 0.265361D-01
      2 0.203000D-01 0.174507D-02 0.617246D-01 0.207241D-01-0.502796D-01
      3 0.584925D-01-0.184241D-01-0.414079D-01-0.464577D-01 0.750681D-01
              41           42           43           44           45
      1-0.205915D-01 0.362919D-01 0.238557D-01-0.291168D-01-0.665452D-01
      2 0.457802D-01 0.399290D-01-0.173822D-01-0.113560D+00-0.279164D-01
      3 0.754579D-01-0.495557D-01-0.392026D-01-0.467219D-01 0.359298D-01
              46           47           48
      1-0.115838D+00 0.828607D-01 0.234668D-01
      2 0.610129D-01 0.493115D-01-0.315958D-01
      3-0.152005D-01-0.111235D-01 0.482467D-01
 Hessian after L701:
                1             2             3             4             5
      1  0.196809D+01
      2 -0.466832D+00  0.792645D+01
      3 -0.365290D+00 -0.110955D+01  0.117323D+02
      4 -0.597970D+01  0.121277D+01  0.356282D+00  0.616599D+01
      5  0.898302D+00 -0.229258D+01  0.149548D+01 -0.104322D+01  0.199069D+01
      6  0.276775D+00  0.159074D+01 -0.599549D+01 -0.524308D+00 -0.160780D+01
      7  0.319916D+01  0.401125D+00 -0.549650D+00 -0.341570D+00  0.415369D-01
      8  0.481700D+00 -0.534401D+01 -0.190142D-01 -0.707205D-01  0.394417D+00
      9 -0.482283D+00 -0.102586D-01 -0.503563D+01  0.271451D-01  0.691541D-01
     10 -0.106517D+00 -0.292305D+00  0.146954D+00  0.124336D-01  0.768936D-01
     11 -0.292108D+00 -0.144847D-01 -0.870306D-01  0.394962D-01  0.179876D-02
     12  0.652822D-01 -0.725259D-01 -0.349472D-01  0.100541D-01  0.357381D-01
     13  0.249943D-01 -0.213700D-01  0.506745D-01 -0.508354D-02  0.644245D-03
     14  0.147561D-01 -0.949691D-01  0.135019D-01  0.543061D-02  0.290592D-02
     15  0.124122D+00 -0.466269D-01 -0.205611D-01  0.945362D-02  0.173287D-01
     16  0.535350D-02 -0.553481D+00  0.212751D+00  0.111498D+00 -0.537977D-01
     17 -0.471779D+00  0.230903D+00 -0.261163D+00 -0.143833D+00 -0.795456D-01
     18  0.213510D+00 -0.301328D+00 -0.290501D+00  0.114756D+00 -0.254434D-01
     19  0.894229D-02 -0.275108D-01  0.322553D-02  0.107347D-01  0.197785D-03
     20 -0.186940D-01 -0.161910D-02 -0.346206D-02 -0.490749D-02 -0.599570D-02
     21  0.582379D-02 -0.551415D-02 -0.153822D-01  0.377822D-02  0.625342D-04
     22  0.577148D+00 -0.169010D+00  0.143149D+00 -0.641665D-02  0.252267D-01
     23 -0.107901D+00 -0.187059D+00 -0.179150D-01 -0.228193D-02  0.100038D-02
     24  0.142353D+00 -0.292644D-01 -0.178606D+00 -0.333620D-02  0.716181D-02
     25  0.157943D+00 -0.296562D-01 -0.607630D-01  0.145071D-01  0.226588D-01
     26 -0.228928D-01 -0.107466D+00  0.360053D-04  0.201618D-02 -0.831399D-02
     27 -0.197213D-01 -0.861022D-02 -0.106053D+00  0.172285D-02  0.588365D-02
     28  0.174319D-01  0.512456D-02 -0.620643D-02  0.448097D-02  0.491141D-02
     29  0.274531D-01 -0.124358D-01 -0.709620D-02  0.490218D-02  0.739632D-02
     30 -0.357806D-02 -0.991422D-03 -0.112642D-01 -0.521333D-03 -0.135385D-03
     31  0.629107D-02 -0.450561D-02 -0.126376D-01 -0.125463D-02 -0.288400D-03
     32 -0.140717D-01 -0.136543D-01  0.778993D-02 -0.959947D-03 -0.320031D-02
     33 -0.395217D-01  0.159238D-01  0.529091D-02 -0.391714D-02 -0.766189D-02
     34  0.254045D-01 -0.130999D-01 -0.712712D-02  0.360999D-02  0.707222D-02
     35 -0.766917D-02 -0.376452D-02  0.150352D-02 -0.686651D-03 -0.249111D-02
     36 -0.496433D-02  0.138937D-02 -0.593890D-02 -0.468931D-03 -0.807405D-03
     37  0.660563D-01 -0.280739D-01  0.650599D-01  0.754114D-02  0.122159D-01
     38 -0.198404D-01 -0.680489D-01 -0.113977D-01  0.125686D-02 -0.625842D-02
     39  0.516917D-01 -0.866302D-02 -0.442130D-01  0.537329D-02  0.268897D-02
     40  0.224466D-03 -0.170746D-02  0.659128D-02 -0.800549D-03 -0.737212D-03
     41 -0.937463D-02 -0.370844D-02 -0.761348D-02 -0.907316D-03 -0.289207D-02
     42  0.219136D-01 -0.136931D-01  0.855583D-02  0.222758D-02  0.595715D-02
     43  0.105310D-01  0.389426D-03  0.968195D-02  0.134401D-02  0.238931D-02
     44  0.162243D-01 -0.115927D-01  0.810833D-02  0.242889D-02  0.540333D-02
     45  0.112506D-01 -0.515772D-03 -0.275285D-02  0.141316D-02  0.215610D-02
     46  0.186489D-01 -0.118603D-01  0.730513D-02  0.268413D-02  0.599123D-02
     47 -0.727320D-02 -0.196426D-02 -0.217268D-02 -0.789780D-03 -0.233402D-02
     48  0.263649D-02 -0.507353D-03 -0.475912D-02  0.345036D-03  0.237371D-03
                6             7             8             9            10
      6  0.586046D+01
      7  0.364675D-01  0.206767D+01
      8  0.741569D-01  0.260807D+01  0.118681D+02
      9  0.187425D+00 -0.347439D+01  0.443640D+01  0.815011D+01
     10  0.325578D-01 -0.652985D+01 -0.207002D+01  0.352022D+01  0.184001D+02
     11  0.258793D-01 -0.216947D+01 -0.674782D+01 -0.423994D+01  0.141649D+01
     12 -0.726688D-02  0.362443D+01 -0.422239D+01 -0.238432D+01 -0.202219D+01
     13  0.207108D-02  0.213227D+00  0.241026D-01 -0.884413D-01 -0.480067D+01
     14  0.741630D-02  0.288853D-01  0.177292D+00  0.299067D+00 -0.520926D+00
     15  0.993374D-02 -0.446711D-01  0.291428D+00 -0.276618D-01 -0.110324D+01
     16  0.138017D+00 -0.131395D+00 -0.278525D+00  0.133203D+00 -0.782522D+01
     17 -0.931509D-01 -0.283441D+00  0.469751D+00 -0.409785D+00  0.119239D+01
     18 -0.385785D-01  0.139701D+00 -0.431191D+00 -0.307257D-01 -0.124303D+00
     19  0.701186D-02  0.322561D-01 -0.115523D+00  0.548216D-01  0.315729D+00
     20 -0.179100D-02 -0.130735D+00  0.413021D-01 -0.605472D-01  0.270975D+00
     21 -0.152770D-02  0.472816D-01 -0.454831D-01 -0.521995D-01  0.738179D-02
     22  0.813420D-02  0.494872D+00 -0.318097D+00  0.189701D+00 -0.261186D+00
     23  0.600884D-03 -0.241414D+00 -0.210511D+00 -0.593122D-01  0.152080D+00
     24 -0.474635D-02  0.148824D+00 -0.748139D-01 -0.370832D+00 -0.539404D+00
     25  0.467807D-02  0.586247D+00 -0.170381D+00 -0.808193D-01  0.192666D+00
     26  0.692391D-03 -0.192966D+00 -0.339564D+00  0.156727D-01 -0.752374D-01
     27 -0.607924D-02 -0.944997D-02  0.926685D-02 -0.364488D+00 -0.179829D-01
     28  0.899020D-03  0.100151D+00  0.220245D-01 -0.255174D-01 -0.909600D-02
     29  0.244548D-02  0.935893D-01 -0.329504D-01 -0.111796D-01 -0.665318D-02
     30 -0.140884D-02 -0.244805D-01 -0.290316D-02 -0.472720D-01  0.263854D-01
     31 -0.301729D-03  0.606799D-01 -0.258089D-01 -0.535203D-01 -0.178009D-01
     32 -0.369655D-03 -0.631339D-01 -0.917102D-01  0.229544D-01 -0.595093D-02
     33 -0.332615D-02 -0.163407D+00  0.314632D-01 -0.417583D-01 -0.173444D-01
     34  0.240375D-02  0.777537D-01 -0.245262D-01 -0.478194D-02  0.163583D+00
     35 -0.688472D-03 -0.268088D-01 -0.136221D-01  0.131647D-02 -0.196417D-01
     36 -0.104265D-02 -0.144088D-01  0.322215D-02 -0.203377D-01 -0.109763D+00
     37  0.108765D-01  0.117612D+00 -0.481122D-01  0.208536D+00  0.298639D+00
     38  0.110695D-02 -0.642149D-01 -0.138989D+00 -0.489811D-01 -0.628772D-01
     39 -0.182484D-02  0.187529D+00 -0.297446D-01 -0.995297D-02  0.137321D+00
     40 -0.303779D-03 -0.242198D-02 -0.724424D-02  0.193130D-01 -0.144244D-01
     41 -0.137129D-02 -0.204153D-01 -0.100091D-01 -0.244122D-01 -0.602708D-02
     42  0.290234D-02  0.511069D-01 -0.224445D-01  0.431402D-01  0.259451D-01
     43  0.176807D-02  0.234481D-01  0.509127D-02  0.331309D-01 -0.192341D-01
     44  0.305798D-02  0.352401D-01 -0.151839D-01  0.275487D-01 -0.229973D-02
     45  0.815239D-03  0.370300D-01  0.440293D-02  0.879120D-02 -0.317830D-01
     46  0.325325D-02  0.321599D-01 -0.120251D-01  0.236848D-01  0.200814D+00
     47 -0.924457D-03 -0.158498D-01 -0.653833D-02 -0.770129D-02 -0.468923D-01
     48 -0.239631D-03  0.809007D-02 -0.235890D-02 -0.429881D-02  0.692424D-01
               11            12            13            14            15
     11  0.166008D+02
     12  0.267032D+01  0.200917D+02
     13 -0.520665D+00 -0.107353D+01  0.434692D+01
     14 -0.450603D+01  0.139382D+01  0.521934D+00  0.459066D+01
     15  0.142407D+01 -0.230077D+01  0.104544D+01 -0.176832D+01  0.186856D+01
     16  0.125236D+01 -0.167236D+00  0.178398D+00  0.100933D-02 -0.368622D-01
     17  0.162536D+01  0.930174D-01  0.568441D-02 -0.344209D+00  0.272755D-01
     18  0.932365D-01 -0.910931D+01 -0.487758D-01  0.125993D-01  0.343453D+00
     19  0.250650D+00  0.783416D-02  0.179192D-01 -0.953455D-01 -0.756970D-01
     20  0.118179D+00 -0.233053D-01 -0.987050D-01  0.639296D-01  0.958365D-01
     21 -0.199616D-01  0.486296D+00 -0.579775D-01  0.686909D-01 -0.109785D-02
     22  0.445963D-01 -0.634287D+00 -0.203334D+00  0.109941D+00  0.237426D+00
     23 -0.692097D+01  0.951097D-01  0.101121D+00  0.221663D+00 -0.492609D-01
     24  0.123366D+00 -0.671107D+01  0.215294D+00 -0.374628D-01  0.158837D+00
     25  0.115499D-01 -0.376955D-02  0.308831D-01 -0.128137D-01 -0.675899D-01
     26  0.574980D-01  0.448439D-01 -0.920006D-03 -0.255184D-01  0.497521D-02
     27 -0.939430D-02  0.312006D-01 -0.513043D-01  0.800919D-02  0.215221D-01
     28 -0.258993D-01  0.259075D-01  0.396739D-02  0.450225D-03 -0.890464D-02
     29  0.461572D-02  0.193539D-01  0.838647D-02 -0.515366D-02 -0.137675D-01
     30  0.271969D-01 -0.196548D-01 -0.619932D-02 -0.774486D-03  0.432100D-02
     31 -0.166756D-03  0.177449D-01  0.116238D-03 -0.107580D-02 -0.123031D-01
     32 -0.121705D-01  0.655910D-02 -0.314016D-02 -0.496198D-02  0.664967D-02
     33 -0.134679D-01  0.246561D-02 -0.208951D-01  0.957753D-02  0.341759D-01
     34  0.693771D-03 -0.108408D+00  0.336110D-02 -0.436240D-02 -0.900144D-02
     35 -0.496997D-01  0.982296D-02 -0.242618D-02  0.466580D-03  0.305125D-02
     36  0.111702D-02  0.130669D-02  0.328604D-03  0.127300D-02  0.163938D-02
     37  0.273995D-01  0.215872D+00  0.171434D+00 -0.440120D-01 -0.359432D-01
     38 -0.101099D+00 -0.242981D-01 -0.196178D-01 -0.721566D-01  0.686125D-02
     39  0.121518D-01 -0.247941D-02  0.266922D-01 -0.252888D-02 -0.745029D-01
     40  0.128545D-01 -0.100377D-01 -0.127128D-01  0.612314D-02 -0.565697D-02
     41 -0.225692D-01 -0.103389D-01 -0.131078D-02  0.430943D-02  0.602447D-02
     42  0.193807D-01  0.122820D-01  0.337547D-02 -0.473825D-02 -0.774937D-02
     43 -0.210923D-01 -0.242192D-01  0.978019D-02 -0.249143D-03 -0.507251D-02
     44  0.125606D-01 -0.270259D-03  0.128428D-01 -0.746605D-02 -0.936960D-02
     45 -0.189705D-01 -0.178987D-01  0.345536D-02 -0.528465D-03 -0.702277D-02
     46 -0.266977D-01  0.765468D-01  0.208035D-01 -0.974442D-02 -0.114970D-01
     47 -0.459323D-01 -0.154620D-01 -0.655926D-02 -0.769416D-03  0.383867D-02
     48 -0.795687D-02 -0.375524D-01 -0.207656D-03  0.389936D-03 -0.307055D-02
               16            17            18            19            20
     16  0.607953D+01
     17 -0.130535D+01  0.556208D+00
     18  0.366424D+00  0.101304D+01  0.115201D+02
     19  0.877557D+00  0.605042D+00 -0.389510D+00  0.110310D+01
     20  0.306892D+00 -0.233558D+01 -0.754818D-01 -0.180487D+01  0.237064D+01
     21 -0.407891D+00 -0.898066D-01 -0.233699D+01  0.327757D+00  0.131860D-01
     22  0.324091D+00 -0.282187D+00 -0.284815D+00 -0.232182D+01  0.150369D+01
     23 -0.619618D-01  0.877670D-01 -0.204503D+00  0.118804D+01 -0.509530D+00
     24 -0.246142D+00 -0.195567D+00  0.489260D-01  0.552468D-01 -0.989879D-02
     25  0.891564D-01  0.263965D+00 -0.289795D+00  0.202321D-01 -0.384272D-01
     26  0.274574D+00 -0.492812D-01 -0.225334D+00 -0.199929D-01  0.527614D-01
     27 -0.251847D+00 -0.190676D+00 -0.502436D-01  0.266466D-01  0.524021D-01
     28  0.391976D-02  0.233530D-01 -0.106307D-01 -0.920919D-02  0.366045D-01
     29  0.416572D-01  0.305603D-01 -0.219503D-01  0.332653D-01  0.796280D-01
     30 -0.894643D-02 -0.988980D-02 -0.116807D-01 -0.135058D-01 -0.412920D-01
     31 -0.199903D-01  0.357206D-01 -0.378593D-01 -0.135575D-02 -0.860516D-02
     32  0.373434D-01 -0.149750D-01 -0.437830D-01 -0.122936D-02 -0.625041D-02
     33 -0.873789D-01 -0.838039D-01  0.580092D-01 -0.731091D-04  0.258899D-02
     34  0.427614D-01  0.232900D-01 -0.279136D-01 -0.185468D-01 -0.222101D-01
     35  0.411886D-03 -0.149713D-01 -0.168754D-02 -0.226637D-01 -0.234973D-02
     36 -0.179307D-01 -0.810135D-02 -0.667605D-02  0.235636D-01  0.176909D-01
     37  0.177125D+00  0.225724D+00  0.264248D+00 -0.183452D-01 -0.705742D-02
     38  0.247835D+00 -0.120909D+00  0.155076D+00 -0.428069D-02  0.711898D-01
     39  0.202475D+00  0.107161D+00 -0.116739D+00 -0.189223D-01  0.110685D-01
     40  0.288331D-01  0.655579D-01  0.843476D-01  0.605174D-02 -0.123371D-01
     41  0.472273D-01 -0.512001D-01  0.363592D-01 -0.608792D-02  0.207015D-02
     42  0.151125D+00  0.856423D-01  0.454431D-01 -0.113596D-01 -0.162420D-01
     43  0.762549D-02  0.244919D-01  0.106401D-01 -0.316106D-02  0.406020D-01
     44  0.459790D-01  0.271513D-01  0.190670D-01  0.360175D-01  0.602546D-01
     45  0.141186D-01  0.130435D-01 -0.109861D-01  0.215380D-01  0.492955D-01
     46  0.507622D-01  0.213636D-01  0.199743D-01 -0.200780D-01 -0.122173D-01
     47 -0.218229D-02 -0.170321D-01  0.132436D-02 -0.157099D-01  0.136946D-02
     48  0.612017D-02  0.276544D-02 -0.135067D-01 -0.185780D-01 -0.100483D-01
               21            22            23            24            25
     21  0.484308D+01
     22  0.637386D-01  0.107938D+02
     23  0.249566D-01 -0.176174D+01  0.185606D+02
     24 -0.282850D+01 -0.139896D+00  0.110019D+01  0.136102D+02
     25  0.444444D-01 -0.533650D+01  0.582147D+00 -0.209046D+01  0.140346D+02
     26  0.517511D-01  0.590173D+00 -0.573876D+01 -0.135020D+01 -0.326784D+00
     27 -0.225538D-01 -0.192006D+01 -0.130266D+01 -0.169313D+01  0.142810D+01
     28 -0.132387D-01  0.698591D-01  0.140890D-01  0.506410D-02 -0.424064D+01
     29 -0.357208D-01  0.461511D-01  0.195062D+00 -0.469398D-01  0.143944D+00
     30 -0.621253D-02 -0.338399D-02  0.130527D-01  0.216683D-01 -0.453660D-02
     31  0.697474D-02  0.860872D-01  0.141041D-01  0.491435D-01 -0.361097D+01
     32  0.119978D-01  0.160365D-01  0.579549D-01  0.586939D-01  0.449099D+00
     33 -0.114920D-01 -0.520510D-01  0.422042D-01  0.107587D-02  0.152515D+01
     34  0.244838D-01  0.128716D-01 -0.408180D-01  0.109259D-01 -0.181453D+01
     35  0.152583D-01 -0.491660D-01  0.787766D-01  0.270814D-01 -0.886649D+00
     36 -0.202962D-02  0.787114D-01  0.857445D-02  0.600468D-01 -0.458432D+00
     37 -0.359163D-01 -0.438146D+01  0.191804D+00  0.247479D+01 -0.575945D-01
     38 -0.216055D-02  0.248826D+00 -0.596561D+01  0.424972D+00 -0.106485D-01
     39 -0.236104D-01  0.237079D+01  0.371262D+00 -0.221793D+01  0.813659D-01
     40 -0.193186D-01  0.598200D-01  0.188532D-01 -0.573034D-01 -0.513046D-01
     41 -0.202068D-01  0.394571D-03  0.592758D-01 -0.466358D-01  0.454920D-02
     42 -0.307925D-01  0.275605D-01 -0.345150D-01 -0.103954D-02 -0.260589D-01
     43  0.211301D-01  0.683445D-01  0.745931D-02 -0.103662D-01 -0.171846D-01
     44  0.416331D-01  0.435188D-01  0.182821D+00  0.694766D-01  0.904296D-02
     45  0.396280D-02 -0.123234D-02  0.156744D-01  0.541609D-01  0.393671D-02
     46 -0.184519D-01  0.238616D-01 -0.535799D-01 -0.147354D-01  0.249358D-02
     47 -0.868282D-02 -0.483534D-01  0.875521D-01 -0.201586D-01 -0.115952D-01
     48 -0.948858D-03 -0.834908D-01 -0.345708D-02  0.509635D-01 -0.545900D-02
               26            27            28            29            30
     26  0.157460D+02
     27  0.867907D+00  0.126659D+02
     28  0.334659D+00 -0.143214D-02  0.399769D+01
     29 -0.138483D+01 -0.462613D-01 -0.455471D+00  0.118962D+01
     30 -0.192147D+00 -0.423697D+01  0.426782D-01  0.295559D+00  0.412020D+01
     31  0.390305D+00  0.118039D+01  0.507467D-01 -0.185336D-01 -0.127588D-01
     32 -0.426827D+01  0.579756D+00 -0.640931D-01 -0.716340D-02 -0.655694D-01
     33  0.652735D+00 -0.255323D+01 -0.285037D-01 -0.412624D-01  0.468788D-01
     34 -0.955245D+00 -0.334350D+00  0.467078D-01  0.903597D-01 -0.338528D-02
     35 -0.383218D+01  0.130096D+00  0.108683D+00 -0.616445D-01 -0.353862D-02
     36  0.190265D+00 -0.414857D+01  0.788513D-02 -0.191787D-01  0.887560D-01
     37  0.312241D-02 -0.131412D-01 -0.180485D-01  0.237821D-02  0.110545D-02
     38 -0.596557D-01 -0.500668D-01 -0.348548D-02  0.135639D-01 -0.191770D-01
     39 -0.155673D-01  0.276925D+00  0.845281D-02 -0.411036D-01  0.391725D-02
     40  0.330757D-02 -0.227815D-01 -0.286276D-03  0.405031D-02 -0.117094D-02
     41 -0.351766D-01 -0.617796D-01  0.234463D-03  0.432363D-02 -0.377529D-03
     42 -0.566667D-01  0.189800D+00 -0.473260D-03 -0.865531D-02 -0.685448D-03
     43  0.365855D-03 -0.540437D-02 -0.174686D-01 -0.282542D-02  0.854151D-02
     44 -0.153166D-04  0.338638D-01 -0.531291D-04 -0.273680D-01  0.357911D-02
     45  0.135565D-01  0.122408D-01  0.340415D-02 -0.208470D-01  0.505939D-01
     46 -0.448440D-02  0.106111D-01 -0.200478D-03 -0.126535D-01  0.375655D-02
     47 -0.722792D-02 -0.177349D-01 -0.113178D-02  0.677852D-02 -0.259139D-02
     48 -0.252108D-02 -0.163144D-01  0.616055D-03 -0.339563D-02 -0.118639D-02
               31            32            33            34            35
     31  0.353435D+01
     32 -0.374526D+00  0.433967D+01
     33 -0.112821D+01 -0.619954D+00  0.220826D+01
     34 -0.557159D-01  0.221310D-01 -0.597885D-01  0.153326D+01
     35 -0.609341D-02  0.749978D-01  0.522518D-02  0.920540D+00  0.385055D+01
     36 -0.712383D-01  0.189332D-01  0.548816D-01  0.547647D+00 -0.210675D+00
     37 -0.367723D-01  0.128095D-02  0.651768D-01  0.513931D-02 -0.887475D-02
     38 -0.462543D-03 -0.490358D-01  0.586447D-02 -0.207397D-02 -0.593186D-02
     39  0.616160D-01  0.120364D-01  0.189360D+00 -0.550829D-02  0.197293D-01
     40 -0.105332D-02 -0.277534D-03 -0.526320D-02  0.359890D-02 -0.148911D-02
     41 -0.183579D-02 -0.505063D-03 -0.327923D-02  0.374050D-02 -0.341927D-02
     42  0.541565D-02  0.329781D-02  0.121621D-02 -0.133228D-01  0.268969D-02
     43 -0.605075D-04  0.371839D-03  0.878024D-03 -0.117214D-02 -0.369533D-03
     44  0.511548D-02  0.240001D-02  0.898066D-02 -0.105555D-01  0.469517D-02
     45  0.238912D-02  0.132345D-02  0.178289D-02 -0.605586D-02  0.380089D-02
     46  0.670690D-02  0.111961D-02  0.151430D-01 -0.280931D-01  0.290344D-02
     47 -0.334282D-02 -0.313358D-02 -0.513362D-02  0.506385D-02 -0.194111D-01
     48  0.515223D-02 -0.315174D-03  0.641276D-02 -0.581784D-02 -0.298576D-02
               36            37            38            39            40
     36  0.394385D+01
     37  0.548941D-02  0.132610D+02
     38  0.487268D-02 -0.194389D+00  0.154311D+02
     39 -0.222312D-01 -0.205368D+01 -0.193811D+00  0.124956D+02
     40 -0.481259D-02 -0.376386D+01  0.453659D+00 -0.852327D+00  0.371608D+01
     41 -0.249219D-02  0.537766D+00 -0.370566D+01 -0.928105D+00 -0.489640D+00
     42  0.945490D-02 -0.110596D+01 -0.102234D+01 -0.238386D+01  0.783853D+00
     43 -0.595763D-03 -0.406438D+01  0.416847D+00  0.808370D-01  0.554934D-01
     44  0.653236D-02  0.265880D+00 -0.150210D+01  0.573185D+00 -0.286081D-01
     45  0.142210D-02  0.614308D-01  0.722127D+00 -0.394777D+01  0.135730D-01
     46  0.189905D-01 -0.176414D+01 -0.986533D+00 -0.283710D+00 -0.232354D-01
     47 -0.126162D-01 -0.937052D+00 -0.372040D+01  0.110241D+00 -0.223640D-01
     48  0.454701D-01 -0.127943D+00  0.513564D-01 -0.412069D+01  0.712978D-01
               41            42            43            44            45
     41  0.373767D+01
     42  0.101358D+01  0.201541D+01
     43 -0.658171D-01  0.205207D-01  0.389525D+01
     44 -0.461007D-01  0.439744D-01 -0.503295D+00  0.136291D+01
     45  0.658806D-01  0.645062D-01 -0.159583D+00 -0.809376D+00  0.371290D+01
     46  0.750435D-02  0.641305D-01  0.508378D-01  0.725217D-01  0.251145D-01
     47  0.735915D-01  0.477886D-02  0.956401D-01 -0.483667D-01 -0.410229D-01
     48 -0.152302D-01  0.314162D-01  0.181126D-01 -0.199911D-01  0.752559D-01
               46            47            48
     46  0.142597D+01
     47  0.101839D+01  0.370382D+01
     48  0.598834D-01  0.140183D-01  0.399305D+01
 ReadGW:  IGet=0 IStart=         114 Next=        7248 LGW=        7134.
 ICntrl=12127.
 Symmetry not used in FoFDir.
 MinBra= 0 MaxBra= 2 Meth= 1.
 IRaf=       0 NMat=   1 IRICut=       1 DoRegI=T DoRafI=F ISym2E= 0 JSym2E=0.
 PrsmSu:  NPrtUS=   8 ThrOK=T
 PRISM was handed    16288046 working-precision words and  2440 shell-pairs
 PRISM was handed    16288046 working-precision words and  2440 shell-pairs
 PRISM was handed    16288046 working-precision words and  2440 shell-pairs
 PRISM was handed    16288046 working-precision words and  2440 shell-pairs
 PRISM was handed    16288046 working-precision words and  2440 shell-pairs
 PRISM was handed    16288046 working-precision words and  2440 shell-pairs
 PRISM was handed    16288046 working-precision words and  2440 shell-pairs
 PRISM was handed    16288046 working-precision words and  2440 shell-pairs
 Pruned (  75, 302) grid will be used in CalDFT.
 CkSvGd:  ISavGI=        -1 IRadAn=       4 IRASav=       4 ISavGd=        -1.
 CalDSu:  NPrtUS=   8 ThrOK=T
 IPart= 0 IRanGd=          0 ScrnBf=T ScrnGd=T RCrit=4.00D+00 DoMicB=T.
 IPart= 6 IRanGd=          0 ScrnBf=T ScrnGd=T RCrit=4.00D+00 DoMicB=T.
 IPart= 4 IRanGd=          0 ScrnBf=T ScrnGd=T RCrit=4.00D+00 DoMicB=T.
 CutRad = 1000.00    CtRdIn =    0.00    XCrit =  15.00   ICut = 0
 IPart= 2 IRanGd=          0 ScrnBf=T ScrnGd=T RCrit=4.00D+00 DoMicB=T.
 CutRad = 1000.00    CtRdIn =    0.00    XCrit =  15.00   ICut = 0
 CutRad = 1000.00    CtRdIn =    0.00    XCrit =  15.00   ICut = 0
 CutRad = 1000.00    CtRdIn =    0.00    XCrit =  15.00   ICut = 0
 IPart= 5 IRanGd=          0 ScrnBf=T ScrnGd=T RCrit=4.00D+00 DoMicB=T.
 IPart= 7 IRanGd=          0 ScrnBf=T ScrnGd=T RCrit=4.00D+00 DoMicB=T.
 IPart= 1 IRanGd=          0 ScrnBf=T ScrnGd=T RCrit=4.00D+00 DoMicB=T.
 CutRad = 1000.00    CtRdIn =    0.00    XCrit =  15.00   ICut = 0
 CutRad = 1000.00    CtRdIn =    0.00    XCrit =  15.00   ICut = 0
 IPart= 3 IRanGd=          0 ScrnBf=T ScrnGd=T RCrit=4.00D+00 DoMicB=T.
 CutRad = 1000.00    CtRdIn =    0.00    XCrit =  15.00   ICut = 0
 CutRad = 1000.00    CtRdIn =    0.00    XCrit =  15.00   ICut = 0
 IPart= 0        14282 of        16448 points in      35 batches and      104 microbatches, Max-NSigAt=      16 Max-NSgAt2=      16
 IPart= 4        14350 of        16232 points in      33 batches and      112 microbatches, Max-NSigAt=      16 Max-NSgAt2=      16
 IPart= 6        13794 of        15430 points in      31 batches and      102 microbatches, Max-NSigAt=      16 Max-NSgAt2=      16
 IPart= 3        13743 of        16422 points in      35 batches and       95 microbatches, Max-NSigAt=      16 Max-NSgAt2=      16
 IPart= 7        13195 of        14660 points in      30 batches and       88 microbatches, Max-NSigAt=      16 Max-NSgAt2=      16
 IPart= 5        13813 of        15536 points in      32 batches and       92 microbatches, Max-NSigAt=      16 Max-NSgAt2=      16
 IPart= 2        14506 of        16858 points in      36 batches and       93 microbatches, Max-NSigAt=      16 Max-NSgAt2=      16
 IPart= 1        14467 of        16496 points in      32 batches and       87 microbatches, Max-NSigAt=      16 Max-NSgAt2=      16
 Polarizability after L703:
                1             2             3
      1  0.787956D+02
      2  0.483741D+01  0.534108D+02
      3  0.268620D+01 -0.118757D+01  0.558338D+02
 Dipole Derivatives after L703:
               1            2            3            4            5
      1-0.429474D+00-0.106292D+00-0.109782D+00 0.288073D+00 0.742279D-02
      2 0.616457D-01-0.923187D-01 0.104182D+00 0.556236D-01 0.147174D+00
      3-0.142865D+00 0.102177D+00-0.317236D+00 0.519937D-01-0.571175D-01
               6            7            8            9           10
      1 0.105786D+00-0.217080D+00 0.288678D+00-0.191864D+00 0.535073D+00
      2-0.456945D-01 0.689100D-01-0.369649D+00 0.109665D+00-0.100928D+00
      3 0.315577D+00-0.677858D-01 0.413825D-01-0.433771D+00 0.660075D-01
              11           12           13           14           15
      1-0.664163D+00 0.277608D+00 0.783036D-02 0.725580D-01-0.673590D-02
      2 0.660318D+00-0.117448D+00 0.429453D-01-0.242106D-01-0.465978D-01
      3-0.890434D-01 0.657198D+00 0.683525D-01-0.552563D-01-0.110545D+00
              16           17           18           19           20
      1-0.285030D+00 0.148957D+00-0.912215D-01-0.217454D+00-0.191308D+00
      2-0.241763D+00-0.714880D+00 0.237203D-02-0.121182D-01 0.880425D-01
      3-0.410482D-01 0.863661D-01-0.370981D+00 0.557681D-01 0.200447D-01
              21           22           23           24           25
      1 0.431028D-01 0.271082D+00 0.722478D+00 0.303605D-01 0.884513D-01
      2-0.763660D-02 0.148177D+00 0.223896D+00-0.285150D-02-0.132492D-01
      3 0.943367D-01 0.217026D-01-0.878046D-01 0.179089D+00-0.227315D-01
              26           27           28           29           30
      1-0.172447D+00-0.554751D-01 0.447158D-01-0.321704D-01 0.592266D-01
      2 0.380577D-01-0.402013D-02-0.244909D-01-0.109244D+00-0.943492D-03
      3 0.963738D-01-0.596229D-01 0.398255D-01 0.124602D-01 0.279493D-01
              31           32           33           34           35
      1 0.423957D-01-0.270421D-01-0.596136D-01-0.120593D+00 0.871121D-01
      2-0.372955D-01 0.667673D-01-0.124690D-01 0.574472D-01 0.427916D-01
      3-0.789490D-01-0.425825D-01-0.286485D-01 0.474891D-01-0.320453D-02
              36           37           38           39           40
      1 0.104572D-01 0.574556D-01-0.166936D+00-0.506251D-02 0.265361D-01
      2 0.203000D-01 0.174507D-02 0.617246D-01 0.207241D-01-0.502796D-01
      3 0.584925D-01-0.184241D-01-0.414079D-01-0.464577D-01 0.750681D-01
              41           42           43           44           45
      1-0.205915D-01 0.362919D-01 0.238557D-01-0.291168D-01-0.665452D-01
      2 0.457802D-01 0.399290D-01-0.173822D-01-0.113560D+00-0.279164D-01
      3 0.754579D-01-0.495557D-01-0.392026D-01-0.467219D-01 0.359298D-01
              46           47           48
      1-0.115838D+00 0.828607D-01 0.234668D-01
      2 0.610129D-01 0.493115D-01-0.315958D-01
      3-0.152005D-01-0.111235D-01 0.482467D-01
 Hessian after L703:
                1             2             3             4             5
      1  0.292341D+00
      2  0.562256D-01  0.480312D+00
      3  0.673051D-02  0.166341D+00  0.105773D+00
      4 -0.426905D-01 -0.212423D-01 -0.368544D-02  0.766162D-01
      5 -0.686359D-01 -0.431351D+00 -0.164505D+00  0.650856D-01  0.424796D+00
      6 -0.234413D-01 -0.170093D+00 -0.696479D-01  0.168455D-01  0.162640D+00
      7 -0.207757D+00 -0.564890D-01  0.344912D-01 -0.330040D-01  0.447463D-02
      8  0.104869D-01 -0.483063D-01  0.314049D-04 -0.398365D-01  0.362431D-02
      9  0.205807D-01  0.181262D-02 -0.465073D-01 -0.135372D-01  0.463634D-02
     10 -0.542540D-01  0.159907D-01 -0.346855D-01 -0.307443D-02  0.102699D-02
     11  0.226445D-02 -0.591759D-02 -0.338292D-02 -0.634292D-02  0.570925D-02
     12 -0.860056D-03  0.196216D-02  0.846824D-02 -0.584025D-03 -0.257308D-02
     13  0.456436D-02 -0.218396D-03 -0.103087D-02 -0.230252D-03 -0.334632D-04
     14 -0.998988D-03 -0.715547D-03 -0.909683D-03  0.178249D-03 -0.385056D-03
     15  0.188447D-02 -0.758576D-03  0.415992D-02 -0.173039D-04  0.612107D-03
     16  0.495191D-02  0.286859D-02  0.960946D-03  0.204624D-02 -0.164699D-02
     17 -0.112177D-02  0.453191D-02 -0.571702D-03  0.160252D-02 -0.216230D-02
     18  0.233583D-02 -0.889748D-03  0.114326D-02  0.967192D-03 -0.144895D-02
     19 -0.527614D-03 -0.719140D-04 -0.646316D-03  0.132006D-03 -0.420045D-03
     20  0.602699D-03  0.558009D-03 -0.246720D-03  0.545105D-03 -0.437952D-03
     21 -0.734526D-04  0.645104D-04 -0.333101D-03  0.108460D-03  0.882974D-05
     22  0.541959D-02  0.157784D-02 -0.848813D-03 -0.196509D-03  0.153853D-03
     23 -0.769870D-03  0.435659D-03  0.354593D-02 -0.648078D-03  0.102849D-02
     24 -0.689974D-02  0.196409D-02 -0.376114D-02 -0.817908D-04  0.548198D-03
     25  0.812767D-03  0.251005D-03  0.845290D-04  0.129423D-03 -0.104269D-04
     26  0.603563D-03  0.921661D-04 -0.688757D-03  0.167474D-03 -0.450786D-03
     27 -0.363543D-03  0.582836D-05 -0.108606D-02 -0.404813D-04 -0.485094D-04
     28  0.704707D-04  0.535342D-03 -0.235474D-03  0.202325D-03 -0.140184D-03
     29 -0.270091D-03  0.243364D-03 -0.150114D-03  0.899587D-04 -0.188482D-04
     30  0.458459D-04 -0.146657D-03  0.115907D-03 -0.117274D-03  0.832859D-04
     31 -0.220273D-03  0.143072D-03  0.353615D-04 -0.789280D-04 -0.104858D-03
     32 -0.232004D-03 -0.257217D-03  0.441296D-03 -0.100527D-03  0.163623D-03
     33 -0.373023D-03  0.000000D+00  0.667845D-03  0.111488D-03  0.105311D-03
     34 -0.363168D-03 -0.408301D-04  0.860666D-04  0.628453D-04  0.999754D-04
     35 -0.832146D-04  0.192044D-03 -0.619887D-04  0.434558D-04  0.204462D-04
     36  0.590016D-05 -0.140391D-03  0.563148D-03 -0.578980D-05  0.376916D-04
     37 -0.212918D-02  0.337398D-03 -0.943231D-03 -0.405131D-04  0.207051D-03
     38  0.232299D-02  0.162607D-03  0.286508D-03  0.515083D-03 -0.626355D-03
     39  0.151453D-02 -0.315124D-03  0.897475D-03 -0.332032D-04 -0.151621D-03
     40  0.447868D-04 -0.388674D-04  0.114699D-03 -0.278334D-04 -0.168078D-04
     41  0.452271D-04  0.665393D-05  0.308581D-04 -0.249475D-04  0.413615D-04
     42 -0.173953D-03 -0.519769D-04  0.900397D-04 -0.512294D-04  0.561827D-04
     43  0.175916D-03  0.136446D-03 -0.489466D-04  0.138533D-03 -0.129498D-03
     44 -0.196491D-03  0.877625D-05 -0.912310D-04  0.424572D-05  0.619576D-05
     45  0.103287D-03  0.102487D-03 -0.137040D-03  0.128698D-03 -0.100439D-03
     46 -0.438740D-03  0.353712D-04 -0.378709D-03  0.153335D-04  0.901419D-04
     47 -0.243054D-03  0.416946D-05 -0.692173D-04 -0.364637D-04  0.427664D-04
     48 -0.101598D-02  0.142280D-03 -0.405930D-03 -0.753574D-05  0.100200D-03
                6             7             8             9            10
      6  0.681383D-01
      7  0.795683D-02  0.349837D+00
      8  0.103055D-01  0.100091D-01  0.159099D+00
      9  0.304366D-02  0.199998D-01 -0.991617D-01  0.263909D+00
     10 -0.343388D-02 -0.798095D-01 -0.330296D-02  0.292619D-02  0.508670D+00
     11 -0.277531D-02  0.163427D-01 -0.718003D-01  0.372757D-01 -0.696379D-01
     12 -0.138548D-02 -0.399898D-01  0.467977D-01 -0.187932D+00 -0.716771D-01
     13  0.252759D-03  0.109254D-02  0.737980D-03 -0.218231D-01 -0.886390D-01
     14 -0.259353D-03 -0.188334D-03  0.714575D-02  0.230481D-01  0.337308D-01
     15 -0.253177D-04  0.167890D-02  0.192873D-02 -0.415452D-01  0.770860D-01
     16  0.899837D-03  0.417618D-02  0.191751D-01 -0.649275D-02 -0.792329D-01
     17  0.871298D-04  0.984425D-02 -0.481426D-01  0.339070D-01 -0.180466D-01
     18 -0.599372D-03  0.743583D-03  0.412964D-01  0.357221D-02  0.716706D-03
     19  0.937815D-03  0.218314D-03 -0.478642D-03  0.979229D-03  0.781959D-02
     20  0.760382D-03 -0.507001D-03  0.375567D-03 -0.139586D-02  0.402335D-01
     21  0.335698D-03 -0.459672D-03  0.111921D-02 -0.144744D-02  0.401283D-02
     22 -0.445976D-03 -0.256432D-01  0.473512D-02 -0.674529D-02 -0.186294D+00
     23 -0.144129D-02  0.154410D-01 -0.584488D-02  0.222910D-02 -0.427848D-02
     24  0.979366D-04 -0.254109D-01 -0.305405D-02  0.605603D-02  0.220911D-01
     25  0.778945D-04 -0.280023D-02 -0.402436D-03  0.175369D-02 -0.114023D-01
     26  0.448051D-03 -0.198396D-03  0.151866D-02 -0.717205D-03  0.278847D-02
     27  0.319808D-03  0.712321D-03  0.588120D-03 -0.809935D-03  0.526149D-02
     28  0.607368D-04 -0.449543D-03  0.370320D-03 -0.278113D-03  0.322127D-03
     29  0.000000D+00  0.676507D-04  0.225908D-03 -0.155887D-03  0.479401D-03
     30 -0.153732D-03  0.403503D-03 -0.354635D-03  0.300858D-03 -0.560501D-03
     31  0.781723D-04 -0.248956D-02  0.363188D-03  0.293513D-03  0.100854D-02
     32 -0.429565D-04  0.199212D-03 -0.249567D-03  0.470270D-04 -0.434854D-03
     33 -0.151339D-04  0.551527D-04  0.440901D-04  0.501955D-03 -0.151483D-02
     34  0.241195D-04 -0.983590D-05 -0.210054D-03  0.402126D-03  0.112236D-02
     35 -0.424573D-04  0.106699D-03 -0.719669D-04  0.453948D-04 -0.139904D-02
     36 -0.933615D-04 -0.105189D-02  0.116484D-03  0.185019D-03 -0.198871D-03
     37  0.606633D-04 -0.259146D-02 -0.185973D-02  0.164830D-02 -0.180696D-01
     38  0.458155D-03  0.123406D-02  0.275977D-02 -0.150313D-02  0.469331D-02
     39 -0.109476D-03  0.148995D-02  0.372693D-03 -0.682857D-03 -0.158360D-02
     40 -0.419282D-04  0.233815D-03 -0.179962D-04  0.225375D-03  0.478495D-03
     41 -0.283340D-04  0.913350D-04 -0.214378D-03 -0.315561D-03 -0.615401D-03
     42 -0.703605D-04  0.228237D-03 -0.159454D-03  0.740212D-03  0.153892D-02
     43  0.116098D-03 -0.177818D-03  0.676655D-03 -0.109418D-03  0.108578D-02
     44  0.160395D-04 -0.142790D-03  0.693668D-04  0.107289D-03  0.370146D-04
     45  0.129515D-03 -0.866709D-04  0.591369D-03 -0.275527D-03  0.911039D-03
     46  0.526831D-04 -0.825488D-03 -0.446075D-03  0.177033D-03  0.268665D-03
     47 -0.316780D-04 -0.285040D-03 -0.188634D-03  0.140783D-03 -0.126509D-02
     48  0.351870D-04 -0.760539D-03 -0.461804D-03  0.891634D-03 -0.889966D-03
               11            12            13            14            15
     11  0.394795D+00
     12  0.818892D-01  0.575388D+00
     13  0.350818D-01  0.865232D-01  0.844260D-01
     14 -0.804710D-01 -0.877992D-01 -0.431374D-01  0.103674D+00
     15 -0.876076D-01 -0.228742D+00 -0.802277D-01  0.888317D-01  0.258209D+00
     16 -0.157848D-01  0.441178D-02  0.688674D-02  0.109578D-01  0.207269D-02
     17 -0.170162D+00 -0.310134D-01 -0.237225D-02 -0.294662D-01 -0.253244D-02
     18 -0.175943D-01 -0.749669D-01 -0.553367D-02 -0.242665D-01  0.540364D-02
     19  0.247812D-01  0.315879D-02 -0.697116D-03 -0.865111D-04 -0.775789D-03
     20 -0.427266D-01 -0.122785D-01  0.139145D-02 -0.139642D-02 -0.279142D-03
     21 -0.890004D-02  0.655856D-02  0.481293D-03 -0.166332D-02 -0.159549D-03
     22  0.264337D-01  0.218657D-01 -0.590845D-02 -0.802912D-03 -0.808345D-03
     23 -0.208514D-01  0.130380D-02  0.720155D-02  0.245362D-03 -0.603048D-03
     24  0.133480D-02 -0.892047D-01  0.209789D-01  0.265119D-02  0.104953D-02
     25 -0.680713D-02  0.272077D-01 -0.271146D-02 -0.696241D-03 -0.401765D-03
     26 -0.562895D-02 -0.116512D-01  0.273282D-02  0.127198D-02 -0.265116D-04
     27 -0.147124D-02 -0.496561D-03 -0.782191D-03  0.163152D-03  0.122567D-03
     28 -0.256873D-02 -0.159356D-03  0.750772D-04  0.190309D-03  0.109652D-04
     29 -0.325617D-03  0.590139D-03 -0.192355D-03  0.176674D-04 -0.952938D-05
     30  0.226363D-02  0.100991D-02 -0.124981D-03 -0.242410D-03 -0.941846D-04
     31 -0.316316D-03  0.571639D-03  0.129717D-03  0.226210D-03 -0.179372D-03
     32  0.160640D-02 -0.710326D-03  0.437598D-04 -0.168755D-03  0.163137D-03
     33 -0.113221D-04 -0.119866D-02  0.200527D-04 -0.326219D-04  0.194187D-03
     34  0.478578D-03  0.152499D-02 -0.399726D-03 -0.170310D-03  0.262720D-04
     35  0.674522D-03  0.291714D-02 -0.499493D-03 -0.170354D-03 -0.970764D-04
     36  0.963832D-03 -0.581993D-02  0.115263D-02  0.202085D-03  0.149464D-03
     37 -0.241529D-02 -0.279396D-01  0.166728D-02  0.327095D-03 -0.634441D-03
     38 -0.822680D-02  0.110778D-01 -0.670012D-03  0.942036D-03  0.485573D-03
     39 -0.116695D-02  0.383646D-02  0.106204D-02 -0.363693D-03  0.461114D-03
     40  0.549034D-03 -0.142350D-02 -0.250604D-03  0.235737D-03  0.117352D-04
     41  0.115996D-02  0.875376D-03  0.429376D-03 -0.291073D-03 -0.158533D-03
     42  0.744647D-03 -0.101598D-02 -0.548205D-03  0.173340D-03  0.476922D-03
     43 -0.293596D-02  0.532962D-03 -0.414640D-03  0.262054D-03  0.382101D-03
     44  0.647485D-03 -0.235665D-03 -0.432398D-03 -0.136656D-03  0.160368D-04
     45 -0.184982D-02  0.966273D-03 -0.213870D-03  0.258071D-03  0.189009D-03
     46  0.877600D-03 -0.316338D-02  0.409535D-03 -0.275772D-04 -0.108385D-03
     47  0.151788D-02 -0.115204D-02 -0.629024D-04 -0.955386D-04  0.352044D-04
     48  0.287737D-03 -0.546497D-02 -0.186244D-03  0.209069D-03  0.151290D-03
               16            17            18            19            20
     16  0.910027D-01
     17  0.744054D-01  0.285541D+00
     18  0.252158D-02 -0.107896D-01  0.615236D-01
     19  0.503854D-01 -0.239807D-01 -0.155935D-01 -0.721654D-01
     20  0.473810D-01 -0.259971D-01 -0.832160D-02 -0.101507D+00  0.805154D-01
     21 -0.440002D-02  0.557559D-02 -0.122627D-01  0.877086D-02  0.207444D-01
     22 -0.762661D-01 -0.396170D-01  0.139737D-01  0.184150D-01  0.141346D-01
     23 -0.136563D+00 -0.150680D-01  0.226386D-01  0.131213D+00 -0.362085D-02
     24 -0.104823D-02  0.439121D-02  0.117154D-01  0.664491D-02  0.680850D-04
     25 -0.146945D-02 -0.168574D-02 -0.196921D-02 -0.854568D-03 -0.114934D-02
     26  0.997322D-03 -0.485127D-03 -0.144390D-03 -0.169538D-01 -0.804200D-02
     27 -0.385868D-02  0.272713D-02  0.186837D-02  0.594123D-02  0.476415D-02
     28 -0.467523D-03  0.120515D-02  0.221119D-03 -0.578794D-03 -0.185446D-03
     29 -0.166065D-02  0.432058D-03  0.000000D+00  0.154028D-02  0.161719D-02
     30  0.188452D-02 -0.601577D-03 -0.364727D-03  0.822795D-03  0.180086D-03
     31  0.420496D-03  0.887699D-04 -0.554903D-03 -0.574410D-03 -0.478764D-03
     32  0.202957D-03 -0.536484D-03 -0.466054D-03  0.721477D-03  0.253582D-03
     33  0.102505D-02  0.111639D-03  0.655028D-03 -0.113847D-02 -0.574390D-04
     34 -0.912118D-03 -0.760041D-05  0.195926D-03  0.121173D-02  0.588183D-03
     35 -0.271420D-03  0.568835D-03  0.145079D-04  0.830301D-03  0.117140D-02
     36  0.622485D-03  0.107921D-03  0.289841D-03 -0.115919D-02 -0.276388D-03
     37 -0.118521D-05 -0.148471D-02  0.151502D-02 -0.317781D-02 -0.141989D-02
     38  0.123830D-03  0.597764D-03 -0.610927D-03 -0.176687D-01 -0.505478D-02
     39  0.417404D-02 -0.755494D-03 -0.773325D-03 -0.925849D-02 -0.470090D-02
     40  0.605216D-03  0.543530D-04  0.432358D-03 -0.136789D-03 -0.406301D-03
     41  0.481549D-03 -0.472222D-03  0.134216D-04  0.348949D-03  0.337260D-03
     42 -0.692424D-03 -0.819688D-03  0.158247D-02  0.125127D-02  0.311759D-03
     43 -0.114978D-02  0.112135D-02  0.216101D-04 -0.837585D-03  0.222827D-03
     44 -0.687964D-03  0.442059D-03  0.456686D-03  0.126154D-02  0.154418D-02
     45 -0.174564D-02  0.329856D-03  0.766125D-03 -0.939503D-03  0.409497D-03
     46 -0.975820D-03 -0.545164D-05  0.670565D-05  0.136803D-02  0.554377D-03
     47  0.216030D-04  0.378277D-03  0.112457D-03  0.470734D-03  0.903127D-03
     48 -0.335190D-03 -0.153574D-03  0.446985D-03  0.100436D-02  0.318181D-03
               21            22            23            24            25
     21  0.398455D-01
     22 -0.805054D-02  0.510128D+00
     23 -0.202768D-01  0.190388D-01  0.181646D+00
     24 -0.222831D-01  0.716450D-03 -0.364180D-01  0.487380D+00
     25  0.162751D-02 -0.102876D+00 -0.142637D-01  0.432494D-01  0.561186D+00
     26  0.151990D-01 -0.735950D-02 -0.651607D-01  0.371133D-01 -0.193767D-01
     27 -0.292580D-02  0.367900D-01  0.234343D-01 -0.167222D+00  0.445392D-01
     28  0.136612D-02 -0.148015D-02 -0.145069D-01  0.158077D-02 -0.459157D-01
     29  0.960517D-03 -0.357093D-02 -0.115126D-01  0.498326D-02 -0.164665D-01
     30 -0.203599D-02  0.216577D-02  0.298204D-01 -0.464154D-02  0.823858D-04
     31  0.223801D-03  0.100152D-01  0.665105D-02  0.103755D-01 -0.135975D+00
     32  0.610069D-03  0.709901D-02  0.480036D-03  0.996424D-02 -0.419376D-01
     33 -0.175920D-03 -0.160454D-01 -0.716849D-02 -0.219782D-01 -0.117684D+00
     34 -0.489033D-03 -0.139690D-01  0.202597D-02  0.229175D-02 -0.266630D+00
[...]
    X7       -1.46592   0.00000   0.00000   0.00015   0.00016  -1.46575
    Y7        2.21998   0.00000   0.00000  -0.00002  -0.00003   2.21995
    Z7       -0.08891   0.00000   0.00000   0.00001   0.00000  -0.08891
    X8       -2.20756   0.00000   0.00000   0.00000   0.00000  -2.20756
    Y8       -0.20343   0.00000   0.00000  -0.00001  -0.00001  -0.20344
    Z8       -0.25417   0.00000   0.00000   0.00007   0.00007  -0.25410
    X9       -3.35954   0.00000   0.00000   0.00002   0.00002  -3.35952
    Y9       -1.03555   0.00000   0.00000  -0.00011  -0.00011  -1.03566
    Z9        2.22389   0.00000   0.00000   0.00004   0.00004   2.22393
   X10       -3.52194   0.00000   0.00000   0.00075   0.00074  -3.52120
   Y10       -3.10276   0.00000   0.00000  -0.00016  -0.00016  -3.10292
   Z10        2.26083   0.00000   0.00000   0.00023   0.00023   2.26106
   X11       -2.19824   0.00000   0.00000  -0.00037  -0.00037  -2.19861
   Y11       -0.48382  -0.00001   0.00000   0.00043   0.00043  -0.48339
   Z11        3.83188   0.00000   0.00000   0.00014   0.00013   3.83201
   X12       -5.25131   0.00000   0.00000  -0.00029  -0.00028  -5.25159
   Y12       -0.24063  -0.00001   0.00000  -0.00075  -0.00074  -0.24137
   Z12        2.44698   0.00000   0.00000  -0.00027  -0.00028   2.44671
   X13       -3.77195   0.00000   0.00000  -0.00001  -0.00001  -3.77197
   Y13       -0.51222   0.00000   0.00000   0.00022   0.00022  -0.51200
   Z13       -2.62131   0.00000   0.00000   0.00005   0.00005  -2.62127
   X14       -2.86769   0.00000   0.00000   0.00009   0.00009  -2.86760
   Y14        0.38577   0.00000   0.00000   0.00026   0.00026   0.38603
   Z14       -4.24426   0.00000   0.00000   0.00013   0.00012  -4.24414
   X15       -4.00267   0.00000   0.00000  -0.00015  -0.00016  -4.00283
   Y15       -2.52716   0.00000   0.00000   0.00027   0.00027  -2.52689
   Z15       -3.05981   0.00000   0.00000  -0.00008  -0.00009  -3.05990
   X16       -5.65531   0.00000   0.00000   0.00005   0.00005  -5.65525
   Y16        0.30011   0.00000   0.00000   0.00035   0.00037   0.30048
   Z16       -2.38711   0.00000   0.00000   0.00006   0.00006  -2.38705
         Item               Value     Threshold  Converged?
 Maximum Force            0.000019     0.000450     YES
 RMS     Force            0.000005     0.000300     YES
 Maximum Displacement     0.000742     0.001800     YES
 RMS     Displacement     0.000228     0.001200     YES
 Predicted change in Energy=-2.684130D-09
 Optimization completed.
    -- Stationary point found.
 GradGradGradGradGradGradGradGradGradGradGradGradGradGradGradGradGradGrad


 Test job not archived.
 1\1\GINC-NODE61\Freq\UB3LYP\CBSB7\C4H9O3(2)\NYEE\08-Jul-2014\0\\# freq
  nosymm b3lyp/cbsb7 iop(7/33=1)\\Title Card Required\\0,2\O,2.358082,-
 0.77021,0.60546\H,2.51241,0.126083,0.94244\O,0.923974,-0.878698,0.7806
 \C,0.329842,-0.233991,-0.319451\H,0.707565,-0.67116,-1.2474\O,0.49445,
 1.177694,-0.294206\H,-0.775731,1.174762,-0.04705\C,-1.168192,-0.107649
 ,-0.134501\C,-1.777791,-0.547991,1.176834\H,-1.863729,-1.64191,1.19638
 1\H,-1.16326,-0.256025,2.027743\H,-2.778873,-0.127336,1.294887\C,-1.99
 6032,-0.271056,-1.387139\H,-1.517514,0.204142,-2.245966\H,-2.118122,-1
 .337316,-1.619182\H,-2.992659,0.158812,-1.263202\\Version=AM64L-G03Rev
 D.01\HF=-383.4239423\S2=0.757148\S2-1=0.\S2A=0.750024\RMSD=6.528e-09\R
 MSF=4.790e-06\ZeroPoint=0.12592\Thermal=0.1343457\Dipole=-0.9129383,0.
 0954174,-0.155322\DipoleDeriv=-0.4294736,0.0616457,-0.1428655,-0.10629
 18,-0.0923187,0.1021772,-0.1097816,0.1041823,-0.3172361,0.2880732,0.05
 56236,0.0519937,0.0074228,0.1471738,-0.0571175,0.1057855,-0.0456945,0.
 3155768,-0.2170798,0.06891,-0.0677858,0.2886779,-0.3696494,0.0413825,-
 0.1918636,0.1096655,-0.4337706,0.5350725,-0.1009285,0.0660075,-0.66416
 27,0.6603177,-0.0890434,0.2776076,-0.1174478,0.6571975,0.0078304,0.042
 9453,0.0683525,0.072558,-0.0242106,-0.0552563,-0.0067359,-0.0465978,-0
 .1105455,-0.2850298,-0.241763,-0.0410482,0.1489572,-0.7148803,0.086366
 1,-0.0912215,0.002372,-0.3709813,-0.2174542,-0.0121182,0.0557681,-0.19
 13078,0.0880425,0.0200447,0.0431028,-0.0076366,0.0943367,0.2710819,0.1
 481775,0.0217026,0.7224778,0.2238962,-0.0878046,0.0303605,-0.0028515,0
 .1790887,0.0884513,-0.0132492,-0.0227315,-0.1724471,0.0380577,0.096373
 8,-0.0554751,-0.0040201,-0.0596229,0.0447158,-0.0244909,0.0398255,-0.0
 321704,-0.1092441,0.0124602,0.0592266,-0.0009435,0.0279493,0.0423957,-
 0.0372955,-0.078949,-0.0270421,0.0667673,-0.0425825,-0.0596136,-0.0124
 69,-0.0286485,-0.1205931,0.0574472,0.0474891,0.0871121,0.0427916,-0.00
 32045,0.0104572,0.0203,0.0584925,0.0574556,0.0017451,-0.0184241,-0.166
 9362,0.0617246,-0.0414079,-0.0050625,0.0207241,-0.0464577,0.0265361,-0
 .0502796,0.0750681,-0.0205915,0.0457802,0.0754579,0.0362919,0.039929,-
 0.0495557,0.0238557,-0.0173822,-0.0392026,-0.0291168,-0.1135601,-0.046
 7219,-0.0665452,-0.0279164,0.0359298,-0.1158377,0.0610129,-0.0152005,0
 .0828607,0.0493115,-0.0111235,0.0234668,-0.0315958,0.0482467\Polar=78.
 7955834,4.8374068,53.410795,2.6862016,-1.1875725,55.833778\PG=C01 [X(C
 4H9O3)]\NImag=1\\0.29234065,0.05622558,0.48031225,0.00673051,0.1663414
 7,0.10577262,-0.04269046,-0.02124228,-0.00368544,0.07661622,-0.0686359
 5,-0.43135092,-0.16450513,0.06508558,0.42479578,-0.02344128,-0.1700926
 2,-0.06964789,0.01684546,0.16263958,0.06813832,-0.20775698,-0.05648905
 ,0.03449116,-0.03300401,0.00447463,0.00795683,0.34983672,0.01048693,-0
 .04830634,0.00003140,-0.03983645,0.00362431,0.01030545,0.01000906,0.15
 909933,0.02058065,0.00181262,-0.04650729,-0.01353722,0.00463634,0.0030
 4366,0.01999978,-0.09916173,0.26390903,-0.05425404,0.01599069,-0.03468
 547,-0.00307443,0.00102699,-0.00343388,-0.07980950,-0.00330296,0.00292
 619,0.50867034,0.00226445,-0.00591759,-0.00338292,-0.00634292,0.005709
 25,-0.00277531,0.01634271,-0.07180027,0.03727570,-0.06963787,0.3947950
 8,-0.00086006,0.00196216,0.00846824,-0.00058403,-0.00257308,-0.0013854
 8,-0.03998977,0.04679773,-0.18793232,-0.07167713,0.08188917,0.57538843
 ,0.00456436,-0.00021840,-0.00103087,-0.00023025,-0.00003346,0.00025276
 ,0.00109254,0.00073798,-0.02182309,-0.08863903,0.03508175,0.08652323,0
 .08442603,-0.00099899,-0.00071555,-0.00090968,0.00017825,-0.00038506,-
 0.00025935,-0.00018833,0.00714575,0.02304814,0.03373084,-0.08047104,-0
 .08779917,-0.04313742,0.10367381,0.00188447,-0.00075858,0.00415992,-0.
 00001730,0.00061211,-0.00002532,0.00167890,0.00192873,-0.04154524,0.07
 708600,-0.08760762,-0.22874239,-0.08022773,0.08883169,0.25820903,0.004
 95191,0.00286859,0.00096095,0.00204624,-0.00164699,0.00089984,0.004176
 18,0.01917509,-0.00649275,-0.07923289,-0.01578480,0.00441178,0.0068867
 4,0.01095780,0.00207269,0.09100266,-0.00112177,0.00453191,-0.00057170,
 0.00160252,-0.00216230,0.00008713,0.00984425,-0.04814263,0.03390697,-0
 .01804655,-0.17016227,-0.03101338,-0.00237225,-0.02946617,-0.00253244,
 0.07440540,0.28554138,0.00233583,-0.00088975,0.00114326,0.00096719,-0.
 00144895,-0.00059937,0.00074358,0.04129639,0.00357221,0.00071671,-0.01
 759430,-0.07496687,-0.00553367,-0.02426649,0.00540364,0.00252158,-0.01
 078960,0.06152357,-0.00052761,-0.00007191,-0.00064632,0.00013201,-0.00
 042005,0.00093781,0.00021831,-0.00047864,0.00097923,0.00781959,0.02478
 118,0.00315879,-0.00069712,-0.00008651,-0.00077579,0.05038543,-0.02398
 072,-0.01559350,-0.07216543,0.00060270,0.00055801,-0.00024672,0.000545
 11,-0.00043795,0.00076038,-0.00050700,0.00037557,-0.00139586,0.0402335
 3,-0.04272664,-0.01227847,0.00139145,-0.00139642,-0.00027914,0.0473810
 1,-0.02599710,-0.00832160,-0.10150705,0.08051542,-0.00007345,0.0000645
 1,-0.00033310,0.00010846,0.00000883,0.00033570,-0.00045967,0.00111921,
 -0.00144744,0.00401283,-0.00890004,0.00655856,0.00048129,-0.00166332,-
 0.00015955,-0.00440002,0.00557559,-0.01226266,0.00877086,0.02074438,0.
 03984550,0.00541959,0.00157784,-0.00084881,-0.00019651,0.00015385,-0.0
 0044598,-0.02564316,0.00473512,-0.00674529,-0.18629415,0.02643372,0.02
 186568,-0.00590845,-0.00080291,-0.00080835,-0.07626609,-0.03961698,0.0
 1397365,0.01841502,0.01413460,-0.00805054,0.51012799,-0.00076987,0.000
 43566,0.00354593,-0.00064808,0.00102849,-0.00144129,0.01544101,-0.0058
 4488,0.00222910,-0.00427848,-0.02085139,0.00130380,0.00720155,0.000245
 36,-0.00060305,-0.13656333,-0.01506798,0.02263865,0.13121288,-0.003620
 85,-0.02027683,0.01903880,0.18164573,-0.00689974,0.00196409,-0.0037611
 4,-0.00008179,0.00054820,0.00009794,-0.02541087,-0.00305405,0.00605603
 ,0.02209108,0.00133480,-0.08920473,0.02097887,0.00265119,0.00104953,-0
 .00104823,0.00439121,0.01171545,0.00664491,0.00006809,-0.02228307,0.00
 071645,-0.03641804,0.48737969,0.00081277,0.00025101,0.00008453,0.00012
 942,-0.00001043,0.00007789,-0.00280023,-0.00040244,0.00175369,-0.01140
 226,-0.00680713,0.02720773,-0.00271146,-0.00069624,-0.00040176,-0.0014
 6945,-0.00168574,-0.00196921,-0.00085457,-0.00114934,0.00162751,-0.102
 87645,-0.01426370,0.04324939,0.56118593,0.00060356,0.00009217,-0.00068
 876,0.00016747,-0.00045079,0.00044805,-0.00019840,0.00151866,-0.000717
 20,0.00278847,-0.00562895,-0.01165116,0.00273282,0.00127198,-0.0000265
 1,0.00099732,-0.00048513,-0.00014439,-0.01695380,-0.00804200,0.0151990
 0,-0.00735950,-0.06516072,0.03711334,-0.01937673,0.51604260,-0.0003635
 4,0.00000583,-0.00108606,-0.00004048,-0.00004851,0.00031981,0.00071232
 ,0.00058812,-0.00080994,0.00526149,-0.00147124,-0.00049656,-0.00078219
 ,0.00016315,0.00012257,-0.00385868,0.00272713,0.00186837,0.00594123,0.
 00476415,-0.00292580,0.03678995,0.02343434,-0.16722203,0.04453916,0.03
 163923,0.49731225,0.00007047,0.00053534,-0.00023547,0.00020233,-0.0001
 4018,0.00006074,-0.00044954,0.00037032,-0.00027811,0.00032213,-0.00256
 873,-0.00015936,0.00007508,0.00019031,0.00001097,-0.00046752,0.0012051
 5,0.00022112,-0.00057879,-0.00018545,0.00136612,-0.00148015,-0.0145068
 7,0.00158077,-0.04591574,-0.01799350,0.00018403,0.04619154,-0.00027009
 ,0.00024336,-0.00015011,0.00008996,-0.00001885,-0.00000079,0.00006765,
 0.00022591,-0.00015589,0.00047940,-0.00032562,0.00059014,-0.00019236,0
 .00001767,-0.00000953,-0.00166065,0.00043206,-0.00000006,0.00154028,0.
 00161719,0.00096052,-0.00357093,-0.01151258,0.00498326,-0.01646653,-0.
 29441011,-0.00206712,0.02096753,0.32323805,0.00004585,-0.00014666,0.00
 011591,-0.00011727,0.00008329,-0.00015373,0.00040350,-0.00035463,0.000
 30086,-0.00056050,0.00226363,0.00100991,-0.00012498,-0.00024241,-0.000
 09418,0.00188452,-0.00060158,-0.00036473,0.00082280,0.00018009,-0.0020
 3599,0.00216577,0.02982043,-0.00464154,0.00008239,0.00307157,-0.043057
 58,-0.00265429,-0.00362220,0.04821702,-0.00022027,0.00014307,0.0000353
 6,-0.00007893,-0.00010486,0.00007817,-0.00248956,0.00036319,0.00029351
 ,0.00100854,-0.00031632,0.00057164,0.00012972,0.00022621,-0.00017937,0
 .00042050,0.00008877,-0.00055490,-0.00057441,-0.00047876,0.00022380,0.
 01001519,0.00665105,0.01037551,-0.13597546,-0.04314586,-0.12041039,-0.
 00148331,-0.00020778,-0.00090398,0.14445075,-0.00023200,-0.00025722,0.
 00044130,-0.00010053,0.00016362,-0.00004296,0.00019921,-0.00024957,0.0
 0004703,-0.00043485,0.00160640,-0.00071033,0.00004376,-0.00016875,0.00
 016314,0.00020296,-0.00053648,-0.00046605,0.00072148,0.00025358,0.0006
 1007,0.00709901,0.00048004,0.00996424,-0.04193756,-0.06472559,-0.05950
 121,-0.01858639,-0.00892251,-0.02540103,0.04742071,0.06869621,-0.00037
 302,-0.00000036,0.00066784,0.00011149,0.00010531,-0.00001513,0.0000551
 5,0.00004409,0.00050196,-0.00151483,-0.00001132,-0.00119866,0.00002005
 ,-0.00003262,0.00019419,0.00102505,0.00011164,0.00065503,-0.00113847,-
 0.00005744,-0.00017592,-0.01604536,-0.00716849,-0.02197824,-0.11768418
 ,-0.05776140,-0.20832640,0.00042737,-0.00027940,0.00060120,0.12935353,
 0.06088755,0.22868040,-0.00036317,-0.00004083,0.00008607,0.00006285,0.
 00009998,0.00002412,-0.00000984,-0.00021005,0.00040213,0.00112236,0.00
 047858,0.00152499,-0.00039973,-0.00017031,0.00002627,-0.00091212,-0.00
 000760,0.00019593,0.00121173,0.00058818,-0.00048903,-0.01396900,0.0020
 2597,0.00229175,-0.26662997,0.09469287,0.02253486,0.00314894,-0.000933
 30,-0.00080618,-0.01466337,0.00696027,0.00252294,0.28982049,-0.0000832
 1,0.00019204,-0.00006199,0.00004346,0.00002045,-0.00004246,0.00010670,
 -0.00007197,0.00004539,-0.00139904,0.00067452,0.00291714,-0.00049949,-
 0.00017035,-0.00009708,-0.00027142,0.00056884,0.00001451,0.00083030,0.
 00117140,-0.00054364,-0.01199392,0.00142839,0.00209972,0.09571625,-0.0
 8686045,-0.01170362,0.02980965,-0.01158321,-0.00311877,-0.00902238,0.0
 0322959,0.00213204,-0.10327256,0.09140913,0.00000590,-0.00014039,0.000
 56315,-0.00000579,0.00003769,-0.00009336,-0.00105189,0.00011648,0.0001
 8502,-0.00019887,0.00096383,-0.00581993,0.00115263,0.00020208,0.000149
 46,0.00062248,0.00010792,0.00028984,-0.00115919,-0.00027639,0.00072352
 ,0.02933988,-0.01028539,-0.00428665,0.02110790,-0.01058140,-0.05039226
 ,-0.00028139,-0.00040776,-0.00091639,-0.02171507,0.01149876,0.00433189
 ,-0.02784526,0.00902863,0.05399315,-0.00212918,0.00033740,-0.00094323,
 -0.00004051,0.00020705,0.00006066,-0.00259146,-0.00185973,0.00164830,-
 0.01806957,-0.00241529,-0.02793957,0.00166728,0.00032710,-0.00063444,-
 0.00000119,-0.00148471,0.00151502,-0.00317781,-0.00141989,-0.00183632,
 -0.11895264,-0.00617109,-0.05561230,0.00977989,0.00349141,0.01003893,0
 .00005702,-0.00013234,-0.00008403,-0.00117811,-0.00121973,0.00392197,0
 .00068637,-0.00007088,0.00090017,0.54621366,0.00232299,0.00016261,0.00
 028651,0.00051508,-0.00062636,0.00045816,0.00123406,0.00275977,-0.0015
 0313,0.00469331,-0.00822680,0.01107777,-0.00067001,0.00094204,0.000485
 57,0.00012383,0.00059776,-0.00061093,-0.01766867,-0.00505478,-0.011796
 50,-0.00312651,-0.05911046,-0.01610886,0.00729060,0.00662183,0.0120362
 6,0.00061348,0.00049834,-0.00122895,-0.00126038,-0.00024875,0.00243416
 ,0.00002644,-0.00014537,-0.00077938,-0.01209588,0.52836277,0.00151453,
 -0.00031512,0.00089748,-0.00003320,-0.00015162,-0.00010948,0.00148995,
 0.00037269,-0.00068286,-0.00158360,-0.00116695,0.00383646,0.00106204,-
 0.00036369,0.00046111,0.00417404,-0.00075549,-0.00077332,-0.00925849,-
 0.00470090,-0.00352050,-0.05241149,-0.00141914,-0.16297495,-0.01481386
 ,-0.00530552,-0.02593455,-0.00045093,-0.00062042,0.00174740,0.00214272
 ,0.00170635,-0.00319841,-0.00092005,-0.00027865,0.00137229,-0.04979937
 ,-0.02222240,0.50067055,0.00004479,-0.00003887,0.00011470,-0.00002783,
 -0.00001681,-0.00004193,0.00023382,-0.00001800,0.00022538,0.00047850,0
 .00054903,-0.00142350,-0.00025060,0.00023574,0.00001174,0.00060522,0.0
 0005435,0.00043236,-0.00013679,-0.00040630,-0.00002031,0.00887889,0.01
 005939,-0.01411726,-0.00210868,-0.00097864,-0.00244521,-0.00013533,-0.
 00002523,0.00019988,0.00054721,0.00009283,-0.00090666,0.00023354,-0.00
 017496,-0.00019931,-0.10182877,-0.05181703,0.09310748,0.10706128,0.000
 04523,0.00000665,0.00003086,-0.00002495,0.00004136,-0.00002833,0.00009
 134,-0.00021438,-0.00031556,-0.00061540,0.00115996,0.00087538,0.000429
 38,-0.00029107,-0.00015853,0.00048155,-0.00047222,0.00001342,0.0003489
 5,0.00033726,-0.00051100,0.00260734,0.00028098,-0.00539255,-0.00049679
 ,0.00044543,-0.00084002,0.00000782,0.00027858,-0.00036958,-0.00014794,
 0.00042314,-0.00027042,-0.00025596,-0.00002667,0.00018818,-0.05097015,
 -0.09634114,0.09295784,0.05719956,0.10172743,-0.00017395,-0.00005198,0
 .00009004,-0.00005123,0.00005618,-0.00007036,0.00022824,-0.00015945,0.
 00074021,0.00153892,0.00074465,-0.00101598,-0.00054820,0.00017334,0.00
 047692,-0.00069242,-0.00081969,0.00158247,0.00125127,0.00031176,-0.000
 63640,0.01219474,0.01116621,-0.02270163,-0.00450072,-0.00174603,-0.002
 99708,-0.00007764,0.00019066,0.00024279,0.00071536,0.00067645,-0.00130
 075,-0.00012816,-0.00010485,0.00041204,0.09109099,0.09077879,-0.205740
 98,-0.09870202,-0.09922728,0.22720368,0.00017592,0.00013645,-0.0000489
 5,0.00013853,-0.00012950,0.00011610,-0.00017782,0.00067665,-0.00010942
 ,0.00108578,-0.00293596,0.00053296,-0.00041464,0.00026205,0.00038210,-
 0.00114978,0.00112135,0.00002161,-0.00083758,0.00022283,-0.00147706,-0
 .00309053,-0.01862088,-0.00638784,0.00023224,0.00068250,0.00096495,0.0
 0037542,0.00031878,-0.00037969,-0.00015087,0.00005721,0.00014798,0.000
 05266,0.00015134,-0.00007036,-0.04758059,-0.02550895,-0.00466795,-0.00
 201271,-0.01402089,-0.00345529,0.04936375,-0.00019649,0.00000878,-0.00
 009123,0.00000425,0.00000620,0.00001604,-0.00014279,0.00006937,0.00010
 729,0.00003701,0.00064749,-0.00023567,-0.00043240,-0.00013666,0.000016
 04,-0.00068796,0.00044206,0.00045669,0.00126154,0.00154418,-0.00083485
 ,-0.00351530,-0.00434594,-0.00404969,-0.00008275,0.00012017,0.00031698
 ,0.00015306,0.00027701,-0.00037896,-0.00001808,0.00024535,-0.00018166,
 0.00000878,-0.00005693,0.00002614,-0.02284436,-0.28185831,-0.04593443,
 -0.00075763,-0.01340753,-0.00273454,0.02850067,0.30862089,0.00010329,0
 .00010249,-0.00013704,0.00012870,-0.00010044,0.00012952,-0.00008667,0.
 00059137,-0.00027553,0.00091104,-0.00184982,0.00096627,-0.00021387,0.0
 0025807,0.00018901,-0.00174564,0.00032986,0.00076612,-0.00093950,0.000
 40950,-0.00216923,-0.00418770,-0.02701211,-0.01075316,0.00032303,0.000
 76123,0.00209006,0.00020542,0.00064052,-0.00092841,-0.00017273,0.00035
 495,0.00026612,-0.00001569,-0.00006609,-0.00005456,-0.00452878,-0.0505
 8366,-0.05368593,0.00172270,0.02471855,0.00599725,0.00867668,0.0553567
 0,0.05911381,-0.00043874,0.00003537,-0.00037871,0.00001533,0.00009014,
 0.00005268,-0.00082549,-0.00044607,0.00017703,0.00026866,0.00087760,-0
 .00316338,0.00040954,-0.00002758,-0.00010839,-0.00097582,-0.00000545,0
 .00000671,0.00136803,0.00055438,0.00021553,-0.01817956,0.00419166,0.00
 162931,0.00060403,-0.00015001,0.00093357,0.00006748,-0.00000440,0.0000
 2624,0.00024239,-0.00028638,0.00007699,0.00060827,0.00013018,-0.000601
 83,-0.26285440,0.09532766,0.03044818,-0.01158252,0.00532092,0.00131012
 ,0.00399022,-0.00128754,-0.00018028,0.28728257,-0.00024305,0.00000417,
 -0.00006922,-0.00003646,0.00004277,-0.00003168,-0.00028504,-0.00018863
 ,0.00014078,-0.00126509,0.00151788,-0.00115204,-0.00006290,-0.00009554
 ,0.00003520,0.00002160,0.00037828,0.00011246,0.00047073,0.00090313,0.0
 0024406,-0.00579421,-0.00002985,-0.00009495,0.00011752,-0.00034910,-0.
 00004348,0.00012846,-0.00005529,0.00004576,-0.00019064,0.00001095,0.00
 004832,0.00000955,0.00022059,0.00030099,0.09632108,-0.08833315,-0.0118
 0254,-0.01395743,0.00605222,0.00074578,0.02908634,-0.01217612,-0.00391
 111,-0.10432047,0.09209771,-0.00101598,0.00014228,-0.00040593,-0.00000
 754,0.00010020,0.00003519,-0.00076054,-0.00046180,0.00089163,-0.000889
 97,0.00028774,-0.00546497,-0.00018624,0.00020907,0.00015129,-0.0003351
 9,-0.00015357,0.00044699,0.00100436,0.00031818,0.00048639,-0.02750261,
 0.01048589,0.00350853,-0.00068348,0.00038995,0.00153522,0.00008067,-0.
 00005181,-0.00004253,0.00014684,-0.00022825,0.00029488,0.00059532,-0.0
 0022032,-0.00045721,0.03220198,-0.01272342,-0.05236431,0.02204197,-0.0
 1167094,-0.00228222,0.00575417,-0.00185485,-0.00151430,-0.03044377,0.0
 1543166,0.05518134\\-0.00000371,-0.00001861,-0.00000977,0.00000500,0.0
 0001441,0.00000173,0.00000167,0.00000165,0.00000087,0.00000092,-0.0000
 0381,-0.00000247,-0.00000206,-0.00000524,0.00000014,0.00000054,-0.0000
 0253,-0.00000580,-0.00000001,-0.00000083,-0.00000239,0.00000214,0.0000
 0446,-0.00000140,0.00000061,0.00000474,0.00000195,-0.00000118,0.000004
 78,0.00000464,0.00000364,0.00000518,0.00000045,0.00000208,0.00000725,0
 .00000306,-0.00000357,-0.00000403,0.00000244,-0.00000222,-0.00000422,-
 0.00000018,-0.00000275,-0.00000257,0.00000451,-0.00000113,-0.00000063,
 0.00000222\\\@


 IF NO USE IS MADE OF THE LABOR OF PAST AGES,
 THE WORLD MUST REMAIN ALWAYS IN THE INFANCY OF KNOWLEDGE.

                          -- CICERO
 Job cpu time:  0 days  1 hours  5 minutes 24.5 seconds.
 File lengths (MBytes):  RWF=    125 Int=      0 D2E=      0 Chk=      8 Scr=      1
 Normal termination of Gaussian 03 at Tue Jul  8 23:49:25 2014.
