 Entering Gaussian System, Link 0=g03
 Input=prod2-freq.gjf
 Output=prod2-freq.log
 Initial command:
 /opt/g03/l1.exe /scratch/shamel/Gau-3290.inp -scrdir=/scratch/shamel/
 Entering Link 1 = /opt/g03/l1.exe PID=      3292.
  
 Copyright (c) 1988,1990,1992,1993,1995,1998,2003,2004, Gaussian, Inc.
                  All Rights Reserved.
  
 This is the Gaussian(R) 03 program.  It is based on the
 the Gaussian(R) 98 system (copyright 1998, Gaussian, Inc.),
 the Gaussian(R) 94 system (copyright 1995, Gaussian, Inc.),
 the Gaussian 92(TM) system (copyright 1992, Gaussian, Inc.),
 the Gaussian 90(TM) system (copyright 1990, Gaussian, Inc.),
 the Gaussian 88(TM) system (copyright 1988, Gaussian, Inc.),
 the Gaussian 86(TM) system (copyright 1986, Carnegie Mellon
 University), and the Gaussian 82(TM) system (copyright 1983,
 Carnegie Mellon University). Gaussian is a federally registered
 trademark of Gaussian, Inc.
  
 This software contains proprietary and confidential information,
 including trade secrets, belonging to Gaussian, Inc.
  
 This software is provided under written license and may be
 used, copied, transmitted, or stored only in accord with that
 written license.
  
 The following legend is applicable only to US Government
 contracts under FAR:
  
                    RESTRICTED RIGHTS LEGEND
  
 Use, reproduction and disclosure by the US Government is
 subject to restrictions as set forth in subparagraphs (a)
 and (c) of the Commercial Computer Software - Restricted
 Rights clause in FAR 52.227-19.
  
 Gaussian, Inc.
 340 Quinnipiac St., Bldg. 40, Wallingford CT 06492
  
  
 ---------------------------------------------------------------
 Warning -- This program may not be used in any manner that
 competes with the business of Gaussian, Inc. or will provide
 assistance to any competitor of Gaussian, Inc.  The licensee
 of this program is prohibited from giving any competitor of
 Gaussian, Inc. access to this program.  By using this program,
 the user acknowledges that Gaussian, Inc. is engaged in the
 business of creating and licensing software in the field of
 computational chemistry and represents and warrants to the
 licensee that it is not a competitor of Gaussian, Inc. and that
 it will not use this program in any manner prohibited above.
 ---------------------------------------------------------------
  

 Cite this work as:
 Gaussian 03, Revision D.01,
 M. J. Frisch, G. W. Trucks, H. B. Schlegel, G. E. Scuseria, 
 M. A. Robb, J. R. Cheeseman, J. A. Montgomery, Jr., T. Vreven, 
 K. N. Kudin, J. C. Burant, J. M. Millam, S. S. Iyengar, J. Tomasi, 
 V. Barone, B. Mennucci, M. Cossi, G. Scalmani, N. Rega, 
 G. A. Petersson, H. Nakatsuji, M. Hada, M. Ehara, K. Toyota, 
 R. Fukuda, J. Hasegawa, M. Ishida, T. Nakajima, Y. Honda, O. Kitao, 
 H. Nakai, M. Klene, X. Li, J. E. Knox, H. P. Hratchian, J. B. Cross, 
 V. Bakken, C. Adamo, J. Jaramillo, R. Gomperts, R. E. Stratmann, 
 O. Yazyev, A. J. Austin, R. Cammi, C. Pomelli, J. W. Ochterski, 
 P. Y. Ayala, K. Morokuma, G. A. Voth, P. Salvador, J. J. Dannenberg, 
 V. G. Zakrzewski, S. Dapprich, A. D. Daniels, M. C. Strain, 
 O. Farkas, D. K. Malick, A. D. Rabuck, K. Raghavachari, 
 J. B. Foresman, J. V. Ortiz, Q. Cui, A. G. Baboul, S. Clifford, 
 J. Cioslowski, B. B. Stefanov, G. Liu, A. Liashenko, P. Piskorz, 
 I. Komaromi, R. L. Martin, D. J. Fox, T. Keith, M. A. Al-Laham, 
 C. Y. Peng, A. Nanayakkara, M. Challacombe, P. M. W. Gill, 
 B. Johnson, W. Chen, M. W. Wong, C. Gonzalez, and J. A. Pople, 
 Gaussian, Inc., Wallingford CT, 2004.
 
 ******************************************
 Gaussian 03:  AM64L-G03RevD.01 13-Oct-2005
                18-Jun-2013 
 ******************************************
 %chk=prod2-freq.chk
 %mem=1000mb
 %nproc=8
 Will use up to    8 processors via shared memory.
 -------------------------------------
 # freq nosymm b3lyp/cbsb7 iop(7/33=1)
 -------------------------------------
 1/10=4,30=1,38=1/1,3;
 2/15=1,17=6,18=5,40=1/2;
 3/5=4,6=6,7=700,11=2,16=1,25=1,30=1,74=-5/1,2,3;
 4//1;
 5/5=2,38=5/2;
 8/6=4,10=90,11=11/1;
 11/6=1,8=1,9=11,15=111,16=1,31=1/1,2,10;
 10/6=1,31=1/2;
 6/7=2,8=2,9=2,10=2,18=1,28=1/1;
 7/8=1,10=1,25=1,30=1,33=1/1,2,3,16;
 1/10=4,30=1/3;
 99//99;
 -------------------
 Title Card Required
 -------------------
 Symbolic Z-matrix:
 Charge =  0 Multiplicity = 2
 C                    -0.86104  -1.09323   0.00779 
 H                    -0.47963  -2.11201  -0.06599 
 H                    -0.642    -0.71103   1.00781 
 H                    -1.9474   -1.12531  -0.11658 
 C                    -0.20832  -0.22636  -1.0847 
 H                     0.8695   -0.17757  -0.87487 
 C                    -0.7385    1.18889  -0.99828 
 H                    -0.48278   1.7286   -0.05919 
 C                    -0.40916  -0.81217  -2.49339 
 H                     0.06889  -0.19044  -3.26936 
 H                    -1.48674  -0.76495  -2.76 
 O                    -0.05478  -2.11941  -2.62781 
 O                    -1.41394   1.71878  -1.84526 
 

 GradGradGradGradGradGradGradGradGradGradGradGradGradGradGradGradGradGrad
 Berny optimization.
 Initialization pass.
 Trust Radius=3.00D-01 FncErr=1.00D-07 GrdErr=1.00D-07
 Number of steps in this run=   2 maximum allowed number of steps=   2.
 GradGradGradGradGradGradGradGradGradGradGradGradGradGradGradGradGradGrad

                          Input orientation:                          
 ---------------------------------------------------------------------
 Center     Atomic     Atomic              Coordinates (Angstroms)
 Number     Number      Type              X           Y           Z
 ---------------------------------------------------------------------
    1          6             0       -0.861043   -1.093226    0.007792
    2          1             0       -0.479626   -2.112008   -0.065994
    3          1             0       -0.642004   -0.711025    1.007811
    4          1             0       -1.947396   -1.125308   -0.116580
    5          6             0       -0.208315   -0.226355   -1.084701
    6          1             0        0.869495   -0.177571   -0.874874
    7          6             0       -0.738497    1.188889   -0.998284
    8          1             0       -0.482776    1.728599   -0.059187
    9          6             0       -0.409158   -0.812166   -2.493389
   10          1             0        0.068889   -0.190442   -3.269363
   11          1             0       -1.486742   -0.764949   -2.759997
   12          8             0       -0.054775   -2.119407   -2.627814
   13          8             0       -1.413939    1.718777   -1.845263
 ---------------------------------------------------------------------
                    Distance matrix (angstroms):
                    1          2          3          4          5
     1  C    0.000000
     2  H    1.090339   0.000000
     3  H    1.092746   1.772619   0.000000
     4  H    1.093920   1.769318   1.771986   0.000000
     5  C    1.539825   2.160338   2.191255   2.183982   0.000000
     6  H    2.147623   2.493283   2.472591   3.067261   1.099128
     7  C    2.497049   3.439782   2.764670   2.755784   1.513762
     8  H    2.847853   3.840614   2.667509   3.208300   2.224602
     9  C    2.557167   2.754415   3.510391   2.848413   1.538803
    10  H    3.524136   3.775561   4.366989   3.857385   2.202471
    11  H    2.856558   3.175925   3.861718   2.707344   2.175104
    12  O    2.941009   2.596820   3.942860   3.297960   2.447124
    13  O    3.412751   4.325928   3.826206   3.370718   2.411539
                    6          7          8          9         10
     6  H    0.000000
     7  C    2.113784   0.000000
     8  H    2.475372   1.112917   0.000000
     9  C    2.158067   2.519529   3.519410   0.000000
    10  H    2.524819   2.777089   3.780514   1.103270   0.000000
    11  H    3.074175   2.735139   3.810525   1.111079   1.734791
    12  O    2.774491   3.750689   4.646308   1.361079   2.036611
    13  O    3.122797   1.205975   2.014256   2.799165   2.805701
                   11         12         13
    11  H    0.000000
    12  O    1.975489   0.000000
    13  O    2.647817   4.146248   0.000000
 Symmetry turned off by external request.
 Stoichiometry    C4H7O2(2)
 Framework group  C1[X(C4H7O2)]
 Deg. of freedom    33
 Full point group                 C1
 Rotational constants (GHZ):      5.5621374      2.6177403      1.9479667
 Standard basis: CBSB7 (5D, 7F)
 Integral buffers will be    131072 words long.
 Raffenetti 2 integral format.
 Two-electron integral symmetry is turned off.
   150 basis functions,   248 primitive gaussians,   156 cartesian basis functions
    24 alpha electrons       23 beta electrons
       nuclear repulsion energy       231.4122130183 Hartrees.
 NAtoms=   13 NActive=   13 NUniq=   13 SFac= 7.50D-01 NAtFMM=   80 NAOKFM=F Big=F
 One-electron integrals computed using PRISM.
 NBasis=   150 RedAO= T  NBF=   150
 NBsUse=   150 1.00D-06 NBFU=   150
 Harris functional with IExCor=  402 diagonalized for initial guess.
 ExpMin= 1.03D-01 ExpMax= 8.59D+03 ExpMxC= 1.30D+03 IAcc=1 IRadAn=         1 AccDes= 1.00D-06
 HarFok:  IExCor= 402 AccDes= 1.00D-06 IRadAn=         1 IDoV=1
 ScaDFX=  1.000000  1.000000  1.000000  1.000000
 <S**2> of initial guess= 0.7500
 Requested convergence on RMS density matrix=1.00D-08 within 128 cycles.
 Requested convergence on MAX density matrix=1.00D-06.
 Requested convergence on             energy=1.00D-06.
 No special actions if energy rises.
 Integral accuracy reduced to 1.0D-05 until final iterations.
 Initial convergence to 1.0D-05 achieved.  Increase integral accuracy.
 SCF Done:  E(UB+HF-LYP) =  -307.088011835     A.U. after   21 cycles
             Convg  =    0.6888D-08             -V/T =  2.0035
             S**2   =   0.7534
 Annihilation of the first spin contaminant:
 S**2 before annihilation     0.7534,   after     0.7500
 Range of M.O.s used for correlation:     1   150
 NBasis=   150 NAE=    24 NBE=    23 NFC=     0 NFV=     0
 NROrb=    150 NOA=    24 NOB=    23 NVA=   126 NVB=   127

 **** Warning!!: The largest alpha MO coefficient is  0.10007135D+02


 **** Warning!!: The largest beta MO coefficient is  0.10055309D+02

 Symmetrizing basis deriv contribution to polar:
 IMax=3 JMax=2 DiffMx= 0.00D+00
 G2DrvN: will do   14 centers at a time, making    1 passes doing MaxLOS=2.
 FoFDir/FoFCou used for L=0 through L=2.
 DoAtom=TTTTTTTTTTTTT
          Differentiating once with respect to electric field.
                with respect to dipole field.
          Differentiating once with respect to nuclear coordinates.
 Symmetry not used in FoFDir.
 MinBra= 0 MaxBra= 2 Meth= 1.
 IRaf=       0 NMat=  42 IRICut=      42 DoRegI=T DoRafI=T ISym2E= 0 JSym2E=0.
          There are  42 degrees of freedom in the 1st order CPHF.
    39 vectors were produced by pass  0.
 AX will form  39 AO Fock derivatives at one time.
    39 vectors were produced by pass  1.
    39 vectors were produced by pass  2.
    39 vectors were produced by pass  3.
    39 vectors were produced by pass  4.
    39 vectors were produced by pass  5.
    18 vectors were produced by pass  6.
     3 vectors were produced by pass  7.
     3 vectors were produced by pass  8.
 Inv2:  IOpt= 1 Iter= 1 AM= 3.83D-15 Conv= 1.00D-12.
 Inverted reduced A of dimension  258 with in-core refinement.
 Isotropic polarizability for W=    0.000000       51.49 Bohr**3.
 End of Minotr Frequency-dependent properties file   721 does not exist.

 **********************************************************************

            Population analysis using the SCF density.

 **********************************************************************

 Alpha  occ. eigenvalues --  -19.16481 -19.13431 -10.27334 -10.23621 -10.20179
 Alpha  occ. eigenvalues --  -10.18274  -1.06902  -1.03795  -0.81504  -0.69493
 Alpha  occ. eigenvalues --   -0.65306  -0.57086  -0.51595  -0.49355  -0.47751
 Alpha  occ. eigenvalues --   -0.44878  -0.43887  -0.41882  -0.39389  -0.39173
 Alpha  occ. eigenvalues --   -0.37329  -0.32847  -0.29738  -0.26743
 Alpha virt. eigenvalues --   -0.04252   0.03821   0.05713   0.07063   0.09001
 Alpha virt. eigenvalues --    0.10076   0.11799   0.12475   0.16951   0.18421
 Alpha virt. eigenvalues --    0.18529   0.25342   0.26356   0.29109   0.30373
 Alpha virt. eigenvalues --    0.34591   0.37555   0.43326   0.44052   0.46440
 Alpha virt. eigenvalues --    0.47619   0.49590   0.51640   0.53729   0.54942
 Alpha virt. eigenvalues --    0.55606   0.56146   0.58202   0.59316   0.60503
 Alpha virt. eigenvalues --    0.61352   0.63980   0.66249   0.72945   0.76346
 Alpha virt. eigenvalues --    0.78426   0.84054   0.86629   0.89862   0.92972
 Alpha virt. eigenvalues --    0.95889   0.99289   1.06303   1.08909   1.14646
 Alpha virt. eigenvalues --    1.19144   1.27205   1.32947   1.34793   1.39160
 Alpha virt. eigenvalues --    1.43144   1.45291   1.46370   1.47925   1.48383
 Alpha virt. eigenvalues --    1.50351   1.51503   1.57060   1.59171   1.61255
 Alpha virt. eigenvalues --    1.62614   1.67184   1.67690   1.71660   1.73688
 Alpha virt. eigenvalues --    1.75948   1.80792   1.86508   1.89040   1.94948
 Alpha virt. eigenvalues --    2.01071   2.01728   2.06363   2.07268   2.17952
 Alpha virt. eigenvalues --    2.23952   2.25234   2.32017   2.35851   2.37185
 Alpha virt. eigenvalues --    2.41433   2.43278   2.46502   2.47614   2.54027
 Alpha virt. eigenvalues --    2.54504   2.57622   2.60084   2.63608   2.68476
 Alpha virt. eigenvalues --    2.72990   2.78053   2.78437   2.82783   2.86147
 Alpha virt. eigenvalues --    2.88104   2.90958   2.96329   2.97422   3.05112
 Alpha virt. eigenvalues --    3.18874   3.21824   3.31053   3.35965   3.42913
 Alpha virt. eigenvalues --    3.50720   3.72553   3.76229   3.78249   3.79543
 Alpha virt. eigenvalues --    3.89002   3.94285   4.17830   4.27041   4.80797
 Alpha virt. eigenvalues --    4.87715   4.89157   5.01644   5.43526   5.56522
 Alpha virt. eigenvalues --   23.75163  23.80212  23.81744  23.90843  49.81641
 Alpha virt. eigenvalues --   49.93292
  Beta  occ. eigenvalues --  -19.14171 -19.13417 -10.27336 -10.23672 -10.20168
  Beta  occ. eigenvalues --  -10.18274  -1.06868  -0.98893  -0.81126  -0.68920
  Beta  occ. eigenvalues --   -0.64502  -0.56560  -0.50796  -0.48503  -0.46885
  Beta  occ. eigenvalues --   -0.43138  -0.42570  -0.41050  -0.39100  -0.38806
  Beta  occ. eigenvalues --   -0.36613  -0.28409  -0.26178
  Beta virt. eigenvalues --   -0.14526  -0.04224   0.03862   0.05932   0.07102
  Beta virt. eigenvalues --    0.09125   0.10300   0.12011   0.12609   0.17432
  Beta virt. eigenvalues --    0.18572   0.18789   0.25609   0.26513   0.29308
  Beta virt. eigenvalues --    0.30707   0.34957   0.37780   0.43626   0.44576
  Beta virt. eigenvalues --    0.46872   0.48084   0.49990   0.51906   0.54014
  Beta virt. eigenvalues --    0.55199   0.55710   0.56242   0.58278   0.59586
  Beta virt. eigenvalues --    0.60571   0.61422   0.64146   0.66553   0.73132
  Beta virt. eigenvalues --    0.77493   0.78503   0.85586   0.88984   0.90334
  Beta virt. eigenvalues --    0.94073   0.96410   1.00136   1.06421   1.09157
  Beta virt. eigenvalues --    1.15106   1.19186   1.27255   1.33659   1.35267
  Beta virt. eigenvalues --    1.39464   1.43547   1.45592   1.46680   1.48258
  Beta virt. eigenvalues --    1.48985   1.50465   1.51778   1.57194   1.59474
  Beta virt. eigenvalues --    1.61471   1.63604   1.67571   1.67977   1.71987
  Beta virt. eigenvalues --    1.74071   1.76008   1.81314   1.86779   1.89411
  Beta virt. eigenvalues --    1.95116   2.01263   2.02670   2.06508   2.07492
  Beta virt. eigenvalues --    2.18300   2.24476   2.25657   2.32488   2.36437
  Beta virt. eigenvalues --    2.37480   2.41819   2.43544   2.46787   2.47809
  Beta virt. eigenvalues --    2.54177   2.54824   2.57908   2.60409   2.64065
  Beta virt. eigenvalues --    2.69445   2.74116   2.78464   2.79190   2.88104
  Beta virt. eigenvalues --    2.88934   2.91155   2.91259   2.96957   2.98482
  Beta virt. eigenvalues --    3.06855   3.21701   3.24010   3.31078   3.36184
  Beta virt. eigenvalues --    3.43026   3.50884   3.73844   3.76242   3.78470
  Beta virt. eigenvalues --    3.79570   3.90906   3.94333   4.17873   4.27216
  Beta virt. eigenvalues --    4.87620   4.90779   4.91418   5.01730   5.45343
  Beta virt. eigenvalues --    5.56640  23.75126  23.80221  23.81731  23.90844
  Beta virt. eigenvalues --   49.83959  49.93348
          Condensed to atoms (all electrons):
              1          2          3          4          5          6
     1  C    4.920236   0.403466   0.399722   0.401730   0.308715  -0.038479
     2  H    0.403466   0.533615  -0.023979  -0.026733  -0.036464  -0.007140
     3  H    0.399722  -0.023979   0.568026  -0.029276  -0.032506  -0.006425
     4  H    0.401730  -0.026733  -0.029276   0.573427  -0.042814   0.009263
     5  C    0.308715  -0.036464  -0.032506  -0.042814   5.697478   0.375272
     6  H   -0.038479  -0.007140  -0.006425   0.009263   0.375272   0.581995
     7  C   -0.048288   0.006535  -0.003295  -0.003493   0.196045  -0.026835
     8  H   -0.001385  -0.001162   0.004939   0.000537  -0.127451   0.002132
     9  C   -0.056039  -0.008984   0.007628  -0.003856   0.243534  -0.033994
    10  H    0.008552   0.001387  -0.000333  -0.000373  -0.069931  -0.007549
    11  H   -0.007850  -0.000148  -0.000150   0.005066  -0.053305   0.009053
    12  O   -0.000555   0.020388  -0.000116  -0.000707  -0.064046   0.000513
    13  O    0.000475  -0.000297   0.000016   0.001796  -0.116277   0.002882
              7          8          9         10         11         12
     1  C   -0.048288  -0.001385  -0.056039   0.008552  -0.007850  -0.000555
     2  H    0.006535  -0.001162  -0.008984   0.001387  -0.000148   0.020388
     3  H   -0.003295   0.004939   0.007628  -0.000333  -0.000150  -0.000116
     4  H   -0.003493   0.000537  -0.003856  -0.000373   0.005066  -0.000707
     5  C    0.196045  -0.127451   0.243534  -0.069931  -0.053305  -0.064046
     6  H   -0.026835   0.002132  -0.033994  -0.007549   0.009053   0.000513
     7  C    4.679689   0.406092  -0.028778   0.006080  -0.001689   0.003756
     8  H    0.406092   0.667579   0.010494   0.000116   0.001360  -0.000171
     9  C   -0.028778   0.010494   4.754426   0.401479   0.378585   0.303524
    10  H    0.006080   0.000116   0.401479   0.579519  -0.025650  -0.029849
    11  H   -0.001689   0.001360   0.378585  -0.025650   0.550215  -0.022412
    12  O    0.003756  -0.000171   0.303524  -0.029849  -0.022412   8.030370
    13  O    0.618703  -0.046070   0.018984   0.003346   0.012781   0.000083
             13
     1  C    0.000475
     2  H   -0.000297
     3  H    0.000016
     4  H    0.001796
     5  C   -0.116277
     6  H    0.002882
     7  C    0.618703
     8  H   -0.046070
     9  C    0.018984
    10  H    0.003346
    11  H    0.012781
    12  O    0.000083
    13  O    7.783078
 Mulliken atomic charges:
              1
     1  C   -0.290300
     2  H    0.139517
     3  H    0.115748
     4  H    0.115433
     5  C   -0.278250
     6  H    0.139312
     7  C    0.195478
     8  H    0.082992
     9  C    0.012998
    10  H    0.133205
    11  H    0.154144
    12  O   -0.240778
    13  O   -0.279501
 Sum of Mulliken charges=   0.00000
 Atomic charges with hydrogens summed into heavy atoms:
              1
     1  C    0.080399
     2  H    0.000000
     3  H    0.000000
     4  H    0.000000
     5  C   -0.138938
     6  H    0.000000
     7  C    0.278470
     8  H    0.000000
     9  C    0.300347
    10  H    0.000000
    11  H    0.000000
    12  O   -0.240778
    13  O   -0.279501
 Sum of Mulliken charges=   0.00000
          Atomic-Atomic Spin Densities.
              1          2          3          4          5          6
     1  C    0.015590  -0.000063   0.001421  -0.002341  -0.005999  -0.006189
     2  H   -0.000063  -0.001003  -0.000237   0.000352   0.002118   0.000346
     3  H    0.001421  -0.000237   0.000195  -0.000233  -0.000728  -0.000492
     4  H   -0.002341   0.000352  -0.000233   0.000859   0.001204   0.000253
     5  C   -0.005999   0.002118  -0.000728   0.001204  -0.016371  -0.002895
     6  H   -0.006189   0.000346  -0.000492   0.000253  -0.002895   0.012648
     7  C   -0.001517  -0.000259  -0.000095   0.000077   0.005797   0.002509
     8  H    0.001397   0.000022   0.000192  -0.000106  -0.000292  -0.001321
     9  C    0.001066  -0.000298   0.000034  -0.000126   0.024548  -0.002991
    10  H    0.001631  -0.000144   0.000038  -0.000092   0.008771  -0.003752
    11  H   -0.006300   0.000114  -0.000138   0.000892   0.001423   0.002565
    12  O    0.001309  -0.002085  -0.000010  -0.000208  -0.004870   0.003594
    13  O    0.000306   0.000006   0.000003  -0.000032   0.000149  -0.000147
              7          8          9         10         11         12
     1  C   -0.001517   0.001397   0.001066   0.001631  -0.006300   0.001309
     2  H   -0.000259   0.000022  -0.000298  -0.000144   0.000114  -0.002085
     3  H   -0.000095   0.000192   0.000034   0.000038  -0.000138  -0.000010
     4  H    0.000077  -0.000106  -0.000126  -0.000092   0.000892  -0.000208
     5  C    0.005797  -0.000292   0.024548   0.008771   0.001423  -0.004870
     6  H    0.002509  -0.001321  -0.002991  -0.003752   0.002565   0.003594
     7  C   -0.003603  -0.000602  -0.002398  -0.001811   0.000649  -0.000093
     8  H   -0.000602   0.002662   0.000066   0.000250  -0.000322  -0.000003
     9  C   -0.002398   0.000066  -0.080472   0.008251   0.017689  -0.034835
    10  H   -0.001811   0.000250   0.008251   0.065368  -0.021180  -0.007768
    11  H    0.000649  -0.000322   0.017689  -0.021180   0.148487  -0.024688
    12  O   -0.000093  -0.000003  -0.034835  -0.007768  -0.024688   0.950035
    13  O   -0.000508  -0.000260   0.000065   0.000839  -0.001574   0.000006
             13
     1  C    0.000306
     2  H    0.000006
     3  H    0.000003
     4  H   -0.000032
     5  C    0.000149
     6  H   -0.000147
     7  C   -0.000508
     8  H   -0.000260
     9  C    0.000065
    10  H    0.000839
    11  H   -0.001574
    12  O    0.000006
    13  O    0.005707
 Mulliken atomic spin densities:
              1
     1  C    0.000311
     2  H   -0.001132
     3  H   -0.000048
     4  H    0.000500
     5  C    0.012855
     6  H    0.004127
     7  C   -0.001854
     8  H    0.001681
     9  C   -0.069400
    10  H    0.050401
    11  H    0.117617
    12  O    0.880384
    13  O    0.004559
 Sum of Mulliken spin densities=   1.00000
 APT atomic charges:
              1
     1  C    0.067131
     2  H    0.024442
     3  H   -0.007373
     4  H   -0.011156
     5  C   -0.074447
     6  H   -0.031173
     7  C    0.717073
     8  H   -0.089312
     9  C    0.126856
    10  H    0.016246
    11  H    0.101173
    12  O   -0.232708
    13  O   -0.606751
 Sum of APT charges=   0.00000
 APT Atomic charges with hydrogens summed into heavy atoms:
              1
     1  C    0.073043
     2  H    0.000000
     3  H    0.000000
     4  H    0.000000
     5  C   -0.105620
     6  H    0.000000
     7  C    0.627761
     8  H    0.000000
     9  C    0.244275
    10  H    0.000000
    11  H    0.000000
    12  O   -0.232708
    13  O   -0.606751
 Sum of APT charges=   0.00000
 Electronic spatial extent (au):  <R**2>=  1072.9057
 Charge=     0.0000 electrons
 Dipole moment (field-independent basis, Debye):
    X=     0.7380    Y=     0.2661    Z=     1.8332  Tot=     1.9940
 Quadrupole moment (field-independent basis, Debye-Ang):
   XX=   -36.9535   YY=   -44.7212   ZZ=   -40.8554
   XY=     4.2619   XZ=    -1.9992   YZ=    -0.8658
 Traceless Quadrupole moment (field-independent basis, Debye-Ang):
   XX=     3.8899   YY=    -3.8779   ZZ=    -0.0120
   XY=     4.2619   XZ=    -1.9992   YZ=    -0.8658
 Octapole moment (field-independent basis, Debye-Ang**2):
  XXX=    68.3302  YYY=    35.1803  ZZZ=   164.5111  XYY=    28.1688
  XXY=     1.7792  XXZ=    52.7937  XZZ=    25.8177  YZZ=    15.5189
  YYZ=    75.1897  XYZ=    -9.8098
 Hexadecapole moment (field-independent basis, Debye-Ang**3):
 XXXX=  -178.2424 YYYY=  -465.9158 ZZZZ=  -730.5800 XXXY=    32.3836
 XXXZ=   -82.9305 YYYX=    35.8341 YYYZ=   -81.8970 ZZZX=   -84.3995
 ZZZY=   -85.1471 XXYY=  -109.0743 XXZZ=  -149.7789 YYZZ=  -249.1077
 XXYZ=    -2.8539 YYXZ=   -38.3892 ZZXY=    28.2013
 N-N= 2.314122130183D+02 E-N=-1.181641183204D+03  KE= 3.060082656531D+02
  Exact polarizability:  43.543  -4.040  55.828   1.207   0.797  55.087
 Approx polarizability:  65.614  -8.765  78.248   7.508  -3.043  72.408
                          Isotropic Fermi Contact Couplings
        Atom                 a.u.       MegaHertz       Gauss      10(-4) cm-1
     1  C(13)             -0.00044      -0.49078      -0.17512      -0.16371
     2  H(1)               0.00030       1.32701       0.47351       0.44264
     3  H(1)               0.00005       0.21912       0.07819       0.07309
     4  H(1)               0.00003       0.11946       0.04263       0.03985
     5  C(13)             -0.00064      -0.72087      -0.25722      -0.24046
     6  H(1)               0.00030       1.35724       0.48430       0.45273
     7  C(13)             -0.00128      -1.44378      -0.51518      -0.48159
     8  H(1)               0.00067       2.97423       1.06128       0.99210
     9  C(13)             -0.03471     -39.01575     -13.92179     -13.01425
    10  H(1)               0.02228      99.60984      35.54327      33.22627
    11  H(1)               0.05543     247.78137      88.41455      82.65097
    12  O(17)              0.05327     -32.29495     -11.52364     -10.77244
    13  O(17)              0.00073      -0.44522      -0.15887      -0.14851
 --------------------------------------------------------
       Center         ----  Spin Dipole Couplings  ----
                      3XX-RR        3YY-RR        3ZZ-RR
 --------------------------------------------------------
     1   Atom       -0.004892     -0.002377      0.007268
     2   Atom       -0.006182     -0.006932      0.013115
     3   Atom       -0.002177     -0.001681      0.003858
     4   Atom       -0.000893     -0.003236      0.004129
     5   Atom       -0.014618      0.006358      0.008260
     6   Atom       -0.003416      0.001426      0.001990
     7   Atom       -0.002290      0.002480     -0.000190
     8   Atom       -0.001431      0.001221      0.000210
     9   Atom        0.031448      0.022644     -0.054092
    10   Atom       -0.014277      0.015233     -0.000956
    11   Atom        0.012960      0.000894     -0.013854
    12   Atom        3.210751     -1.454852     -1.755899
    13   Atom       -0.010625      0.019886     -0.009261
 --------------------------------------------------------
                        XY            XZ            YZ
 --------------------------------------------------------
     1   Atom       -0.000618     -0.002926      0.002893
     2   Atom       -0.000078     -0.002652     -0.000429
     3   Atom       -0.000326     -0.000667      0.001818
     4   Atom       -0.001567     -0.004752      0.001943
     5   Atom       -0.000463      0.000742      0.020697
     6   Atom        0.003399      0.004249      0.008071
     7   Atom       -0.002218     -0.000667      0.004849
     8   Atom       -0.000157      0.000048      0.002289
     9   Atom        0.004336     -0.000203      0.010095
    10   Atom        0.002282     -0.001990     -0.012630
    11   Atom       -0.014142      0.008028      0.000330
    12   Atom        1.217840      0.113909      0.029426
    13   Atom        0.009801      0.005991      0.014564
 --------------------------------------------------------


 ---------------------------------------------------------------------------------
              Anisotropic Spin Dipole Couplings in Principal Axis System
 ---------------------------------------------------------------------------------

       Atom             a.u.   MegaHertz   Gauss  10(-4) cm-1        Axes

              Baa    -0.0056    -0.746    -0.266    -0.249  0.9740 -0.0161  0.2258
     1 C(13)  Bbb    -0.0032    -0.425    -0.152    -0.142  0.0733  0.9661 -0.2474
              Bcc     0.0087     1.171     0.418     0.390 -0.2142  0.2575  0.9422
 
              Baa    -0.0070    -3.725    -1.329    -1.243  0.2865  0.9563  0.0582
     2 H(1)   Bbb    -0.0065    -3.468    -1.237    -1.157  0.9487 -0.2916  0.1219
              Bcc     0.0135     7.193     2.567     2.399 -0.1335 -0.0203  0.9908
 
              Baa    -0.0024    -1.260    -0.450    -0.420  0.7487  0.6536 -0.1108
     3 H(1)   Bbb    -0.0021    -1.131    -0.403    -0.377 -0.6538  0.7005 -0.2860
              Bcc     0.0045     2.391     0.853     0.798 -0.1093  0.2866  0.9518
 
              Baa    -0.0041    -2.194    -0.783    -0.732  0.6662  0.7138  0.2158
     4 H(1)   Bbb    -0.0034    -1.840    -0.656    -0.614 -0.5452  0.6637 -0.5121
              Bcc     0.0076     4.033     1.439     1.345 -0.5088  0.2235  0.8314
 
              Baa    -0.0151    -2.020    -0.721    -0.674  0.8891  0.3279 -0.3194
     5 C(13)  Bbb    -0.0130    -1.741    -0.621    -0.581 -0.4577  0.6446 -0.6123
              Bcc     0.0280     3.761     1.342     1.255  0.0051  0.6906  0.7232
 
              Baa    -0.0066    -3.499    -1.249    -1.167 -0.3498 -0.5882  0.7292
     6 H(1)   Bbb    -0.0052    -2.756    -0.983    -0.919  0.8741 -0.4850  0.0280
              Bcc     0.0117     6.255     2.232     2.087  0.3372  0.6472  0.6837
 
              Baa    -0.0043    -0.578    -0.206    -0.193 -0.4585 -0.6110  0.6454
     7 C(13)  Bbb    -0.0024    -0.321    -0.115    -0.107  0.8568 -0.1110  0.5035
              Bcc     0.0067     0.899     0.321     0.300 -0.2360  0.7838  0.5744
 
              Baa    -0.0017    -0.906    -0.323    -0.302 -0.4551 -0.5645  0.6886
     8 H(1)   Bbb    -0.0014    -0.728    -0.260    -0.243  0.8902 -0.2706  0.3665
              Bcc     0.0031     1.634     0.583     0.545 -0.0206  0.7798  0.6257
 
              Baa    -0.0554    -7.435    -2.653    -2.480  0.0087 -0.1288  0.9916
     9 C(13)  Bbb     0.0220     2.954     1.054     0.985 -0.4124  0.9029  0.1209
              Bcc     0.0334     4.481     1.599     1.495  0.9110  0.4100  0.0452
 
              Baa    -0.0146    -7.778    -2.775    -2.595  0.9921 -0.0239  0.1228
    10 H(1)   Bbb    -0.0078    -4.162    -1.485    -1.388 -0.0958  0.4859  0.8688
              Bcc     0.0224    11.940     4.260     3.983  0.0804  0.8737 -0.4797
 
              Baa    -0.0174    -9.280    -3.311    -3.096 -0.3737 -0.3048  0.8760
    11 H(1)   Bbb    -0.0061    -3.238    -1.155    -1.080  0.4030  0.7973  0.4493
              Bcc     0.0235    12.518     4.467     4.176  0.8354 -0.5209  0.1751
 
              Baa    -1.7589   127.274    45.414    42.454  0.0414 -0.2592  0.9649
    12 O(17)  Bbb    -1.7532   126.862    45.267    42.316 -0.2356  0.9360  0.2616
              Bcc     3.5121  -254.136   -90.682   -84.770  0.9710  0.2382  0.0223
 
              Baa    -0.0164     1.190     0.424     0.397 -0.5355 -0.1858  0.8238
    13 O(17)  Bbb    -0.0127     0.920     0.328     0.307  0.7986 -0.4287  0.4224
              Bcc     0.0292    -2.110    -0.753    -0.704  0.2747  0.8841  0.3780
 

 ---------------------------------------------------------------------------------

 Use density number 0.
 Entering OneElI...
 Calculate overlap and kinetic energy integrals
    NBasis = 156  MinDer = 2  MaxDer = 2
 Requested accuracy = 0.1000D-12
 PrsmSu:  NPrtUS=   1 ThrOK=F
 PRISM was handed   130853097 working-precision words and  1707 shell-pairs
 Entering OneElI...
 Calculate potential energy integrals
    NBasis = 156  MinDer = 2  MaxDer = 2
 Requested accuracy = 0.1000D-12
 PrsmSu:  NPrtUS=   8 ThrOK=T
 PRISM was handed    16324554 working-precision words and  1639 shell-pairs
 PRISM was handed    16324554 working-precision words and  1639 shell-pairs
 PRISM was handed    16324554 working-precision words and  1639 shell-pairs
 PRISM was handed    16324554 working-precision words and  1639 shell-pairs
 PRISM was handed    16324554 working-precision words and  1639 shell-pairs
 PRISM was handed    16324554 working-precision words and  1639 shell-pairs
 PRISM was handed    16324554 working-precision words and  1639 shell-pairs
 PRISM was handed    16324554 working-precision words and  1639 shell-pairs
 Polarizability after L701:
                1             2             3
      1  0.435428D+02
      2 -0.404009D+01  0.558285D+02
      3  0.120697D+01  0.797122D+00  0.550874D+02
 Dipole Derivatives after L701:
               1            2            3            4            5
      1 0.990457D-01 0.325278D-01 0.273666D-01 0.557877D-01 0.321894D-01
      2 0.658139D-01 0.780535D-02-0.553968D-01 0.340351D-01-0.692980D-01
      3-0.180680D-01-0.838013D-02 0.945418D-01-0.112007D-03 0.362240D-01
               6            7            8            9           10
      1 0.120914D-01 0.537423D-01-0.384418D-01-0.104879D-01-0.133785D+00
      2-0.586074D-02-0.322473D-01 0.500719D-01-0.428308D-01-0.342571D-01
      3 0.868366D-01-0.305184D-01-0.782801D-01-0.125934D+00 0.100270D-01
              11           12           13           14           15
      1 0.881560D-02-0.495649D-01 0.153069D+00 0.172100D+00-0.772037D-01
      2 0.586731D-01 0.166937D-01 0.409996D-01-0.361721D+00-0.110294D-01
      3 0.214770D-01 0.416434D-01-0.915957D-01-0.334933D-01-0.146884D-01
              16           17           18           19           20
      1-0.109705D+00-0.237785D-01-0.566093D-02 0.405586D+00-0.315424D+00
      2-0.308576D-01 0.155780D-01-0.581061D-01-0.361652D+00 0.103515D+01
      3-0.274888D-01-0.990616D-02 0.607455D-03 0.367575D+00-0.202014D-01
              21           22           23           24           25
      1 0.360790D+00 0.172372D-01-0.696961D-02-0.646448D-01 0.403103D-01
      2 0.645720D-01-0.831106D-02-0.903591D-01-0.174249D+00 0.313246D+00
      3 0.710486D+00-0.665268D-01-0.149724D+00-0.194814D+00 0.264237D+00
              26           27           28           29           30
      1 0.992051D-01 0.101750D+00 0.563966D-01-0.677605D-01 0.457294D-01
      2 0.216886D+00 0.138772D+00-0.101956D+00 0.101766D-01 0.204044D-01
      3 0.190209D+00 0.123372D+00 0.552994D-01 0.121887D+00-0.178352D-01
              31           32           33           34           35
      1 0.254847D-01-0.534796D-02-0.335824D-01-0.182773D+00-0.888103D-01
      2-0.998299D-01 0.104054D+00-0.386678D-01-0.460195D-01-0.276683D+00
      3-0.105440D+00-0.442104D-01 0.173980D+00-0.832289D-01-0.130501D+00
              36           37           38           39
      1-0.540407D-01-0.480396D+00 0.201695D+00-0.252541D+00
      2-0.362352D-01 0.261036D+00-0.700331D+00 0.181934D+00
      3-0.238668D+00-0.274159D+00 0.104899D+00-0.639527D+00
 Hessian after L701:
                1             2             3             4             5
      1  0.136266D+02
      2 -0.362437D+00  0.124256D+02
      3  0.948385D+00  0.127623D+01  0.116453D+02
      4 -0.365523D+01 -0.796915D+00 -0.679866D-01  0.375076D+01
      5 -0.862680D+00 -0.154030D+01  0.235389D+00  0.864937D+00  0.135974D+01
      6  0.597795D-02  0.860050D-02 -0.398066D+01  0.250441D-01 -0.198208D-01
      7 -0.370525D+01  0.152140D+00  0.413844D+00  0.524273D-01  0.135789D-01
      8  0.141098D+00 -0.355001D+01  0.695961D+00 -0.793719D-02 -0.702579D-02
      9  0.460615D+00  0.826389D+00 -0.160559D+01  0.571148D-03 -0.413249D-01
     10 -0.127434D+01  0.782004D-01  0.346737D+00 -0.252759D-01  0.517746D-01
     11  0.182474D+00 -0.396266D+01  0.288470D-01  0.843380D-01  0.360489D-01
     12  0.145865D+00  0.100029D-01 -0.395873D+01  0.966711D-02 -0.675863D-02
     13 -0.445651D+01  0.111557D+01 -0.138527D+01  0.592992D-01 -0.221860D-01
     14  0.112079D+01 -0.371273D+01 -0.214797D+01 -0.564563D-01  0.100847D+00
     15 -0.135578D+01 -0.210140D+01 -0.265837D+01  0.170348D-01 -0.484934D-02
     16  0.113256D+00 -0.283739D-01  0.657534D-01 -0.734650D-02 -0.195594D-01
     17 -0.381489D-01  0.436586D-01  0.398279D-01 -0.308275D-01 -0.227028D-01
     18  0.758790D-01  0.409600D-01  0.208005D-01  0.102723D-01  0.189189D-01
     19 -0.118851D+00 -0.195265D-01 -0.390899D-02 -0.430646D-01 -0.120994D-01
     20 -0.263973D-01  0.274603D+00 -0.668298D-01 -0.171257D-01  0.149517D+00
     21 -0.188385D-01 -0.135144D+00 -0.110539D+00  0.518534D-02 -0.487240D-01
     22 -0.323820D-01  0.257800D-01  0.190376D-02  0.192260D-03  0.234909D-02
     23  0.667884D-02  0.503399D-01  0.136799D-01 -0.235042D-02 -0.383549D-02
     24  0.341889D-03  0.233355D-01 -0.263341D-01 -0.246591D-02  0.675977D-02
     25 -0.451499D-01 -0.109926D-02 -0.109914D+00 -0.168444D-02 -0.165166D-02
     26  0.116776D-01 -0.855967D-01 -0.132990D-01 -0.110832D-01  0.115269D-01
     27 -0.557875D-01  0.415898D-01  0.326240D+00  0.205144D-01 -0.605083D-02
     28 -0.259018D-01  0.170285D-01 -0.761358D-01 -0.627293D-02  0.758643D-02
     29  0.206084D-01 -0.408017D-01 -0.695586D-01  0.794922D-03  0.976989D-02
     30 -0.724069D-01 -0.524867D-01  0.166004D+00 -0.724761D-03 -0.252630D-01
     31  0.374285D-02  0.883339D-02  0.945390D-02  0.321422D-02 -0.136632D-01
     32 -0.818323D-04 -0.404945D-02 -0.101212D-01 -0.312495D-02  0.212943D-02
     33 -0.870859D-02  0.932718D-02 -0.377227D-01  0.617159D-02 -0.103736D-01
     34 -0.239445D+00 -0.123980D+00 -0.179160D+00 -0.124666D+00  0.142237D-01
     35 -0.102084D+00 -0.107169D+00  0.279187D+00 -0.461827D-02 -0.139642D+00
     36 -0.194497D+00  0.362327D+00  0.228050D+00 -0.345101D-01 -0.636362D-01
     37 -0.190587D+00 -0.652197D-01  0.362935D-01 -0.235288D-02 -0.226098D-01
     38 -0.914987D-01  0.209155D+00 -0.261338D+00 -0.196314D-01  0.439282D-01
     39  0.689566D-01 -0.309731D+00 -0.844109D-02  0.112266D-01 -0.342667D-01
                6             7             8             9            10
      6  0.370973D+01
      7  0.198188D-01  0.373916D+01
      8 -0.653925D-01 -0.103496D+00  0.346031D+01
      9  0.255511D-01 -0.411446D+00 -0.677504D+00  0.126546D+01
     10 -0.170439D-01 -0.112283D-01 -0.185728D-01 -0.786116D-01  0.113589D+01
     11  0.127723D-01 -0.439594D-01  0.648019D-01 -0.316091D-01 -0.188112D+00
     12  0.648873D-01 -0.952181D-01 -0.142006D-01  0.167299D-01 -0.534977D-01
     13  0.622037D-02  0.506574D-01  0.839119D-02  0.100058D-01  0.502721D-01
     14  0.773406D-01  0.112750D-01  0.572433D-01  0.484469D-02 -0.506684D-01
     15  0.259410D-01  0.262401D-01  0.614625D-01  0.463354D-02  0.109949D-01
     16  0.163480D-01 -0.796298D-02 -0.127199D-01  0.159876D-01  0.133885D+00
     17  0.205031D-01 -0.706045D-02  0.106304D-01  0.908622D-02  0.474133D-01
     18  0.965292D-02  0.259776D-01  0.102873D-01 -0.205755D-01 -0.283791D-01
     19  0.633738D-02 -0.236884D-01 -0.242550D-02 -0.733592D-03  0.326339D-02
     20 -0.562545D-01 -0.674834D-02 -0.120380D-01 -0.308463D-01  0.219423D-01
     21 -0.320215D-01  0.829365D-02 -0.144369D-01  0.234476D-01 -0.515972D-02
     22 -0.339415D-03 -0.193524D-01  0.518933D-02 -0.636560D-02  0.429160D-02
     23  0.161696D-02  0.299927D-03  0.368202D-01 -0.427430D-01  0.183239D-01
     24  0.166697D-02 -0.183241D-02 -0.154184D-01 -0.160907D-01  0.934705D-02
     25  0.108949D-01 -0.456853D-01 -0.324471D-02 -0.175080D-01  0.157164D-01
     26  0.387068D-02 -0.132067D-02 -0.494273D-01  0.137286D-01 -0.286655D-02
     27 -0.300500D-01 -0.776793D-02  0.898576D-02  0.183921D+00 -0.291792D-01
     28 -0.608042D-02 -0.616195D-03 -0.858646D-03 -0.347609D-02  0.496889D-02
     29 -0.167906D-01 -0.161099D-03 -0.138119D-02 -0.588074D-02  0.626849D-02
     30  0.208935D-01  0.235991D-02  0.397665D-02  0.315916D-02 -0.933697D-02
     31  0.704623D-02  0.955611D-03  0.287760D-02  0.118265D-01 -0.294039D-01
     32 -0.415476D-02 -0.696976D-04 -0.169072D-02 -0.812901D-03  0.502279D-02
     33  0.449737D-02  0.213558D-02  0.173729D-02  0.695476D-02 -0.281876D-01
     34 -0.751960D-01 -0.167311D-01 -0.261033D-02 -0.987553D-02  0.283973D-01
     35  0.459263D-01 -0.105408D-03 -0.361566D-02  0.348144D-01 -0.322410D-01
     36  0.187727D+00 -0.170711D-02  0.256221D-01  0.547410D-01 -0.703428D-01
     37  0.971895D-03 -0.126839D-01 -0.569082D-02  0.290112D-01 -0.364293D-01
     38 -0.821728D-02 -0.143728D-01 -0.461819D-02 -0.581423D-01  0.635149D-01
     39 -0.782180D-02  0.193022D-01 -0.210800D-01  0.576504D-01 -0.473407D-01
               11            12            13            14            15
     11  0.382828D+01
     12  0.142411D-01  0.378988D+01
     13 -0.888117D-01  0.806534D-01  0.153203D+02
     14  0.501765D-01  0.378190D-01  0.644708D+00  0.109496D+02
     15  0.245550D-01  0.827572D-01  0.839283D+00 -0.618420D+00  0.128154D+02
     16  0.506436D-01 -0.411997D-01 -0.161368D+01  0.242974D+00  0.486878D+00
     17 -0.187846D-01 -0.103897D-01  0.249174D+00 -0.420369D+01  0.281018D-01
     18 -0.746487D-02 -0.266032D-01  0.534395D+00  0.312518D-01 -0.410559D+01
     19  0.463104D-02  0.501640D-02 -0.470911D+01 -0.209839D+01 -0.453246D-01
     20 -0.219395D-02  0.553849D-02 -0.217775D+01  0.106175D+00  0.272105D-01
     21 -0.340084D-03 -0.264990D-01 -0.605571D-01  0.145510D+00 -0.555850D+01
     22  0.919888D-02  0.781164D-03  0.428166D+00  0.428028D-01  0.535583D-01
     23  0.125070D-01  0.145603D-02  0.101314D+00 -0.258366D+00 -0.526999D+00
     24  0.478432D-02 -0.454497D-02  0.102291D+00 -0.537333D+00  0.878498D-01
     25 -0.452045D-02 -0.133939D-01 -0.530396D+01  0.229974D+00  0.402744D+00
     26 -0.226616D-01  0.789682D-02  0.230361D+00 -0.412381D+01  0.226418D+01
     27  0.111427D-01 -0.313927D-02  0.420566D+00  0.221799D+01 -0.869940D+00
     28  0.413715D-03 -0.880078D-03  0.190666D+00 -0.233936D-02  0.132865D+00
     29 -0.547038D-03 -0.114788D-02  0.107785D-01  0.236155D+00  0.148035D-01
     30 -0.330197D-03 -0.132127D-03  0.127683D+00  0.612042D-01 -0.259081D+00
     31  0.614687D-03 -0.105159D-02  0.697059D-01 -0.499025D-01 -0.589131D-01
     32 -0.190769D-01 -0.950024D-02 -0.842044D-01  0.111217D+00 -0.796170D-01
     33 -0.115022D-01  0.543396D-01 -0.130958D+00 -0.639217D-01  0.196650D-01
     34 -0.138125D-01 -0.316489D-01 -0.861963D-01  0.143090D+00 -0.403911D-01
     35 -0.207387D-01  0.160072D-01  0.839595D-01 -0.372154D+00  0.421584D+00
     36  0.172581D-01  0.138280D-01 -0.776110D-01  0.414218D+00  0.649647D+00
     37  0.690191D-02 -0.509327D-02  0.383128D-03 -0.177862D+00 -0.469188D+00
     38  0.548534D-01 -0.509644D-01 -0.713044D-01  0.105931D+01  0.489389D+00
     39 -0.623541D-01 -0.277797D-02 -0.466705D+00  0.377469D+00 -0.234367D+00
               16            17            18            19            20
     16  0.106523D+01
     17 -0.242138D+00  0.410934D+01
     18 -0.701630D+00 -0.141426D+00  0.415247D+01
     19  0.430763D-02  0.795590D-01  0.628415D-03  0.202718D+02
     20  0.491947D-01  0.789057D-02  0.637453D-02  0.670501D+01  0.148967D+02
     21 -0.230318D-02  0.588912D-02  0.384803D-01 -0.812055D+01  0.355472D+01
     22 -0.483529D-03 -0.141059D-01 -0.397178D-02 -0.378571D+01  0.386771D+00
     23 -0.264292D-01  0.886365D-02  0.656776D-02  0.373434D+00 -0.320526D+01
     24 -0.214922D-01  0.137574D-01 -0.893277D-02  0.499739D+00  0.131865D+01
     25  0.112057D+00 -0.512245D-02 -0.445637D-01 -0.139342D+00  0.410385D-01
     26  0.177724D-01  0.713400D-01 -0.101679D-01  0.938552D-01 -0.122479D+00
     27 -0.300155D-01 -0.156402D-01 -0.346322D-01 -0.103756D-01  0.725652D-01
     28  0.759376D-02 -0.114333D-03 -0.228382D-01 -0.387311D-01 -0.219933D-01
     29 -0.762989D-02  0.187857D-01 -0.281130D-02 -0.883687D-02 -0.331548D-01
     30 -0.189851D-01  0.311824D-03 -0.511455D-01 -0.352775D-01  0.615764D-01
     31  0.888221D-01  0.274687D-01  0.828491D-01  0.231306D-02  0.178114D-01
     32  0.249940D-01 -0.291118D-01  0.146562D-01  0.965273D-02 -0.262742D-01
     33  0.898115D-01  0.183424D-01  0.280715D-01  0.127131D-01  0.675445D-02
     34 -0.261226D-01  0.134775D-01  0.145064D-01 -0.136668D+00 -0.761109D-01
     35  0.665235D-01  0.196775D-01  0.685212D-01 -0.592432D-01  0.241989D+00
     36  0.594598D-01  0.607498D-01  0.198046D-01 -0.377137D-01  0.169982D+00
     37  0.130442D+00 -0.795753D-01  0.568753D-01 -0.112865D+02 -0.489565D+01
     38 -0.115253D+00 -0.158927D-01 -0.356680D-01 -0.506563D+01 -0.122755D+02
     39  0.813872D-01 -0.291140D-01 -0.217990D-01  0.772945D+01 -0.506944D+01
               21            22            23            24            25
     21  0.144149D+02
     22  0.536129D+00  0.348487D+01
     23  0.136613D+01 -0.629977D+00  0.309184D+01
     24 -0.173744D+01 -0.486363D+00 -0.134786D+01  0.137357D+01
     25 -0.669268D-01 -0.567931D-01 -0.103685D-01 -0.149316D-01  0.187109D+02
     26  0.209214D+00  0.522094D-02  0.905036D-01  0.154628D+00  0.222539D+01
     27  0.904581D-02 -0.163707D-03  0.134730D+00  0.749095D-01  0.126422D+00
     28 -0.659830D-01 -0.320639D-02 -0.339405D-02 -0.582985D-02 -0.366319D+01
     29  0.357185D-01 -0.100338D-02 -0.273427D-02 -0.816902D-03  0.663687D+00
     30  0.918024D-01  0.757622D-03  0.816714D-02  0.117201D-01 -0.840865D+00
     31  0.411469D-01 -0.529429D-03  0.120132D-01  0.155351D-01 -0.122362D+01
     32  0.210880D-01  0.585073D-02  0.735655D-02  0.159404D-01 -0.208917D+00
     33  0.120877D-01  0.639313D-02  0.173743D-01  0.139168D-01  0.844746D+00
     34 -0.593150D-01 -0.112589D-01 -0.465670D-02 -0.421504D-02 -0.815807D+01
     35  0.216814D+00  0.301021D-02  0.167910D-01  0.327952D-01 -0.244095D+01
     36 -0.703778D-01  0.246212D-02  0.174653D-01  0.991434D-02 -0.252638D+00
     37  0.780888D+01 -0.780407D-02  0.165113D+00 -0.901243D-01 -0.201221D+00
     38 -0.535644D+01  0.158913D+00  0.155168D+00  0.330780D+00 -0.484210D+00
     39 -0.705438D+01 -0.104782D+00  0.350414D+00  0.219795D+00 -0.240662D-01
               26            27            28            29            30
     26  0.100549D+02
     27 -0.228552D+01  0.160119D+02
     28  0.745134D+00 -0.835394D+00  0.349242D+01
     29 -0.310400D+01 -0.123062D+01 -0.720718D+00  0.292080D+01
     30 -0.138627D+01 -0.265214D+01  0.949313D+00  0.147743D+01  0.239364D+01
     31 -0.323506D+00  0.693985D+00 -0.150166D-01 -0.943390D-02  0.167380D-01
     32 -0.408751D+01 -0.872184D-01 -0.481464D-01  0.596693D-01  0.147143D-01
     33 -0.132082D+00 -0.389260D+01  0.406380D-01  0.577113D-02  0.563998D-01
     34 -0.250175D+01 -0.274537D+00  0.584058D-01  0.725975D-01 -0.513806D-01
     35  0.890875D+00  0.112205D+01  0.108117D+00 -0.545170D-01 -0.256824D+00
     36  0.114368D+01 -0.867111D+01 -0.700422D-01 -0.233645D+00  0.239146D+00
     37 -0.488880D+00 -0.182674D-01 -0.112746D-02 -0.269512D-01 -0.678744D-01
     38  0.476370D+00  0.159995D-01 -0.807146D-01 -0.804827D-02  0.937865D-01
     39  0.301404D-01 -0.452376D+00 -0.361568D-01  0.275418D-01 -0.202709D-01
               31            32            33            34            35
     31  0.990636D+00
     32  0.365979D+00  0.388292D+01
     33 -0.894479D+00  0.868495D-01  0.380529D+01
     34  0.224535D+00 -0.461611D-01  0.717133D-01  0.856942D+01
     35 -0.119530D+00 -0.265184D-01 -0.380063D-01  0.266944D+01 -0.716979D+00
     36  0.646925D-01 -0.296976D-01  0.612538D-02  0.649236D+00 -0.197213D+01
     37 -0.115356D+00 -0.207938D-01 -0.119892D-01 -0.815915D-01 -0.172278D+00
     38  0.804379D-01  0.130936D+00  0.109730D+00 -0.143748D+00  0.272002D+00
     39  0.111701D-01  0.678737D-01 -0.770254D-01 -0.973685D-02  0.292600D-01
               36            37            38            39
     36  0.746855D+01
     37 -0.367889D-01  0.118048D+02
     38  0.877995D-01  0.578349D+01  0.990231D+01
     39 -0.136052D+00 -0.723271D+01  0.464328D+01  0.773786D+01
 ReadGW:  IGet=0 IStart=          96 Next=        5860 LGW=        5764.
 ICntrl=12127.
 Symmetry not used in FoFDir.
 MinBra= 0 MaxBra= 2 Meth= 1.
 IRaf=       0 NMat=   1 IRICut=       1 DoRegI=T DoRafI=F ISym2E= 0 JSym2E=0.
 PrsmSu:  NPrtUS=   8 ThrOK=T
 PRISM was handed    16315063 working-precision words and  1674 shell-pairs
 PRISM was handed    16315063 working-precision words and  1674 shell-pairs
 PRISM was handed    16315063 working-precision words and  1674 shell-pairs
 PRISM was handed    16315063 working-precision words and  1674 shell-pairs
 PRISM was handed    16315063 working-precision words and  1674 shell-pairs
 PRISM was handed    16315063 working-precision words and  1674 shell-pairs
 PRISM was handed    16315063 working-precision words and  1674 shell-pairs
 PRISM was handed    16315063 working-precision words and  1674 shell-pairs
 Pruned (  75, 302) grid will be used in CalDFT.
 CkSvGd:  ISavGI=        -1 IRadAn=       4 IRASav=       4 ISavGd=        -1.
 CalDSu:  NPrtUS=   8 ThrOK=T
 IPart= 0 IRanGd=          0 ScrnBf=T ScrnGd=T RCrit=4.00D+00 DoMicB=T.
 IPart= 6 IRanGd=          0 ScrnBf=T ScrnGd=T RCrit=4.00D+00 DoMicB=T.
 IPart= 7 IRanGd=          0 ScrnBf=T ScrnGd=T RCrit=4.00D+00 DoMicB=T.
 IPart= 1 IRanGd=          0 ScrnBf=T ScrnGd=T RCrit=4.00D+00 DoMicB=T.
 IPart= 3 IRanGd=          0 ScrnBf=T ScrnGd=T RCrit=4.00D+00 DoMicB=T.
 CutRad = 1000.00    CtRdIn =    0.00    XCrit =  15.00   ICut = 0
 IPart= 4 IRanGd=          0 ScrnBf=T ScrnGd=T RCrit=4.00D+00 DoMicB=T.
 CutRad = 1000.00    CtRdIn =    0.00    XCrit =  15.00   ICut = 0
 CutRad = 1000.00    CtRdIn =    0.00    XCrit =  15.00   ICut = 0
 IPart= 2 IRanGd=          0 ScrnBf=T ScrnGd=T RCrit=4.00D+00 DoMicB=T.
 CutRad = 1000.00    CtRdIn =    0.00    XCrit =  15.00   ICut = 0
 IPart= 5 IRanGd=          0 ScrnBf=T ScrnGd=T RCrit=4.00D+00 DoMicB=T.
 CutRad = 1000.00    CtRdIn =    0.00    XCrit =  15.00   ICut = 0
 CutRad = 1000.00    CtRdIn =    0.00    XCrit =  15.00   ICut = 0
 CutRad = 1000.00    CtRdIn =    0.00    XCrit =  15.00   ICut = 0
 CutRad = 1000.00    CtRdIn =    0.00    XCrit =  15.00   ICut = 0
 IPart= 7        12410 of        14206 points in      29 batches and       84 microbatches, Max-NSigAt=      13 Max-NSgAt2=      13
 IPart= 0        11102 of        12452 points in      26 batches and       87 microbatches, Max-NSigAt=      13 Max-NSgAt2=      13
 IPart= 2        11420 of        12654 points in      26 batches and       73 microbatches, Max-NSigAt=      13 Max-NSgAt2=      13
 IPart= 5        11592 of        12808 points in      26 batches and       80 microbatches, Max-NSigAt=      13 Max-NSgAt2=      13
 IPart= 1         9893 of        10640 points in      20 batches and       62 microbatches, Max-NSigAt=      13 Max-NSgAt2=      13
 IPart= 6        10798 of        12176 points in      25 batches and       76 microbatches, Max-NSigAt=      13 Max-NSgAt2=      13
 IPart= 4        12244 of        14174 points in      29 batches and       85 microbatches, Max-NSigAt=      13 Max-NSgAt2=      13
 IPart= 3        12345 of        14298 points in      30 batches and       98 microbatches, Max-NSigAt=      13 Max-NSgAt2=      13
 Polarizability after L703:
                1             2             3
      1  0.435428D+02
      2 -0.404009D+01  0.558285D+02
      3  0.120697D+01  0.797122D+00  0.550874D+02
 Dipole Derivatives after L703:
               1            2            3            4            5
      1 0.990457D-01 0.325278D-01 0.273666D-01 0.557877D-01 0.321894D-01
      2 0.658139D-01 0.780535D-02-0.553968D-01 0.340351D-01-0.692980D-01
      3-0.180680D-01-0.838013D-02 0.945418D-01-0.112007D-03 0.362240D-01
               6            7            8            9           10
      1 0.120914D-01 0.537423D-01-0.384418D-01-0.104879D-01-0.133785D+00
      2-0.586074D-02-0.322473D-01 0.500719D-01-0.428308D-01-0.342571D-01
      3 0.868366D-01-0.305184D-01-0.782801D-01-0.125934D+00 0.100270D-01
              11           12           13           14           15
      1 0.881560D-02-0.495649D-01 0.153069D+00 0.172100D+00-0.772037D-01
      2 0.586731D-01 0.166937D-01 0.409996D-01-0.361721D+00-0.110294D-01
      3 0.214770D-01 0.416434D-01-0.915957D-01-0.334933D-01-0.146884D-01
              16           17           18           19           20
      1-0.109705D+00-0.237785D-01-0.566093D-02 0.405586D+00-0.315424D+00
      2-0.308576D-01 0.155780D-01-0.581061D-01-0.361652D+00 0.103515D+01
      3-0.274888D-01-0.990616D-02 0.607455D-03 0.367575D+00-0.202014D-01
              21           22           23           24           25
      1 0.360790D+00 0.172372D-01-0.696961D-02-0.646448D-01 0.403103D-01
      2 0.645720D-01-0.831106D-02-0.903591D-01-0.174249D+00 0.313246D+00
      3 0.710486D+00-0.665268D-01-0.149724D+00-0.194814D+00 0.264237D+00
              26           27           28           29           30
      1 0.992051D-01 0.101750D+00 0.563966D-01-0.677605D-01 0.457294D-01
      2 0.216886D+00 0.138772D+00-0.101956D+00 0.101766D-01 0.204044D-01
      3 0.190209D+00 0.123372D+00 0.552994D-01 0.121887D+00-0.178352D-01
              31           32           33           34           35
      1 0.254847D-01-0.534796D-02-0.335824D-01-0.182773D+00-0.888103D-01
      2-0.998299D-01 0.104054D+00-0.386678D-01-0.460195D-01-0.276683D+00
      3-0.105440D+00-0.442104D-01 0.173980D+00-0.832289D-01-0.130501D+00
              36           37           38           39
      1-0.540407D-01-0.480396D+00 0.201695D+00-0.252541D+00
      2-0.362352D-01 0.261036D+00-0.700331D+00 0.181934D+00
      3-0.238668D+00-0.274159D+00 0.104899D+00-0.639527D+00
 Hessian after L703:
                1             2             3             4             5
      1  0.541041D+00
      2 -0.315586D-01  0.527971D+00
      3  0.384839D-01  0.544579D-01  0.508864D+00
      4 -0.819061D-01  0.909384D-01  0.556034D-02  0.863607D-01
      5  0.900758D-01 -0.279588D+00 -0.188849D-01 -0.964874D-01  0.304244D+00
      6  0.570654D-02 -0.206208D-01 -0.451155D-01 -0.938183D-02  0.183278D-01
      7 -0.589849D-01 -0.199465D-01 -0.506038D-01  0.194637D-02  0.334760D-02
      8 -0.200676D-01 -0.800049D-01 -0.861705D-01 -0.796866D-02 -0.903447D-02
      9 -0.497973D-01 -0.857481D-01 -0.263618D+00 -0.130945D-03 -0.705112D-03
     10 -0.301921D+00 -0.408125D-02 -0.326753D-01 -0.105803D-01 -0.715834D-03
     11 -0.328201D-02 -0.477895D-01 -0.949760D-03  0.301658D-01  0.272158D-02
     12 -0.332803D-01 -0.160925D-02 -0.525714D-01  0.283694D-02  0.120405D-03
     13 -0.887639D-01 -0.327370D-01  0.287093D-01  0.379305D-02  0.515833D-02
     14 -0.211929D-01 -0.105334D+00  0.263649D-01 -0.169297D-01 -0.188311D-01
     15  0.255657D-01  0.368085D-01 -0.117998D+00 -0.289433D-04  0.153295D-02
     16 -0.153588D-01 -0.172750D-02  0.245565D-04  0.845534D-03 -0.228036D-04
     17 -0.218941D-01 -0.866071D-03 -0.126496D-02  0.137511D-04  0.737413D-03
     18  0.255036D-01  0.245588D-02  0.146408D-02 -0.112823D-02 -0.373381D-03
     19  0.820013D-02 -0.125222D-01 -0.732148D-02 -0.257697D-02 -0.277167D-02
     20  0.514020D-03 -0.250919D-01  0.134353D-01  0.806145D-04  0.759446D-03
     21 -0.886117D-02  0.284104D-01 -0.723144D-03  0.247805D-02  0.345088D-02
     22 -0.604923D-03  0.210242D-02  0.185779D-03  0.894428D-04  0.257531D-03
     23 -0.216112D-03  0.237175D-02 -0.813702D-03  0.164636D-03  0.281624D-03
     24  0.709020D-03 -0.185044D-02 -0.228159D-03 -0.370885D-03 -0.596457D-03
     25  0.950942D-03  0.691946D-02  0.104157D-01  0.225390D-02 -0.901770D-03
     26  0.471735D-02  0.119441D-01  0.153218D-01  0.165782D-02 -0.149615D-02
     27  0.433021D-03 -0.559892D-02 -0.275344D-01 -0.233291D-02 -0.177510D-03
     28  0.346924D-03 -0.524301D-03 -0.289060D-03 -0.647167D-04  0.134333D-03
     29 -0.645691D-03 -0.108923D-02 -0.342054D-02  0.410646D-03 -0.362812D-03
     30 -0.215444D-02 -0.380300D-02 -0.535052D-02  0.350679D-03 -0.180735D-03
     31  0.107514D-02  0.417480D-04  0.126552D-02 -0.326471D-03  0.200318D-03
     32  0.851986D-03 -0.319214D-03  0.120920D-02 -0.433777D-03  0.167026D-03
     33 -0.146074D-02 -0.244987D-03  0.872384D-03  0.466938D-03 -0.510269D-04
     34  0.152727D-02 -0.523179D-03  0.183846D-02 -0.179709D-02  0.686476D-03
     35 -0.789462D-03 -0.123644D-02  0.329044D-02 -0.520412D-03  0.117342D-02
     36 -0.102150D-03  0.585453D-03 -0.771254D-03  0.118524D-02 -0.231613D-02
     37 -0.560178D-02  0.361849D-02  0.440617D-02  0.196264D-02  0.103912D-02
     38  0.348733D-02 -0.966651D-03 -0.257518D-02 -0.109178D-02 -0.771136D-03
     39 -0.745612D-03 -0.324273D-02  0.271016D-02  0.495553D-03 -0.146777D-03
                6             7             8             9            10
      6  0.492644D-01
      7  0.114584D-01  0.597729D-01
      8 -0.276975D-01  0.232474D-01  0.845395D-01
      9 -0.128515D-02  0.530401D-01  0.922293D-01  0.288333D+00
     10 -0.197762D-02 -0.520818D-02  0.338928D-03 -0.944482D-03  0.329128D+00
     11  0.484770D-02 -0.118665D-01 -0.103252D-02 -0.102150D-02  0.738251D-02
     12 -0.401779D-03 -0.296571D-01  0.674008D-03 -0.247234D-02  0.334949D-01
     13 -0.634174D-02  0.209375D-02  0.548281D-02 -0.472291D-02 -0.123485D-01
     14  0.258774D-01  0.671671D-02  0.711142D-02 -0.689723D-02 -0.223362D-02
     15 -0.580221D-03  0.133957D-01  0.189574D-01 -0.202248D-01 -0.780543D-03
     16 -0.333964D-03  0.533488D-03  0.241738D-03  0.298417D-03  0.293604D-03
     17 -0.120839D-02  0.717855D-03  0.860273D-03 -0.260545D-03 -0.169268D-02
     18  0.102028D-02 -0.749586D-04 -0.647142D-03  0.832977D-03  0.188152D-02
     19  0.376939D-02  0.321211D-03  0.109252D-02 -0.192272D-03 -0.996201D-03
     20 -0.115016D-02 -0.709558D-04  0.109091D-02 -0.263050D-02  0.215065D-02
     21 -0.421901D-02 -0.401649D-03  0.166745D-02 -0.905662D-03 -0.374763D-03
     22 -0.373095D-03 -0.146310D-05 -0.111731D-03 -0.153388D-03 -0.180310D-03
     23  0.126504D-03 -0.523445D-04 -0.312339D-03  0.109082D-02 -0.172338D-03
     24  0.614452D-03  0.000000D+00 -0.306206D-03  0.633769D-03  0.153991D-04
     25 -0.387363D-03 -0.942107D-03 -0.251824D-02  0.273073D-02 -0.384259D-03
     26  0.422694D-03 -0.230676D-02 -0.431740D-02  0.384783D-02 -0.628952D-03
     27  0.102798D-02  0.188742D-02  0.216853D-02 -0.103332D-02 -0.463974D-04
     28 -0.714219D-04  0.373548D-03  0.534721D-04 -0.115164D-03  0.306654D-03
     29 -0.204984D-03  0.283903D-03  0.278099D-03 -0.760402D-03 -0.192086D-03
     30  0.197696D-03  0.770892D-03  0.115342D-02 -0.132094D-02 -0.128553D-03
     31 -0.289267D-03  0.143877D-03  0.142294D-03 -0.727728D-05  0.335825D-03
     32  0.159298D-03 -0.203369D-04  0.771077D-04  0.384511D-04  0.258607D-03
     33 -0.163809D-03  0.305442D-03 -0.623739D-04  0.202622D-03  0.565720D-03
     34  0.272631D-03  0.411121D-05  0.597731D-03 -0.129657D-03  0.451610D-03
     35 -0.182402D-03 -0.910570D-04  0.917573D-03  0.912382D-04  0.546003D-03
     36 -0.936830D-04 -0.124680D-03 -0.131336D-02  0.390542D-03  0.136391D-03
     37 -0.205064D-02 -0.525219D-04 -0.530608D-03  0.124188D-03  0.110366D-02
     38  0.130278D-02  0.410367D-04 -0.173258D-03  0.725699D-03 -0.959932D-03
     39 -0.265594D-03  0.414252D-05 -0.653093D-03  0.467570D-03  0.833725D-03
               11            12            13            14            15
     11  0.489837D-01
     12 -0.213555D-02  0.541039D-01
     13 -0.194400D-01  0.234381D-01  0.531533D+00
     14 -0.306862D-02  0.118013D-02 -0.880525D-02  0.453140D+00
     15 -0.213376D-02  0.228222D-02  0.469556D-01  0.188877D-01  0.454503D+00
     16 -0.171804D-02  0.233129D-02 -0.282921D+00 -0.755196D-02 -0.468257D-01
     17 -0.182989D-02  0.329585D-02 -0.260465D-02 -0.461961D-01 -0.737143D-02
     18  0.321265D-02 -0.292469D-02 -0.484265D-01 -0.861184D-02 -0.522800D-01
     19 -0.294914D-02  0.983504D-03 -0.920836D-01  0.169136D-01  0.748737D-02
     20  0.134146D-02 -0.119512D-02  0.226092D-01 -0.159267D+00 -0.312232D-01
     21 -0.119843D-02  0.976900D-03  0.630790D-02 -0.370937D-01 -0.918155D-01
     22 -0.117139D-04  0.108515D-03  0.147845D-01  0.888731D-02  0.331099D-02
     23 -0.138668D-03  0.958271D-04 -0.291861D-02 -0.980585D-02 -0.276141D-01
     24  0.257681D-04 -0.643199D-04 -0.663935D-02 -0.200268D-02  0.810735D-03
     25  0.981601D-03  0.118269D-02 -0.699444D-01 -0.137659D-02 -0.286345D-01
     26  0.549000D-03  0.119993D-03 -0.113317D-01 -0.724318D-01 -0.150339D-01
     27 -0.102522D-02  0.138180D-02 -0.314136D-01 -0.254748D-01 -0.138509D+00
     28  0.118179D-03 -0.321237D-03  0.198638D-02  0.308825D-02 -0.598199D-02
     29  0.901124D-05  0.123878D-03  0.800251D-02  0.104501D-01 -0.943470D-02
     30 -0.995198D-04  0.266785D-03  0.175256D-01  0.171491D-01 -0.213514D-01
     31  0.148864D-03 -0.494905D-03 -0.781833D-02 -0.334722D-02 -0.283036D-03
     32  0.202761D-03 -0.876492D-04 -0.135461D-01 -0.974605D-03 -0.601750D-03
     33  0.276470D-03 -0.238049D-03 -0.257650D-01  0.207672D-02 -0.148611D-01
     34 -0.398373D-03 -0.247858D-03 -0.262521D-02 -0.151311D-02  0.835740D-02
     35 -0.194227D-04 -0.432762D-03  0.150961D-01 -0.363189D-01 -0.174395D-01
     36 -0.207924D-03 -0.441150D-04  0.165590D-01 -0.335411D-01 -0.552834D-02
     37  0.868790D-03 -0.374591D-03  0.231413D-02  0.273445D-01 -0.225380D-01
     38  0.710704D-04 -0.149768D-03  0.350345D-01 -0.184737D-01  0.346657D-01
     39  0.409078D-03 -0.294917D-03 -0.161864D-01  0.220854D-01  0.555286D-02
               16            17            18            19            20
     16  0.309819D+00
     17  0.841297D-02  0.512418D-01
     18  0.501154D-01  0.182571D-02  0.633397D-01
     19 -0.133239D-01  0.338244D-01  0.646812D-03  0.444067D+00
     20 -0.177642D-02  0.435134D-02  0.330996D-02 -0.177413D+00  0.546760D+00
     21 -0.525804D-02  0.876585D-02 -0.221610D-02  0.292601D+00 -0.680717D-01
     22  0.124416D-02 -0.317958D-02 -0.324018D-03 -0.646313D-01 -0.215270D-01
     23  0.110637D-02 -0.136802D-03  0.189232D-03 -0.195315D-01 -0.126419D+00
     24  0.313572D-03  0.180498D-03  0.199008D-04 -0.229632D-01 -0.967815D-01
     25 -0.290322D-02 -0.123841D-01 -0.262714D-01  0.415267D-02  0.441386D-03
     26  0.648014D-03 -0.207466D-02 -0.221704D-02 -0.141214D-02 -0.224808D-01
     27 -0.165282D-02 -0.398339D-02 -0.104931D-01  0.395758D-02 -0.106498D-01
     28  0.399087D-03  0.480687D-03  0.109628D-03  0.100391D-02 -0.644077D-03
     29  0.102849D-03  0.447404D-03  0.113404D-02  0.784249D-03  0.712286D-04
     30 -0.502461D-03  0.350468D-03  0.113678D-02 -0.629260D-03  0.172333D-02
     31  0.678420D-03 -0.480209D-03 -0.170068D-02 -0.102164D-02  0.184366D-02
     32  0.163631D-03 -0.909128D-03 -0.304085D-02 -0.225098D-02  0.180769D-02
     33 -0.334649D-03 -0.216406D-02 -0.409407D-02  0.172818D-03  0.329217D-03
     34  0.698149D-03  0.308643D-04 -0.429748D-03 -0.327583D-04  0.116814D-02
     35 -0.680091D-03  0.191463D-02  0.274526D-02 -0.357453D-02  0.204542D-02
     36  0.397331D-03  0.870828D-03  0.237248D-02 -0.300532D-02 -0.795778D-03
     37 -0.505587D-05 -0.124522D-02  0.986143D-04 -0.283079D+00  0.172623D+00
     38  0.280122D-02 -0.754023D-02  0.175254D-04  0.169810D+00 -0.224969D+00
     39  0.142706D-02  0.963572D-03  0.182173D-02 -0.275507D+00  0.193700D+00
               21            22            23            24            25
     21  0.717965D+00
     22 -0.253978D-01  0.471968D-01
     23 -0.904509D-01  0.116870D-01  0.116103D+00
     24 -0.183945D+00  0.585215D-01  0.100690D+00  0.216754D+00
     25  0.170043D-01  0.737859D-03  0.406171D-02  0.637693D-03  0.418629D+00
     26 -0.277833D-01  0.261923D-02 -0.173433D-02  0.120860D-03  0.308541D-01
     27 -0.570668D-02  0.551840D-04  0.261170D-02  0.104527D-02  0.216479D-01
     28  0.169569D-02 -0.324343D-03  0.132865D-04 -0.136066D-03 -0.859212D-01
     29  0.157297D-02 -0.434386D-03  0.463215D-03  0.248318D-03 -0.740813D-01
     30  0.524659D-03 -0.991339D-04  0.101851D-03  0.163221D-03  0.698385D-01
     31 -0.175169D-02  0.118260D-03 -0.358736D-03 -0.158926D-03 -0.237063D+00
     32 -0.314164D-02  0.334596D-03 -0.358739D-03  0.404713D-03  0.181436D-01
     33  0.317642D-02 -0.308346D-03  0.607713D-03  0.177680D-03 -0.568160D-01
     34 -0.328014D-02  0.168706D-03 -0.403142D-03 -0.314078D-03 -0.279313D-01
     35 -0.731648D-02  0.183674D-03 -0.309768D-02 -0.271605D-03  0.275064D-01
     36 -0.599034D-02  0.299283D-03 -0.176991D-02  0.229252D-03 -0.935444D-02
     37 -0.274762D+00  0.140264D-02  0.661987D-02 -0.296148D-01 -0.163494D-02
     38  0.191189D+00 -0.807325D-03  0.227839D-01  0.138968D-03  0.235369D-02
     39 -0.427122D+00 -0.358255D-01  0.151352D-01 -0.362115D-01 -0.199372D-02
               26            27            28            29            30
     26  0.457543D+00
     27 -0.484623D-02  0.420212D+00
     28 -0.639883D-01  0.780926D-01  0.953273D-01
     29 -0.108177D+00  0.965634D-01  0.652793D-01  0.133681D+00
     30  0.679778D-01 -0.157439D+00 -0.831024D-01 -0.995097D-01  0.177593D+00
     31 -0.843863D-02 -0.601516D-01 -0.176291D-01  0.609615D-03 -0.733764D-03
     32 -0.244224D-01 -0.111838D-01 -0.168214D-01  0.470598D-02  0.182645D-02
     33 -0.137812D-01 -0.338534D-01  0.194477D-01 -0.122201D-02 -0.485654D-03
     34  0.521105D-01 -0.797227D-02  0.420241D-02 -0.455295D-03 -0.152448D-02
     35 -0.235237D+00 -0.381965D-01  0.128527D-01 -0.408695D-01  0.132183D-01
     36 -0.215155D-01 -0.485973D-01 -0.787131D-02  0.159034D-01  0.520713D-02
     37 -0.450063D-02 -0.250404D-02 -0.694204D-05  0.335706D-03  0.388812D-03
     38  0.233621D-02 -0.207396D-03 -0.421035D-04  0.393279D-03  0.922520D-04
     39 -0.263373D-02 -0.501541D-03 -0.145695D-02 -0.993639D-03  0.857591D-03
               31            32            33            34            35
     31  0.280104D+00
     32 -0.144503D-01  0.425827D-01
     33  0.590047D-01  0.372272D-02  0.539040D-01
     34 -0.189697D-01  0.262361D-01  0.397566D-02  0.441469D-01
     35  0.240556D-01 -0.217699D-01  0.986319D-02 -0.764849D-01  0.332281D+00
     36  0.332731D-02  0.875368D-02 -0.369973D-02 -0.229789D-02  0.335067D-01
     37  0.372793D-03  0.153434D-02  0.745718D-03  0.156954D-03  0.190006D-02
     38  0.329612D-04 -0.789273D-03  0.649661D-03 -0.105175D-02  0.216349D-03
     39  0.197361D-02  0.194119D-02 -0.937324D-03  0.175198D-02  0.112411D-02
               36            37            38            39
     36  0.552259D-01
     37  0.851285D-03  0.283067D+00
     38  0.183967D-02 -0.209608D+00  0.227882D+00
     39  0.129952D-02  0.325229D+00 -0.227689D+00  0.452624D+00
 FrcOut:
 IF    =   899 IFX   =   938 IFXYZ =   977
 IFFX  =  1016 IFFFX =  1796 IFLen =    39
 IFFLen=   780 IFFFLn=     0 IEDerv=  1796
 LEDerv=  1925 IFroze=  3725 ICStrt= 49164
 DipoleDeriv   = 9.90457241D-02 6.58139432D-02-1.80680396D-02
                 3.25277532D-02 7.80534638D-03-8.38013145D-03
                 2.73666110D-02-5.53968347D-02 9.45418464D-02
                 5.57876686D-02 3.40350600D-02-1.12006548D-04
                 3.21894286D-02-6.92979697D-02 3.62240390D-02
                 1.20914016D-02-5.86074063D-03 8.68365946D-02
                 5.37423436D-02-3.22472528D-02-3.05184387D-02
                -3.84418180D-02 5.00718511D-02-7.82801208D-02
                -1.04879402D-02-4.28308305D-02-1.25934391D-01
                -1.33785474D-01-3.42570544D-02 1.00269583D-02
                 8.81559918D-03 5.86731310D-02 2.14770314D-02
                -4.95648779D-02 1.66937199D-02 4.16434038D-02
                 1.53069095D-01 4.09996367D-02-9.15957075D-02
                 1.72099532D-01-3.61720824D-01-3.34932925D-02
                -7.72036665D-02-1.10294324D-02-1.46884191D-02
                -1.09705078D-01-3.08575803D-02-2.74887959D-02
                -2.37785198D-02 1.55780339D-02-9.90615655D-03
                -5.66093008D-03-5.81061248D-02 6.07455402D-04
                 4.05586097D-01-3.61652120D-01 3.67574873D-01
                -3.15423586D-01 1.03514701D+00-2.02014205D-02
                 3.60789691D-01 6.45719594D-02 7.10485957D-01
                 1.72372351D-02-8.31105902D-03-6.65267619D-02
                -6.96960535D-03-9.03591463D-02-1.49724299D-01
                -6.46448044D-02-1.74248868D-01-1.94813706D-01
                 4.03102661D-02 3.13245782D-01 2.64236733D-01
                 9.92051212D-02 2.16886126D-01 1.90208964D-01
                 1.01749646D-01 1.38772095D-01 1.23372198D-01
                 5.63965841D-02-1.01955600D-01 5.52993566D-02
                -6.77604905D-02 1.01765778D-02 1.21887247D-01
                 4.57293644D-02 2.04044492D-02-1.78351680D-02
                 2.54846812D-02-9.98298950D-02-1.05440135D-01
                -5.34796116D-03 1.04053623D-01-4.42104269D-02
                -3.35823743D-02-3.86678322D-02 1.73979733D-01
                -1.82773273D-01-4.60194539D-02-8.32288552D-02
                -8.88102549D-02-2.76683110D-01-1.30500753D-01
                -5.40406566D-02-3.62351576D-02-2.38668237D-01
                -4.80395870D-01 2.61035593D-01-2.74159181D-01
                 2.01694802D-01-7.00330645D-01 1.04899319D-01
                -2.52541464D-01 1.81933597D-01-6.39527267D-01
 Full mass-weighted force constant matrix:
 Low frequencies ---  -14.3718   -7.4237   -4.9785   -0.0005   -0.0005    0.0003
 Low frequencies ---   65.0395  107.6490  204.0445
 Dipole derivatives wrt mode   1:  2.92114D+00  2.00709D+00 -4.73331D-01
 Vibrational polarizability contributions from mode   1      54.2977483      25.6336845       1.4256304
 Vibrational hyperpolarizability contributions from mode   1       0.0000000       0.0000000       0.0000000
 Dipole derivatives wrt mode   2:  3.35708D-01  4.43196D-01  8.40114D-01
 Vibrational polarizability contributions from mode   2       0.2617790       0.4562498       1.6394077
 Vibrational hyperpolarizability contributions from mode   2       0.0000000       0.0000000       0.0000000
 Dipole derivatives wrt mode   3:  3.58031D-01 -1.88353D+00 -2.61276D+00
 Vibrational polarizability contributions from mode   3       0.0828564       2.2931247       4.4124846
 Vibrational hyperpolarizability contributions from mode   3       0.0000000       0.0000000       0.0000000
 Dipole derivatives wrt mode   4: -2.74494D-01  7.66362D-01  1.54003D+00
 Vibrational polarizability contributions from mode   4       0.0407011       0.3172549       1.2811447
 Vibrational hyperpolarizability contributions from mode   4       0.0000000       0.0000000       0.0000000
 Dipole derivatives wrt mode   5:  2.51418D-01 -8.61126D-01  1.65916D-01
 Vibrational polarizability contributions from mode   5       0.0203481       0.2387071       0.0088615
 Vibrational hyperpolarizability contributions from mode   5       0.0000000       0.0000000       0.0000000
 Dipole derivatives wrt mode   6: -1.17775D+00  1.71602D-01  5.40698D-01
 Vibrational polarizability contributions from mode   6       0.2725247       0.0057856       0.0574395
 Vibrational hyperpolarizability contributions from mode   6       0.0000000       0.0000000       0.0000000
 Dipole derivatives wrt mode   7:  1.51638D-01  7.76290D-01  1.77651D+00
 Vibrational polarizability contributions from mode   7       0.0029079       0.0762115       0.3991237
 Vibrational hyperpolarizability contributions from mode   7       0.0000000       0.0000000       0.0000000
 Dipole derivatives wrt mode   8:  1.15418D+00  2.04428D+00 -3.12013D+00
 Vibrational polarizability contributions from mode   8       0.0873649       0.2740735       0.6384592
 Vibrational hyperpolarizability contributions from mode   8       0.0000000       0.0000000       0.0000000
 Dipole derivatives wrt mode   9: -1.45488D+00  2.43707D+00  3.03290D+00
 Vibrational polarizability contributions from mode   9       0.1121465       0.3146799       0.4873587
 Vibrational hyperpolarizability contributions from mode   9       0.0000000       0.0000000       0.0000000
 Dipole derivatives wrt mode  10: -7.65965D-01  1.00670D+00 -1.43585D+00
 Vibrational polarizability contributions from mode  10       0.0241573       0.0417279       0.0848884
 Vibrational hyperpolarizability contributions from mode  10       0.0000000       0.0000000       0.0000000
 Dipole derivatives wrt mode  11:  1.15457D+00 -2.86097D+00  6.52999D-02
 Vibrational polarizability contributions from mode  11       0.0420650       0.2582913       0.0001346
 Vibrational hyperpolarizability contributions from mode  11       0.0000000       0.0000000       0.0000000
 Dipole derivatives wrt mode  12:  5.74756D-01 -4.98443D+00 -2.59869D+00
 Vibrational polarizability contributions from mode  12       0.0102682       0.7722503       0.2099112
 Vibrational hyperpolarizability contributions from mode  12       0.0000000       0.0000000       0.0000000
 Dipole derivatives wrt mode  13:  2.40036D-01 -4.16287D-03 -4.49371D-01
 Vibrational polarizability contributions from mode  13       0.0015096       0.0000005       0.0052909
 Vibrational hyperpolarizability contributions from mode  13       0.0000000       0.0000000       0.0000000
 Dipole derivatives wrt mode  14:  1.10506D-02 -4.35838D-01  4.17097D-01
 Vibrational polarizability contributions from mode  14       0.0000029       0.0045827       0.0041970
 Vibrational hyperpolarizability contributions from mode  14       0.0000000       0.0000000       0.0000000
 Dipole derivatives wrt mode  15:  4.45147D-01  1.95423D+00  3.35225D+00
 Vibrational polarizability contributions from mode  15       0.0045786       0.0882433       0.2596586
 Vibrational hyperpolarizability contributions from mode  15       0.0000000       0.0000000       0.0000000
 Dipole derivatives wrt mode  16: -9.92463D-01 -1.30444D+00 -7.33290D-01
 Vibrational polarizability contributions from mode  16       0.0199772       0.0345107       0.0109058
 Vibrational hyperpolarizability contributions from mode  16       0.0000000       0.0000000       0.0000000
 Dipole derivatives wrt mode  17: -1.44780D+00  3.35047D+00  2.09884D+00
 Vibrational polarizability contributions from mode  17       0.0395711       0.2119220       0.0831619
 Vibrational hyperpolarizability contributions from mode  17       0.0000000       0.0000000       0.0000000
 Dipole derivatives wrt mode  18: -1.41927D+00  8.54251D-01  4.46388D-01
 Vibrational polarizability contributions from mode  18       0.0327129       0.0118510       0.0032360
 Vibrational hyperpolarizability contributions from mode  18       0.0000000       0.0000000       0.0000000
 Dipole derivatives wrt mode  19: -9.51062D-01  2.10250D+00 -4.63735D-01
 Vibrational polarizability contributions from mode  19       0.0138745       0.0678060       0.0032987
 Vibrational hyperpolarizability contributions from mode  19       0.0000000       0.0000000       0.0000000
 Dipole derivatives wrt mode  20:  8.69015D-01 -4.30536D+00  3.07492D+00
 Vibrational polarizability contributions from mode  20       0.0111658       0.2740656       0.1397990
 Vibrational hyperpolarizability contributions from mode  20       0.0000000       0.0000000       0.0000000
 Dipole derivatives wrt mode  21: -6.79733D-01 -4.24732D-01  1.57325D-01
 Vibrational polarizability contributions from mode  21       0.0067586       0.0026388       0.0003621
 Vibrational hyperpolarizability contributions from mode  21       0.0000000       0.0000000       0.0000000
 Dipole derivatives wrt mode  22: -6.95825D-01  4.28276D-01  1.76133D+00
 Vibrational polarizability contributions from mode  22       0.0066193       0.0025076       0.0424127
 Vibrational hyperpolarizability contributions from mode  22       0.0000000       0.0000000       0.0000000
 Dipole derivatives wrt mode  23:  4.80518D-01  2.13377D+00  9.92957D-01
 Vibrational polarizability contributions from mode  23       0.0030979       0.0610858       0.0132284
 Vibrational hyperpolarizability contributions from mode  23       0.0000000       0.0000000       0.0000000
 Dipole derivatives wrt mode  24:  2.46459D+00 -2.40075D+00  9.97583D-01
 Vibrational polarizability contributions from mode  24       0.0731137       0.0693750       0.0119786
 Vibrational hyperpolarizability contributions from mode  24       0.0000000       0.0000000       0.0000000
 Dipole derivatives wrt mode  25:  1.27651D+00  1.26585D+00  1.94436D+00
 Vibrational polarizability contributions from mode  25       0.0192979       0.0189767       0.0447724
 Vibrational hyperpolarizability contributions from mode  25       0.0000000       0.0000000       0.0000000
 Dipole derivatives wrt mode  26:  6.76192D+00 -8.10308D+00  7.36455D+00
 Vibrational polarizability contributions from mode  26       0.3793006       0.5446832       0.4499212
 Vibrational hyperpolarizability contributions from mode  26       0.0000000       0.0000000       0.0000000
 Dipole derivatives wrt mode  27: -1.72281D+00 -7.77076D+00 -9.28990D+00
 Vibrational polarizability contributions from mode  27       0.0097296       0.1979461       0.2829057
 Vibrational hyperpolarizability contributions from mode  27       0.0000000       0.0000000       0.0000000
 Dipole derivatives wrt mode  28:  9.18288D-01 -2.10457D+00 -6.24703D-01
 Vibrational polarizability contributions from mode  28       0.0027474       0.0144308       0.0012715
 Vibrational hyperpolarizability contributions from mode  28       0.0000000       0.0000000       0.0000000
 Dipole derivatives wrt mode  29: -9.93288D-01 -2.04700D+00  3.12255D+00
 Vibrational polarizability contributions from mode  29       0.0030559       0.0129783       0.0301996
 Vibrational hyperpolarizability contributions from mode  29       0.0000000       0.0000000       0.0000000
 Dipole derivatives wrt mode  30: -3.30390D+00 -1.88683D+00 -9.72250D-01
 Vibrational polarizability contributions from mode  30       0.0325631       0.0106202       0.0028199
 Vibrational hyperpolarizability contributions from mode  30       0.0000000       0.0000000       0.0000000
 Dipole derivatives wrt mode  31: -2.96828D+00 -1.27022D+00  3.69841D+00
 Vibrational polarizability contributions from mode  31       0.0257800       0.0047210       0.0400225
 Vibrational hyperpolarizability contributions from mode  31       0.0000000       0.0000000       0.0000000
 Dipole derivatives wrt mode  32: -3.68173D+00 -1.23036D+00 -3.43775D+00
 Vibrational polarizability contributions from mode  32       0.0380555       0.0042499       0.0331789
 Vibrational hyperpolarizability contributions from mode  32       0.0000000       0.0000000       0.0000000
 Dipole derivatives wrt mode  33:  1.29244D+00 -2.08723D+00 -6.94142D-01
 Vibrational polarizability contributions from mode  33       0.0046092       0.0120212       0.0013295
 Vibrational hyperpolarizability contributions from mode  33       0.0000000       0.0000000       0.0000000
 Diagonal vibrational polarizability:
       55.9829887      32.3312576      12.1087950
 Harmonic frequencies (cm**-1), IR intensities (KM/Mole), Raman scattering
[...]
     33 -0.904509D-01 -0.277833D-01  0.157297D-02 -0.314164D-02 -0.731648D-02
     34  0.100690D+00  0.120860D-03  0.248318D-03  0.404713D-03 -0.271605D-03
     35  0.261170D-02 -0.484623D-02  0.965634D-01 -0.111838D-01 -0.381965D-01
     36  0.101851D-03  0.679778D-01 -0.995097D-01  0.182645D-02  0.132183D-01
     37  0.607713D-03 -0.137812D-01 -0.122201D-02  0.372272D-02  0.986319D-02
     38 -0.176991D-02 -0.215155D-01  0.159034D-01  0.875368D-02  0.335067D-01
     39  0.151352D-01 -0.263373D-02 -0.993639D-03  0.194119D-02  0.112411D-02
               26            27            28            29            30
     26  0.227882D+00
     27 -0.257518D-02  0.508864D+00
     28  0.130278D-02 -0.451155D-01  0.492644D-01
     29  0.725699D-03 -0.263618D+00 -0.128515D-02  0.288333D+00
     30 -0.149768D-03 -0.525714D-01 -0.401779D-03 -0.247234D-02  0.541039D-01
     31  0.346657D-01 -0.117998D+00 -0.580221D-03 -0.202248D-01  0.228222D-02
     32  0.175254D-04  0.146408D-02  0.102028D-02  0.832977D-03 -0.292469D-02
     33  0.191189D+00 -0.723144D-03 -0.421901D-02 -0.905662D-03  0.976900D-03
     34  0.138968D-03 -0.228159D-03  0.614452D-03  0.633769D-03 -0.643199D-04
     35 -0.207396D-03 -0.275344D-01  0.102798D-02 -0.103332D-02  0.138180D-02
     36  0.922520D-04 -0.535052D-02  0.197696D-03 -0.132094D-02  0.266785D-03
     37  0.649661D-03  0.872384D-03 -0.163809D-03  0.202622D-03 -0.238049D-03
     38  0.183967D-02 -0.771254D-03 -0.936830D-04  0.390542D-03 -0.441150D-04
     39 -0.227689D+00  0.271016D-02 -0.265594D-03  0.467570D-03 -0.294917D-03
               31            32            33            34            35
     31  0.454503D+00
     32 -0.522800D-01  0.633397D-01
     33 -0.918155D-01 -0.221610D-02  0.717965D+00
     34  0.810735D-03  0.199008D-04 -0.183945D+00  0.216754D+00
     35 -0.138509D+00 -0.104931D-01 -0.570668D-02  0.104527D-02  0.420212D+00
     36 -0.213514D-01  0.113678D-02  0.524659D-03  0.163221D-03 -0.157439D+00
     37 -0.148611D-01 -0.409407D-02  0.317642D-02  0.177680D-03 -0.338534D-01
     38 -0.552834D-02  0.237248D-02 -0.599034D-02  0.229252D-03 -0.485973D-01
     39  0.555286D-02  0.182173D-02 -0.427122D+00 -0.362115D-01 -0.501541D-03
               36            37            38            39
     36  0.177593D+00
     37 -0.485654D-03  0.539040D-01
     38  0.520713D-02 -0.369973D-02  0.552259D-01
     39  0.857591D-03 -0.937324D-03  0.129952D-02  0.452624D+00
 Final forces over variables, Energy=-3.07088012D+02:
  7.23039690D-07 1.44213972D-06 2.74503613D-07-5.76037009D-07
 -1.02354331D-06 2.11487126D-07-3.57768956D-06-5.24639639D-07
 -1.21785163D-05 4.20699810D-06 2.74437184D-08 7.72822689D-06
  3.26658711D-06-1.41825311D-06-3.25290579D-07 3.82707679D-06
  1.99569388D-06-8.22960136D-08 2.37230678D-06 6.39453480D-06
  4.16913475D-06-1.59352179D-05-4.11834125D-06 2.67092317D-06
  5.21426837D-06-4.76453974D-06-2.99933106D-06 3.44644522D-06
  1.18251697D-06 7.17648646D-07 4.69691223D-06-1.92142366D-06
  3.60192572D-06-3.34527276D-06 5.49304662D-06-3.55086788D-06
  5.21990994D-07-1.88805811D-06-5.95553285D-06

 GradGradGradGradGradGradGradGradGradGradGradGradGradGradGradGradGradGrad
 Berny optimization.
 Search for a local minimum.
 Step number   1 out of a maximum of   2
 All quantities printed in internal units (Hartrees-Bohrs-Radians)
 Second derivative matrix not updated -- analytic derivatives used.
     Eigenvalues ---    0.00074   0.00140   0.00213   0.00906   0.01085
     Eigenvalues ---    0.01316   0.03973   0.04180   0.04978   0.05675
     Eigenvalues ---    0.05900   0.06630   0.07329   0.08591   0.10506
     Eigenvalues ---    0.11495   0.11934   0.13739   0.17966   0.19142
     Eigenvalues ---    0.23125   0.25659   0.40532   0.45763   0.57705
     Eigenvalues ---    0.60189   0.65857   0.68994   0.72532   0.76023
     Eigenvalues ---    0.81702   0.83399   1.67360
 Angle between quadratic step and forces=  81.25 degrees.
 Linear search not attempted -- first point.
 TrRot=  0.000065  0.000027 -0.000002 -0.000025 -0.000059 -0.000025
 Variable       Old X    -DE/DX   Delta X   Delta X   Delta X     New X
                                 (Linear)    (Quad)   (Total)
    X1       -1.62714   0.00000   0.00000   0.00000  -0.00004  -1.62717
    Y1       -2.06590   0.00000   0.00000  -0.00013  -0.00002  -2.06592
    Z1        0.01472   0.00000   0.00000   0.00018   0.00008   0.01481
    X2       -0.90636   0.00000   0.00000   0.00022   0.00009  -0.90627
    Y2       -3.99112   0.00000   0.00000  -0.00006   0.00001  -3.99111
    Z2       -0.12471   0.00000   0.00000   0.00027   0.00022  -0.12449
    X3       -1.21321   0.00000   0.00000   0.00007  -0.00005  -1.21326
    Y3       -1.34364   0.00000   0.00000   0.00002   0.00011  -1.34353
    Z3        1.90449   0.00000   0.00000   0.00012   0.00004   1.90453
    X4       -3.68005   0.00000   0.00000  -0.00002  -0.00005  -3.68009
    Y4       -2.12652   0.00000   0.00000  -0.00035  -0.00014  -2.12666
    Z4       -0.22030   0.00000   0.00000   0.00038   0.00016  -0.22015
    X5       -0.39366   0.00000   0.00000  -0.00036  -0.00020  -0.39386
    Y5       -0.42775   0.00000   0.00000  -0.00008  -0.00004  -0.42779
    Z5       -2.04979   0.00000   0.00000   0.00003   0.00001  -2.04978
    X6        1.64311   0.00000   0.00000  -0.00029  -0.00014   1.64296
    Y6       -0.33556   0.00000   0.00000  -0.00005  -0.00011  -0.33567
    Z6       -1.65327   0.00000   0.00000  -0.00028  -0.00019  -1.65346
    X7       -1.39556   0.00000   0.00000  -0.00009   0.00020  -1.39536
    Y7        2.24667   0.00001   0.00000   0.00003   0.00013   2.24680
    Z7       -1.88648   0.00000   0.00000   0.00007  -0.00001  -1.88649
    X8       -0.91231   0.00000   0.00000  -0.00091  -0.00067  -0.91298
    Y8        3.26658   0.00000   0.00000  -0.00038  -0.00030   3.26627
    Z8       -0.11185   0.00000   0.00000   0.00053   0.00048  -0.11137
    X9       -0.77320  -0.00001   0.00000  -0.00059  -0.00032  -0.77352
    Y9       -1.53477  -0.00002   0.00000  -0.00016  -0.00010  -1.53487
    Z9       -4.71182   0.00001   0.00000   0.00011   0.00006  -4.71176
   X10        0.13018   0.00000   0.00000  -0.00140  -0.00099   0.12919
   Y10       -0.35988   0.00000   0.00000   0.00023   0.00025  -0.35963
   Z10       -6.17820   0.00000   0.00000  -0.00010  -0.00009  -6.17829
   X11       -2.80954   0.00000   0.00000  -0.00067  -0.00037  -2.80991
   Y11       -1.44554   0.00000   0.00000  -0.00103  -0.00086  -1.44641
   Z11       -5.21564   0.00000   0.00000   0.00037   0.00021  -5.21543
   X12       -0.10351   0.00001   0.00000   0.00084   0.00099  -0.10252
   Y12       -4.00510   0.00001   0.00000   0.00025   0.00028  -4.00482
   Z12       -4.96585   0.00000   0.00000  -0.00028  -0.00029  -4.96614
   X13       -2.67196   0.00000   0.00000   0.00112   0.00155  -2.67040
   Y13        3.24802   0.00000   0.00000   0.00062   0.00079   3.24880
   Z13       -3.48704  -0.00001   0.00000  -0.00052  -0.00068  -3.48772
         Item               Value     Threshold  Converged?
 Maximum Force            0.000016     0.000450     YES
 RMS     Force            0.000005     0.000300     YES
 Maximum Displacement     0.001554     0.001800     YES
 RMS     Displacement     0.000448     0.001200     YES
 Predicted change in Energy=-6.267381D-09
 Optimization completed.
    -- Stationary point found.
 GradGradGradGradGradGradGradGradGradGradGradGradGradGradGradGradGradGrad


 Test job not archived.
 1\1\GINC-NODE11\Freq\UB3LYP\CBSB7\C4H7O2(2)\SHAMEL\18-Jun-2013\0\\# fr
 eq nosymm b3lyp/cbsb7 iop(7/33=1)\\Title Card Required\\0,2\C,-0.86104
 3,-1.093226,0.007792\H,-0.479626,-2.112008,-0.065994\H,-0.642004,-0.71
 1025,1.007811\H,-1.947396,-1.125308,-0.11658\C,-0.208315,-0.226355,-1.
 084701\H,0.869495,-0.177571,-0.874874\C,-0.738497,1.188889,-0.998284\H
 ,-0.482776,1.728599,-0.059187\C,-0.409158,-0.812166,-2.493389\H,0.0688
 89,-0.190442,-3.269363\H,-1.486742,-0.764949,-2.759997\O,-0.054775,-2.
 119407,-2.627814\O,-1.413939,1.718777,-1.845263\\Version=AM64L-G03RevD
 .01\HF=-307.0880118\S2=0.753357\S2-1=0.\S2A=0.750008\RMSD=6.888e-09\RM
 SF=4.588e-06\ZeroPoint=0.1027755\Thermal=0.1098542\Dipole=0.2903379,0.
 1046793,0.7212185\DipoleDeriv=0.0990457,0.0658139,-0.018068,0.0325278,
 0.0078053,-0.0083801,0.0273666,-0.0553968,0.0945418,0.0557877,0.034035
 1,-0.000112,0.0321894,-0.069298,0.036224,0.0120914,-0.0058607,0.086836
 6,0.0537423,-0.0322473,-0.0305184,-0.0384418,0.0500719,-0.0782801,-0.0
 104879,-0.0428308,-0.1259344,-0.1337855,-0.0342571,0.010027,0.0088156,
 0.0586731,0.021477,-0.0495649,0.0166937,0.0416434,0.1530691,0.0409996,
 -0.0915957,0.1720995,-0.3617208,-0.0334933,-0.0772037,-0.0110294,-0.01
 46884,-0.1097051,-0.0308576,-0.0274888,-0.0237785,0.015578,-0.0099062,
 -0.0056609,-0.0581061,0.0006075,0.4055861,-0.3616521,0.3675749,-0.3154
 236,1.035147,-0.0202014,0.3607897,0.064572,0.710486,0.0172372,-0.00831
 11,-0.0665268,-0.0069696,-0.0903591,-0.1497243,-0.0646448,-0.1742489,-
 0.1948137,0.0403103,0.3132458,0.2642367,0.0992051,0.2168861,0.190209,0
 .1017496,0.1387721,0.1233722,0.0563966,-0.1019556,0.0552994,-0.0677605
 ,0.0101766,0.1218872,0.0457294,0.0204044,-0.0178352,0.0254847,-0.09982
 99,-0.1054401,-0.005348,0.1040536,-0.0442104,-0.0335824,-0.0386678,0.1
 739797,-0.1827733,-0.0460195,-0.0832289,-0.0888103,-0.2766831,-0.13050
 08,-0.0540407,-0.0362352,-0.2386682,-0.4803959,0.2610356,-0.2741592,0.
 2016948,-0.7003306,0.1048993,-0.2525415,0.1819336,-0.6395273\Polar=43.
 5428379,-4.0400862,55.8284629,1.2069725,0.7971224,55.0873505\PG=C01 [X
 (C4H7O2)]\NImag=0\\0.54104103,-0.03155856,0.52797055,0.03848387,0.0544
 5794,0.50886375,-0.08190607,0.09093842,0.00556034,0.08636073,0.0900757
 8,-0.27958840,-0.01888492,-0.09648741,0.30424354,0.00570654,-0.0206207
 6,-0.04511553,-0.00938183,0.01832781,0.04926437,-0.05898494,-0.0199465
 3,-0.05060379,0.00194637,0.00334760,0.01145839,0.05977286,-0.02006761,
 -0.08000493,-0.08617049,-0.00796866,-0.00903447,-0.02769749,0.02324736
 ,0.08453953,-0.04979728,-0.08574808,-0.26361815,-0.00013095,-0.0007051
 1,-0.00128515,0.05304005,0.09222933,0.28833290,-0.30192108,-0.00408125
 ,-0.03267534,-0.01058035,-0.00071583,-0.00197762,-0.00520818,0.0003389
 3,-0.00094448,0.32912753,-0.00328201,-0.04778948,-0.00094976,0.0301658
 3,0.00272158,0.00484770,-0.01186648,-0.00103252,-0.00102150,0.00738251
 ,0.04898372,-0.03328033,-0.00160925,-0.05257136,0.00283694,0.00012041,
 -0.00040178,-0.02965708,0.00067401,-0.00247234,0.03349494,-0.00213555,
 0.05410386,-0.08876388,-0.03273705,0.02870933,0.00379305,0.00515833,-0
 .00634174,0.00209375,0.00548281,-0.00472291,-0.01234850,-0.01944002,0.
 02343812,0.53153276,-0.02119293,-0.10533406,0.02636486,-0.01692969,-0.
 01883107,0.02587740,0.00671671,0.00711142,-0.00689723,-0.00223362,-0.0
 0306862,0.00118013,-0.00880525,0.45313987,0.02556571,0.03680852,-0.117
 99789,-0.00002894,0.00153295,-0.00058022,0.01339566,0.01895742,-0.0202
 2483,-0.00078054,-0.00213376,0.00228222,0.04695557,0.01888770,0.454502
 51,-0.01535876,-0.00172750,0.00002456,0.00084553,-0.00002280,-0.000333
 96,0.00053349,0.00024174,0.00029842,0.00029360,-0.00171804,0.00233129,
 -0.28292064,-0.00755196,-0.04682567,0.30981913,-0.02189409,-0.00086607
 ,-0.00126496,0.00001375,0.00073741,-0.00120839,0.00071786,0.00086027,-
 0.00026054,-0.00169268,-0.00182989,0.00329585,-0.00260465,-0.04619607,
 -0.00737143,0.00841297,0.05124180,0.02550356,0.00245588,0.00146408,-0.
 00112823,-0.00037338,0.00102028,-0.00007496,-0.00064714,0.00083298,0.0
 0188152,0.00321265,-0.00292469,-0.04842647,-0.00861184,-0.05227997,0.0
 5011538,0.00182571,0.06333972,0.00820013,-0.01252216,-0.00732148,-0.00
 257697,-0.00277167,0.00376939,0.00032121,0.00109252,-0.00019227,-0.000
 99620,-0.00294914,0.00098350,-0.09208358,0.01691361,0.00748737,-0.0133
 2391,0.03382443,0.00064681,0.44406726,0.00051402,-0.02509186,0.0134353
 0,0.00008061,0.00075945,-0.00115016,-0.00007096,0.00109091,-0.00263050
 ,0.00215065,0.00134146,-0.00119512,0.02260916,-0.15926679,-0.03122322,
 -0.00177642,0.00435134,0.00330996,-0.17741254,0.54675983,-0.00886117,0
 .02841037,-0.00072314,0.00247805,0.00345088,-0.00421901,-0.00040165,0.
 00166745,-0.00090566,-0.00037476,-0.00119843,0.00097690,0.00630790,-0.
 03709366,-0.09181548,-0.00525804,0.00876585,-0.00221610,0.29260080,-0.
 06807169,0.71796527,-0.00060492,0.00210242,0.00018578,0.00008944,0.000
 25753,-0.00037309,-0.00000146,-0.00011173,-0.00015339,-0.00018031,-0.0
 0001171,0.00010851,0.01478446,0.00888731,0.00331099,0.00124416,-0.0031
 7958,-0.00032402,-0.06463131,-0.02152697,-0.02539778,0.04719682,-0.000
 21611,0.00237175,-0.00081370,0.00016464,0.00028162,0.00012650,-0.00005
 234,-0.00031234,0.00109082,-0.00017234,-0.00013867,0.00009583,-0.00291
 861,-0.00980585,-0.02761409,0.00110637,-0.00013680,0.00018923,-0.01953
 155,-0.12641886,-0.09045091,0.01168696,0.11610279,0.00070902,-0.001850
 44,-0.00022816,-0.00037088,-0.00059646,0.00061445,0.00000016,-0.000306
 21,0.00063377,0.00001540,0.00002577,-0.00006432,-0.00663935,-0.0020026
 8,0.00081074,0.00031357,0.00018050,0.00001990,-0.02296324,-0.09678151,
 -0.18394465,0.05852151,0.10068977,0.21675437,0.00095094,0.00691946,0.0
 1041565,0.00225390,-0.00090177,-0.00038736,-0.00094211,-0.00251824,0.0
 0273073,-0.00038426,0.00098160,0.00118269,-0.06994440,-0.00137659,-0.0
 2863450,-0.00290322,-0.01238412,-0.02627142,0.00415267,0.00044139,0.01
 700434,0.00073786,0.00406171,0.00063769,0.41862885,0.00471735,0.011944
 05,0.01532181,0.00165782,-0.00149615,0.00042269,-0.00230676,-0.0043174
 0,0.00384783,-0.00062895,0.00054900,0.00011999,-0.01133166,-0.07243179
 ,-0.01503393,0.00064801,-0.00207466,-0.00221704,-0.00141214,-0.0224807
 8,-0.02778333,0.00261923,-0.00173433,0.00012086,0.03085413,0.45754281,
 0.00043302,-0.00559892,-0.02753437,-0.00233291,-0.00017751,0.00102798,
 0.00188742,0.00216853,-0.00103332,-0.00004640,-0.00102522,0.00138180,-
 0.03141360,-0.02547484,-0.13850908,-0.00165282,-0.00398339,-0.01049310
 ,0.00395758,-0.01064980,-0.00570668,0.00005518,0.00261170,0.00104527,0
 .02164787,-0.00484623,0.42021243,0.00034692,-0.00052430,-0.00028906,-0
 .00006472,0.00013433,-0.00007142,0.00037355,0.00005347,-0.00011516,0.0
 0030665,0.00011818,-0.00032124,0.00198638,0.00308825,-0.00598199,0.000
 39909,0.00048069,0.00010963,0.00100391,-0.00064408,0.00169569,-0.00032
 434,0.00001329,-0.00013607,-0.08592119,-0.06398827,0.07809257,0.095327
 34,-0.00064569,-0.00108923,-0.00342054,0.00041065,-0.00036281,-0.00020
 498,0.00028390,0.00027810,-0.00076040,-0.00019209,0.00000901,0.0001238
 8,0.00800251,0.01045014,-0.00943470,0.00010285,0.00044740,0.00113404,0
 .00078425,0.00007123,0.00157297,-0.00043439,0.00046321,0.00024832,-0.0
 7408130,-0.10817744,0.09656338,0.06527929,0.13368058,-0.00215444,-0.00
 380300,-0.00535052,0.00035068,-0.00018074,0.00019770,0.00077089,0.0011
 5342,-0.00132094,-0.00012855,-0.00009952,0.00026679,0.01752563,0.01714
 912,-0.02135138,-0.00050246,0.00035047,0.00113678,-0.00062926,0.001723
 33,0.00052466,-0.00009913,0.00010185,0.00016322,0.06983849,0.06797780,
 -0.15743869,-0.08310241,-0.09950972,0.17759332,0.00107514,0.00004175,0
 .00126552,-0.00032647,0.00020032,-0.00028927,0.00014388,0.00014229,-0.
 00000728,0.00033583,0.00014886,-0.00049490,-0.00781833,-0.00334722,-0.
 00028304,0.00067842,-0.00048021,-0.00170068,-0.00102164,0.00184366,-0.
 00175169,0.00011826,-0.00035874,-0.00015893,-0.23706276,-0.00843863,-0
 .06015161,-0.01762907,0.00060961,-0.00073376,0.28010369,0.00085199,-0.
 00031921,0.00120920,-0.00043378,0.00016703,0.00015930,-0.00002034,0.00
 007711,0.00003845,0.00025861,0.00020276,-0.00008765,-0.01354610,-0.000
 97460,-0.00060175,0.00016363,-0.00090913,-0.00304085,-0.00225098,0.001
 80769,-0.00314164,0.00033460,-0.00035874,0.00040471,0.01814365,-0.0244
 2244,-0.01118381,-0.01682143,0.00470598,0.00182645,-0.01445026,0.04258
 270,-0.00146074,-0.00024499,0.00087238,0.00046694,-0.00005103,-0.00016
 381,0.00030544,-0.00006237,0.00020262,0.00056572,0.00027647,-0.0002380
 5,-0.02576499,0.00207672,-0.01486114,-0.00033465,-0.00216406,-0.004094
 07,0.00017282,0.00032922,0.00317642,-0.00030835,0.00060771,0.00017768,
 -0.05681602,-0.01378123,-0.03385337,0.01944773,-0.00122201,-0.00048565
 ,0.05900472,0.00372272,0.05390404,0.00152727,-0.00052318,0.00183846,-0
 .00179709,0.00068648,0.00027263,0.00000411,0.00059773,-0.00012966,0.00
 045161,-0.00039837,-0.00024786,-0.00262521,-0.00151311,0.00835740,0.00
 069815,0.00003086,-0.00042975,-0.00003276,0.00116814,-0.00328014,0.000
 16871,-0.00040314,-0.00031408,-0.02793134,0.05211050,-0.00797227,0.004
 20241,-0.00045529,-0.00152448,-0.01896973,0.02623608,0.00397566,0.0441
 4692,-0.00078946,-0.00123644,0.00329044,-0.00052041,0.00117342,-0.0001
 8240,-0.00009106,0.00091757,0.00009124,0.00054600,-0.00001942,-0.00043
 276,0.01509607,-0.03631889,-0.01743946,-0.00068009,0.00191463,0.002745
 26,-0.00357453,0.00204542,-0.00731648,0.00018367,-0.00309768,-0.000271
 60,0.02750641,-0.23523708,-0.03819651,0.01285268,-0.04086946,0.0132182
 7,0.02405560,-0.02176987,0.00986319,-0.07648494,0.33228145,-0.00010215
 ,0.00058545,-0.00077125,0.00118524,-0.00231613,-0.00009368,-0.00012468
 ,-0.00131336,0.00039054,0.00013639,-0.00020792,-0.00004412,0.01655895,
 -0.03354111,-0.00552834,0.00039733,0.00087083,0.00237248,-0.00300532,-
 0.00079578,-0.00599034,0.00029928,-0.00176991,0.00022925,-0.00935444,-
 0.02151550,-0.04859733,-0.00787131,0.01590339,0.00520713,0.00332731,0.
 00875368,-0.00369973,-0.00229789,0.03350669,0.05522587,-0.00560178,0.0
 0361849,0.00440617,0.00196264,0.00103912,-0.00205064,-0.00005252,-0.00
 053061,0.00012419,0.00110366,0.00086879,-0.00037459,0.00231413,0.02734
 449,-0.02253800,-0.00000506,-0.00124522,0.00009861,-0.28307882,0.17262
 332,-0.27476155,0.00140264,0.00661987,-0.02961481,-0.00163494,-0.00450
 063,-0.00250404,-0.00000694,0.00033571,0.00038881,0.00037279,0.0015343
 4,0.00074572,0.00015695,0.00190006,0.00085129,0.28306725,0.00348733,-0
 .00096665,-0.00257518,-0.00109178,-0.00077114,0.00130278,0.00004104,-0
 .00017326,0.00072570,-0.00095993,0.00007107,-0.00014977,0.03503447,-0.
 01847368,0.03466575,0.00280122,-0.00754023,0.00001753,0.16980991,-0.22
 496903,0.19118862,-0.00080733,0.02278389,0.00013897,0.00235369,0.00233
 621,-0.00020740,-0.00004210,0.00039328,0.00009225,0.00003296,-0.000789
 27,0.00064966,-0.00105175,0.00021635,0.00183967,-0.20960772,0.22788247
 ,-0.00074561,-0.00324273,0.00271016,0.00049555,-0.00014678,-0.00026559
 ,0.00000414,-0.00065309,0.00046757,0.00083372,0.00040908,-0.00029492,-
 0.01618643,0.02208541,0.00555286,0.00142706,0.00096357,0.00182173,-0.2
 7550670,0.19369999,-0.42712219,-0.03582550,0.01513519,-0.03621153,-0.0
 0199372,-0.00263373,-0.00050154,-0.00145695,-0.00099364,0.00085759,0.0
 0197361,0.00194119,-0.00093732,0.00175198,0.00112411,0.00129952,0.3252
 2885,-0.22768858,0.45262367\\-0.00000072,0.00000142,0.00000300,-0.0000
 0144,0.00000033,-0.00000345,-0.00000027,-0.00000383,-0.00000118,0.0000
 0058,-0.00000200,-0.00000072,0.00000102,0.00000008,-0.00000470,-0.0000
 0021,-0.00000237,0.00000192,0.00000358,-0.00000639,-0.00000360,0.00000
 052,-0.00000417,0.00000335,0.00001218,0.00001594,-0.00000549,-0.000004
 21,0.00000412,0.00000355,-0.00000003,-0.00000267,-0.00000052,-0.000007
 73,-0.00000521,0.00000189,-0.00000327,0.00000476,0.00000596\\\@


 NOTHING WILL BE ATTEMPTED IF ALL POSSIBLE OBJECTIONS
 MUST FIRST BE OVERCOME.

                               -- THE GOLDEN PRINCIPLE,
                    PAUL DICKSON'S "THE OFFICIAL RULES"
 Job cpu time:  0 days  0 hours 44 minutes 34.9 seconds.
 File lengths (MBytes):  RWF=     80 Int=      0 D2E=      0 Chk=      7 Scr=      1
 Normal termination of Gaussian 03 at Tue Jun 18 11:28:12 2013.
