 Entering Gaussian System, Link 0=g03
 Input=ts9-freq.gjf
 Output=ts9-freq.log
 Initial command:
 /opt/g03/l1.exe /scratch/shamel/Gau-12758.inp -scrdir=/scratch/shamel/
 Entering Link 1 = /opt/g03/l1.exe PID=     12760.
  
 Copyright (c) 1988,1990,1992,1993,1995,1998,2003,2004, Gaussian, Inc.
                  All Rights Reserved.
  
 This is the Gaussian(R) 03 program.  It is based on the
 the Gaussian(R) 98 system (copyright 1998, Gaussian, Inc.),
 the Gaussian(R) 94 system (copyright 1995, Gaussian, Inc.),
 the Gaussian 92(TM) system (copyright 1992, Gaussian, Inc.),
 the Gaussian 90(TM) system (copyright 1990, Gaussian, Inc.),
 the Gaussian 88(TM) system (copyright 1988, Gaussian, Inc.),
 the Gaussian 86(TM) system (copyright 1986, Carnegie Mellon
 University), and the Gaussian 82(TM) system (copyright 1983,
 Carnegie Mellon University). Gaussian is a federally registered
 trademark of Gaussian, Inc.
  
 This software contains proprietary and confidential information,
 including trade secrets, belonging to Gaussian, Inc.
  
 This software is provided under written license and may be
 used, copied, transmitted, or stored only in accord with that
 written license.
  
 The following legend is applicable only to US Government
 contracts under FAR:
  
                    RESTRICTED RIGHTS LEGEND
  
 Use, reproduction and disclosure by the US Government is
 subject to restrictions as set forth in subparagraphs (a)
 and (c) of the Commercial Computer Software - Restricted
 Rights clause in FAR 52.227-19.
  
 Gaussian, Inc.
 340 Quinnipiac St., Bldg. 40, Wallingford CT 06492
  
  
 ---------------------------------------------------------------
 Warning -- This program may not be used in any manner that
 competes with the business of Gaussian, Inc. or will provide
 assistance to any competitor of Gaussian, Inc.  The licensee
 of this program is prohibited from giving any competitor of
 Gaussian, Inc. access to this program.  By using this program,
 the user acknowledges that Gaussian, Inc. is engaged in the
 business of creating and licensing software in the field of
 computational chemistry and represents and warrants to the
 licensee that it is not a competitor of Gaussian, Inc. and that
 it will not use this program in any manner prohibited above.
 ---------------------------------------------------------------
  

 Cite this work as:
 Gaussian 03, Revision D.01,
 M. J. Frisch, G. W. Trucks, H. B. Schlegel, G. E. Scuseria, 
 M. A. Robb, J. R. Cheeseman, J. A. Montgomery, Jr., T. Vreven, 
 K. N. Kudin, J. C. Burant, J. M. Millam, S. S. Iyengar, J. Tomasi, 
 V. Barone, B. Mennucci, M. Cossi, G. Scalmani, N. Rega, 
 G. A. Petersson, H. Nakatsuji, M. Hada, M. Ehara, K. Toyota, 
 R. Fukuda, J. Hasegawa, M. Ishida, T. Nakajima, Y. Honda, O. Kitao, 
 H. Nakai, M. Klene, X. Li, J. E. Knox, H. P. Hratchian, J. B. Cross, 
 V. Bakken, C. Adamo, J. Jaramillo, R. Gomperts, R. E. Stratmann, 
 O. Yazyev, A. J. Austin, R. Cammi, C. Pomelli, J. W. Ochterski, 
 P. Y. Ayala, K. Morokuma, G. A. Voth, P. Salvador, J. J. Dannenberg, 
 V. G. Zakrzewski, S. Dapprich, A. D. Daniels, M. C. Strain, 
 O. Farkas, D. K. Malick, A. D. Rabuck, K. Raghavachari, 
 J. B. Foresman, J. V. Ortiz, Q. Cui, A. G. Baboul, S. Clifford, 
 J. Cioslowski, B. B. Stefanov, G. Liu, A. Liashenko, P. Piskorz, 
 I. Komaromi, R. L. Martin, D. J. Fox, T. Keith, M. A. Al-Laham, 
 C. Y. Peng, A. Nanayakkara, M. Challacombe, P. M. W. Gill, 
 B. Johnson, W. Chen, M. W. Wong, C. Gonzalez, and J. A. Pople, 
 Gaussian, Inc., Wallingford CT, 2004.
 
 ******************************************
 Gaussian 03:  AM64L-G03RevD.01 13-Oct-2005
                18-Jun-2013 
 ******************************************
 %chk=ts9-freq.chk
 %mem=1000mb
 %nproc=8
 Will use up to    8 processors via shared memory.
 -------------------------------------
 # freq nosymm b3lyp/cbsb7 iop(7/33=1)
 -------------------------------------
 1/10=4,30=1,38=1/1,3;
 2/15=1,17=6,18=5,40=1/2;
 3/5=4,6=6,7=700,11=2,16=1,25=1,30=1,74=-5/1,2,3;
 4//1;
 5/5=2,38=5/2;
 8/6=4,10=90,11=11/1;
 11/6=1,8=1,9=11,15=111,16=1,31=1/1,2,10;
 10/6=1,31=1/2;
 6/7=2,8=2,9=2,10=2,18=1,28=1/1;
 7/8=1,10=1,25=1,30=1,33=1/1,2,3,16;
 1/10=4,30=1/3;
 99//99;
 -------------------
 Title Card Required
 -------------------
 Symbolic Z-matrix:
 Charge =  0 Multiplicity = 2
 C                    -0.00412  -0.01189  -0.05088 
 H                     0.04442  -0.06271   1.02928 
 H                     1.71973   0.0377   -0.97729 
 C                     0.74763   0.90636  -0.77478 
 O                     1.44077  -1.71475  -0.21257 
 O                     2.31812  -1.12418  -0.91797 
 H                    -0.75459  -0.6166   -0.54169 
 C                     1.44361   2.06041  -0.0578 
 H                     2.31585   2.40936  -0.6177 
 H                     0.76663   2.91277   0.06149 
 H                     1.78284   1.76044   0.93596 
 C                     0.31458   1.21704  -2.21689 
 H                    -0.46188   1.98778  -2.20985 
 H                     1.17054   1.62576  -2.77179 
 O                    -0.25331   0.10392  -2.88848 
 H                     0.43584  -0.55881  -3.00658 
 

 GradGradGradGradGradGradGradGradGradGradGradGradGradGradGradGradGradGrad
 Berny optimization.
 Initialization pass.
 Trust Radius=3.00D-01 FncErr=1.00D-07 GrdErr=1.00D-07
 Number of steps in this run=   2 maximum allowed number of steps=   2.
 GradGradGradGradGradGradGradGradGradGradGradGradGradGradGradGradGradGrad

                          Input orientation:                          
 ---------------------------------------------------------------------
 Center     Atomic     Atomic              Coordinates (Angstroms)
 Number     Number      Type              X           Y           Z
 ---------------------------------------------------------------------
    1          6             0       -0.004118   -0.011887   -0.050883
    2          1             0        0.044418   -0.062711    1.029283
    3          1             0        1.719727    0.037698   -0.977290
    4          6             0        0.747626    0.906363   -0.774779
    5          8             0        1.440767   -1.714750   -0.212570
    6          8             0        2.318121   -1.124182   -0.917966
    7          1             0       -0.754592   -0.616598   -0.541694
    8          6             0        1.443605    2.060408   -0.057804
    9          1             0        2.315850    2.409358   -0.617701
   10          1             0        0.766628    2.912769    0.061485
   11          1             0        1.782836    1.760438    0.935963
   12          6             0        0.314582    1.217036   -2.216889
   13          1             0       -0.461875    1.987776   -2.209854
   14          1             0        1.170535    1.625764   -2.771785
   15          8             0       -0.253310    0.103920   -2.888478
   16          1             0        0.435844   -0.558811   -3.006584
 ---------------------------------------------------------------------
                    Distance matrix (angstroms):
                    1          2          3          4          5
     1  C    0.000000
     2  H    1.082450   0.000000
     3  H    1.957634   2.615928   0.000000
     4  C    1.390082   2.165236   1.319307   0.000000
     5  O    2.239102   2.494238   1.932276   2.768891   0.000000
     6  O    2.716952   3.176197   1.308266   2.571006   1.271261
     7  H    1.081565   1.847478   2.596171   2.151836   2.476663
     8  C    2.527915   2.765342   2.238985   1.526519   3.778330
     9  H    3.400877   3.739396   2.471728   2.177842   4.235347
    10  H    3.026597   3.211184   3.202106   2.173790   4.684389
    11  H    2.703369   2.520849   2.575335   2.174337   3.676013
    12  C    2.510658   3.499768   2.214018   1.537441   3.725716
    13  H    2.978145   3.866890   3.175123   2.166053   4.617130
    14  H    3.386003   4.308968   2.458410   2.164353   4.216828
    15  O    2.850869   3.932589   2.747708   2.472552   3.652115
    16  H    3.037904   4.085040   2.474311   2.687917   3.186311
                    6          7          8          9         10
     6  O    0.000000
     7  H    3.137003   0.000000
     8  C    3.412663   3.497511   0.000000
     9  H    3.546275   4.311589   1.093646   0.000000
    10  H    4.434346   3.890291   1.095010   1.764881   0.000000
    11  H    3.470535   3.777871   1.092077   1.766090   1.767840
    12  C    3.344050   2.704002   2.578297   2.825616   2.875908
    13  H    4.368253   3.106639   2.875317   3.229309   2.742957
    14  H    3.509388   3.702379   2.762096   2.562390   3.137984
    15  O    3.464594   2.505559   3.836676   4.131834   4.199070
    16  H    2.867915   2.737912   4.070773   4.248672   4.644818
                   11         12         13         14         15
    11  H    0.000000
    12  C    3.520161   0.000000
    13  H    3.871250   1.094064   0.000000
    14  H    3.760378   1.098919   1.763968   0.000000
    15  O    4.638566   1.418647   2.013192   2.087333   0.000000
    16  H    4.768331   1.947294   2.815277   2.316737   0.963377
                   16
    16  H    0.000000
 Symmetry turned off by external request.
 Stoichiometry    C4H9O3(2)
 Framework group  C1[X(C4H9O3)]
 Deg. of freedom    42
 Full point group                 C1
 Rotational constants (GHZ):      2.7910143      2.0608808      1.5300524
 Standard basis: CBSB7 (5D, 7F)
 Integral buffers will be    131072 words long.
 Raffenetti 2 integral format.
 Two-electron integral symmetry is turned off.
   180 basis functions,   296 primitive gaussians,   187 cartesian basis functions
    29 alpha electrons       28 beta electrons
       nuclear repulsion energy       322.9086256186 Hartrees.
 NAtoms=   16 NActive=   16 NUniq=   16 SFac= 7.50D-01 NAtFMM=   80 NAOKFM=F Big=F
 One-electron integrals computed using PRISM.
 NBasis=   180 RedAO= T  NBF=   180
 NBsUse=   180 1.00D-06 NBFU=   180
 Harris functional with IExCor=  402 diagonalized for initial guess.
 ExpMin= 1.03D-01 ExpMax= 8.59D+03 ExpMxC= 1.30D+03 IAcc=1 IRadAn=         1 AccDes= 1.00D-06
 HarFok:  IExCor= 402 AccDes= 1.00D-06 IRadAn=         1 IDoV=1
 ScaDFX=  1.000000  1.000000  1.000000  1.000000
 <S**2> of initial guess= 0.7500
 Requested convergence on RMS density matrix=1.00D-08 within 128 cycles.
 Requested convergence on MAX density matrix=1.00D-06.
 Requested convergence on             energy=1.00D-06.
 No special actions if energy rises.
 Integral accuracy reduced to 1.0D-05 until final iterations.
 Initial convergence to 1.0D-05 achieved.  Increase integral accuracy.
 SCF Done:  E(UB+HF-LYP) =  -383.436828989     A.U. after   22 cycles
             Convg  =    0.6159D-08             -V/T =  2.0033
             S**2   =   0.7600
 Annihilation of the first spin contaminant:
 S**2 before annihilation     0.7600,   after     0.7501
 Range of M.O.s used for correlation:     1   180
 NBasis=   180 NAE=    29 NBE=    28 NFC=     0 NFV=     0
 NROrb=    180 NOA=    29 NOB=    28 NVA=   151 NVB=   152
 Symmetrizing basis deriv contribution to polar:
 IMax=3 JMax=2 DiffMx= 0.00D+00
 G2DrvN: will do   17 centers at a time, making    1 passes doing MaxLOS=2.
 FoFDir/FoFCou used for L=0 through L=2.
 DoAtom=TTTTTTTTTTTTTTTT
          Differentiating once with respect to electric field.
                with respect to dipole field.
          Differentiating once with respect to nuclear coordinates.
 Symmetry not used in FoFDir.
 MinBra= 0 MaxBra= 2 Meth= 1.
 IRaf=       0 NMat=  51 IRICut=      51 DoRegI=T DoRafI=T ISym2E= 0 JSym2E=0.
          There are  51 degrees of freedom in the 1st order CPHF.
    48 vectors were produced by pass  0.
 AX will form  48 AO Fock derivatives at one time.
    48 vectors were produced by pass  1.
    48 vectors were produced by pass  2.
    48 vectors were produced by pass  3.
    48 vectors were produced by pass  4.
    48 vectors were produced by pass  5.
    22 vectors were produced by pass  6.
     3 vectors were produced by pass  7.
     2 vectors were produced by pass  8.
 Inv2:  IOpt= 1 Iter= 1 AM= 2.44D-15 Conv= 1.00D-12.
 Inverted reduced A of dimension  315 with in-core refinement.
 Isotropic polarizability for W=    0.000000       63.34 Bohr**3.
 End of Minotr Frequency-dependent properties file   721 does not exist.

 **********************************************************************

            Population analysis using the SCF density.

 **********************************************************************

 Alpha  occ. eigenvalues --  -19.21811 -19.21072 -19.12564 -10.23066 -10.20731
 Alpha  occ. eigenvalues --  -10.18962 -10.18084  -1.21114  -1.03381  -0.82857
 Alpha  occ. eigenvalues --   -0.80790  -0.70665  -0.69277  -0.57807  -0.53400
 Alpha  occ. eigenvalues --   -0.51736  -0.50387  -0.48376  -0.47842  -0.45394
 Alpha  occ. eigenvalues --   -0.43190  -0.41798  -0.39647  -0.38515  -0.34465
 Alpha  occ. eigenvalues --   -0.30138  -0.28980  -0.27795  -0.26703
 Alpha virt. eigenvalues --   -0.05398   0.03711   0.04555   0.07106   0.08682
 Alpha virt. eigenvalues --    0.09465   0.10369   0.12534   0.13669   0.15066
 Alpha virt. eigenvalues --    0.18224   0.18880   0.19680   0.23621   0.26341
 Alpha virt. eigenvalues --    0.28733   0.31402   0.32849   0.34369   0.37630
 Alpha virt. eigenvalues --    0.39333   0.41079   0.47218   0.49426   0.50421
 Alpha virt. eigenvalues --    0.50636   0.53698   0.54320   0.54841   0.57454
 Alpha virt. eigenvalues --    0.57654   0.59047   0.60664   0.61827   0.66032
 Alpha virt. eigenvalues --    0.68572   0.71754   0.73736   0.75153   0.78373
 Alpha virt. eigenvalues --    0.79547   0.82764   0.84137   0.87900   0.90066
 Alpha virt. eigenvalues --    0.91941   0.95653   1.00755   1.03957   1.07211
 Alpha virt. eigenvalues --    1.09986   1.11583   1.19727   1.26849   1.31193
 Alpha virt. eigenvalues --    1.32052   1.32988   1.34946   1.39766   1.42499
 Alpha virt. eigenvalues --    1.45107   1.46613   1.47190   1.47920   1.50827
 Alpha virt. eigenvalues --    1.53207   1.55627   1.56504   1.59887   1.63044
 Alpha virt. eigenvalues --    1.67286   1.67356   1.68560   1.70666   1.74126
 Alpha virt. eigenvalues --    1.75959   1.79524   1.82025   1.86102   1.90101
 Alpha virt. eigenvalues --    1.93169   1.99784   2.01521   2.02559   2.03941
 Alpha virt. eigenvalues --    2.08119   2.11111   2.16915   2.20801   2.23077
 Alpha virt. eigenvalues --    2.31813   2.35107   2.36564   2.38579   2.40967
 Alpha virt. eigenvalues --    2.41784   2.44799   2.45648   2.48750   2.50343
 Alpha virt. eigenvalues --    2.53140   2.56001   2.58289   2.59476   2.63047
 Alpha virt. eigenvalues --    2.65754   2.71984   2.75240   2.78929   2.79345
 Alpha virt. eigenvalues --    2.82542   2.87420   2.88515   2.93776   2.95340
 Alpha virt. eigenvalues --    2.98340   3.08308   3.11651   3.14819   3.20152
 Alpha virt. eigenvalues --    3.28233   3.35727   3.38589   3.43068   3.55819
 Alpha virt. eigenvalues --    3.65942   3.71161   3.72808   3.77767   3.80130
 Alpha virt. eigenvalues --    3.87917   3.88280   3.92515   4.23966   4.32606
 Alpha virt. eigenvalues --    4.61700   4.67620   4.80882   4.85063   4.90735
 Alpha virt. eigenvalues --    5.09167   5.24957   5.62820   6.03491  23.71514
 Alpha virt. eigenvalues --   23.78177  23.89992  24.05948  49.70866  49.74457
 Alpha virt. eigenvalues --   49.88179
  Beta  occ. eigenvalues --  -19.20404 -19.19269 -19.12564 -10.23068 -10.20823
  Beta  occ. eigenvalues --  -10.18949 -10.18085  -1.17977  -1.03380  -0.82815
  Beta  occ. eigenvalues --   -0.76464  -0.70714  -0.69285  -0.57680  -0.52473
  Beta  occ. eigenvalues --   -0.51643  -0.48653  -0.46520  -0.44995  -0.43260
  Beta  occ. eigenvalues --   -0.41752  -0.40817  -0.39631  -0.38478  -0.34412
  Beta  occ. eigenvalues --   -0.29317  -0.28920  -0.25638
  Beta virt. eigenvalues --   -0.10321  -0.05138   0.03731   0.04638   0.07111
  Beta virt. eigenvalues --    0.08741   0.09488   0.10403   0.12552   0.13720
  Beta virt. eigenvalues --    0.15691   0.18244   0.19370   0.20681   0.23674
  Beta virt. eigenvalues --    0.26363   0.28823   0.31462   0.32841   0.34329
  Beta virt. eigenvalues --    0.37695   0.39334   0.41131   0.47298   0.49440
  Beta virt. eigenvalues --    0.50467   0.50660   0.53796   0.54332   0.55023
  Beta virt. eigenvalues --    0.57461   0.57669   0.59095   0.60723   0.61912
  Beta virt. eigenvalues --    0.66040   0.68737   0.72956   0.75628   0.76643
  Beta virt. eigenvalues --    0.78996   0.79856   0.83196   0.85062   0.88539
  Beta virt. eigenvalues --    0.90871   0.92125   0.96327   1.01156   1.04495
  Beta virt. eigenvalues --    1.07347   1.10109   1.11722   1.19802   1.27094
  Beta virt. eigenvalues --    1.31846   1.32128   1.33022   1.34971   1.40391
  Beta virt. eigenvalues --    1.42569   1.45126   1.46652   1.47219   1.48206
  Beta virt. eigenvalues --    1.50884   1.53325   1.55711   1.56562   1.59956
  Beta virt. eigenvalues --    1.63292   1.67362   1.67426   1.68567   1.70707
  Beta virt. eigenvalues --    1.74110   1.75967   1.79514   1.82084   1.86177
  Beta virt. eigenvalues --    1.90059   1.93186   1.99719   2.01463   2.02574
  Beta virt. eigenvalues --    2.03991   2.08127   2.11334   2.16996   2.20857
  Beta virt. eigenvalues --    2.23198   2.35090   2.35746   2.36864   2.38634
  Beta virt. eigenvalues --    2.41218   2.42018   2.44915   2.45753   2.48908
  Beta virt. eigenvalues --    2.50633   2.53193   2.56100   2.58523   2.60485
  Beta virt. eigenvalues --    2.63739   2.65928   2.72326   2.77543   2.79880
  Beta virt. eigenvalues --    2.81000   2.83399   2.88463   2.88664   2.95619
  Beta virt. eigenvalues --    2.97921   2.99864   3.08468   3.11747   3.15833
  Beta virt. eigenvalues --    3.20727   3.28418   3.38921   3.40594   3.44165
  Beta virt. eigenvalues --    3.56635   3.65977   3.71790   3.73189   3.77799
  Beta virt. eigenvalues --    3.80264   3.87960   3.89156   3.92533   4.23972
  Beta virt. eigenvalues --    4.32559   4.67709   4.69182   4.82539   4.90211
  Beta virt. eigenvalues --    4.92203   5.10650   5.24965   5.62821   6.05172
  Beta virt. eigenvalues --   23.71479  23.78175  23.89988  24.05892  49.72505
  Beta virt. eigenvalues --   49.76002  49.88186
          Condensed to atoms (all electrons):
              1          2          3          4          5          6
     1  C    4.977585   0.409393  -0.032603   0.434018   0.070002  -0.059810
     2  H    0.409393   0.524124   0.001613  -0.038802  -0.002374   0.000409
     3  H   -0.032603   0.001613   0.526719   0.216356  -0.071936   0.138597
     4  C    0.434018  -0.038802   0.216356   5.546712  -0.011605  -0.080360
     5  O    0.070002  -0.002374  -0.071936  -0.011605   8.103421   0.060486
     6  O   -0.059810   0.000409   0.138597  -0.080360   0.060486   8.076001
     7  H    0.405227  -0.028464   0.002379  -0.045789  -0.003672   0.000483
     8  C   -0.059730  -0.007188  -0.012948   0.300436   0.000775   0.001848
     9  H    0.009067   0.000217  -0.005452  -0.040426  -0.000049   0.001557
    10  H   -0.007891   0.000257   0.004374  -0.041030  -0.000197  -0.000090
    11  H   -0.006630   0.002793  -0.005224  -0.020734   0.000909   0.000662
    12  C   -0.069388   0.005408  -0.021437   0.326053   0.000626   0.002934
    13  H   -0.013656  -0.000117   0.005720  -0.042426  -0.000228  -0.000062
    14  H    0.013721  -0.000235  -0.008851  -0.060056  -0.000046   0.001748
    15  O   -0.005641  -0.000020   0.003630  -0.047842  -0.000106  -0.000549
    16  H   -0.002375  -0.000053   0.005220   0.003877   0.000832   0.004342
              7          8          9         10         11         12
     1  C    0.405227  -0.059730   0.009067  -0.007891  -0.006630  -0.069388
     2  H   -0.028464  -0.007188   0.000217   0.000257   0.002793   0.005408
     3  H    0.002379  -0.012948  -0.005452   0.004374  -0.005224  -0.021437
     4  C   -0.045789   0.300436  -0.040426  -0.041030  -0.020734   0.326053
     5  O   -0.003672   0.000775  -0.000049  -0.000197   0.000909   0.000626
     6  O    0.000483   0.001848   0.001557  -0.000090   0.000662   0.002934
     7  H    0.508025   0.007094  -0.000172  -0.000184  -0.000273  -0.013570
     8  C    0.007094   4.851608   0.404646   0.408807   0.394934  -0.043300
     9  H   -0.000172   0.404646   0.578630  -0.033494  -0.026444  -0.004160
    10  H   -0.000184   0.408807  -0.033494   0.575827  -0.026590  -0.003362
    11  H   -0.000273   0.394934  -0.026444  -0.026590   0.566432   0.005762
    12  C   -0.013570  -0.043300  -0.004160  -0.003362   0.005762   4.713400
    13  H   -0.000571   0.002348  -0.001543   0.005018  -0.000423   0.398827
    14  H    0.001935  -0.002864   0.007519  -0.001982  -0.000286   0.403373
    15  O    0.026906   0.004571  -0.000054  -0.000065  -0.000201   0.289718
    16  H   -0.002170  -0.000061  -0.000132   0.000031   0.000016  -0.049140
             13         14         15         16
     1  C   -0.013656   0.013721  -0.005641  -0.002375
     2  H   -0.000117  -0.000235  -0.000020  -0.000053
     3  H    0.005720  -0.008851   0.003630   0.005220
     4  C   -0.042426  -0.060056  -0.047842   0.003877
     5  O   -0.000228  -0.000046  -0.000106   0.000832
     6  O   -0.000062   0.001748  -0.000549   0.004342
     7  H   -0.000571   0.001935   0.026906  -0.002170
     8  C    0.002348  -0.002864   0.004571  -0.000061
     9  H   -0.001543   0.007519  -0.000054  -0.000132
    10  H    0.005018  -0.001982  -0.000065   0.000031
    11  H   -0.000423  -0.000286  -0.000201   0.000016
    12  C    0.398827   0.403373   0.289718  -0.049140
    13  H    0.590931  -0.044914  -0.028914   0.009635
    14  H   -0.044914   0.629327  -0.028643  -0.011512
    15  O   -0.028914  -0.028643   7.862499   0.313711
    16  H    0.009635  -0.011512   0.313711   0.489354
 Mulliken atomic charges:
              1
     1  C   -0.061290
     2  H    0.133040
     3  H    0.253842
     4  C   -0.398383
     5  O   -0.146838
     6  O   -0.148194
     7  H    0.142814
     8  C   -0.250977
     9  H    0.110291
    10  H    0.120572
    11  H    0.115299
    12  C    0.058257
    13  H    0.120377
    14  H    0.101764
    15  O   -0.389000
    16  H    0.238425
 Sum of Mulliken charges=   0.00000
 Atomic charges with hydrogens summed into heavy atoms:
              1
     1  C    0.214564
     2  H    0.000000
     3  H    0.000000
     4  C   -0.398383
     5  O   -0.146838
     6  O    0.105648
     7  H    0.000000
     8  C    0.095186
     9  H    0.000000
    10  H    0.000000
    11  H    0.000000
    12  C    0.280398
    13  H    0.000000
    14  H    0.000000
    15  O   -0.150575
    16  H    0.000000
 Sum of Mulliken charges=   0.00000
          Atomic-Atomic Spin Densities.
              1          2          3          4          5          6
     1  C   -0.076784   0.000078   0.007174   0.003727  -0.010645   0.003857
     2  H    0.000078   0.003551  -0.000297   0.000338   0.000509  -0.000268
     3  H    0.007174  -0.000297  -0.025900   0.003418   0.002422  -0.006709
     4  C    0.003727   0.000338   0.003418   0.002578   0.002537  -0.003522
     5  O   -0.010645   0.000509   0.002422   0.002537   0.794462  -0.175150
     6  O    0.003857  -0.000268  -0.006709  -0.003522  -0.175150   0.641696
     7  H    0.000287  -0.000306  -0.000272   0.000388   0.000580  -0.000342
     8  C   -0.000063   0.000057   0.001549   0.000207  -0.000121   0.000549
     9  H    0.000044  -0.000009  -0.000332   0.000013  -0.000028   0.000156
    10  H   -0.000239  -0.000069  -0.000138  -0.000209   0.000007  -0.000002
    11  H    0.000109   0.000043   0.000295  -0.000391  -0.000239   0.000050
    12  C    0.000290   0.000008   0.000536   0.001952  -0.000136   0.000990
    13  H   -0.000280   0.000003  -0.000146  -0.000254   0.000002   0.000006
    14  H    0.000052  -0.000001  -0.000447   0.000083  -0.000027   0.000154
    15  O   -0.000040  -0.000004   0.000089  -0.000052   0.000141  -0.000176
    16  H    0.000187   0.000024   0.000232  -0.000776  -0.001289   0.000373
              7          8          9         10         11         12
     1  C    0.000287  -0.000063   0.000044  -0.000239   0.000109   0.000290
     2  H   -0.000306   0.000057  -0.000009  -0.000069   0.000043   0.000008
     3  H   -0.000272   0.001549  -0.000332  -0.000138   0.000295   0.000536
     4  C    0.000388   0.000207   0.000013  -0.000209  -0.000391   0.001952
     5  O    0.000580  -0.000121  -0.000028   0.000007  -0.000239  -0.000136
     6  O   -0.000342   0.000549   0.000156  -0.000002   0.000050   0.000990
     7  H    0.003302   0.000010  -0.000002   0.000000   0.000023   0.000103
     8  C    0.000010  -0.004033  -0.000025   0.000672   0.000371   0.000148
     9  H   -0.000002  -0.000025   0.000166  -0.000116   0.000180   0.000247
    10  H    0.000000   0.000672  -0.000116   0.000034   0.000121   0.000119
    11  H    0.000023   0.000371   0.000180   0.000121  -0.000411  -0.000141
    12  C    0.000103   0.000148   0.000247   0.000119  -0.000141  -0.006382
    13  H   -0.000087   0.000170  -0.000082  -0.000111   0.000010   0.000803
    14  H   -0.000013   0.000191   0.000003  -0.000083  -0.000007   0.000032
    15  O    0.000007  -0.000014   0.000004   0.000004   0.000001   0.000101
    16  H   -0.000069  -0.000065  -0.000020   0.000000   0.000004   0.001043
             13         14         15         16
     1  C   -0.000280   0.000052  -0.000040   0.000187
     2  H    0.000003  -0.000001  -0.000004   0.000024
     3  H   -0.000146  -0.000447   0.000089   0.000232
     4  C   -0.000254   0.000083  -0.000052  -0.000776
     5  O    0.000002  -0.000027   0.000141  -0.001289
     6  O    0.000006   0.000154  -0.000176   0.000373
     7  H   -0.000087  -0.000013   0.000007  -0.000069
     8  C    0.000170   0.000191  -0.000014  -0.000065
     9  H   -0.000082   0.000003   0.000004  -0.000020
    10  H   -0.000111  -0.000083   0.000004   0.000000
    11  H    0.000010  -0.000007   0.000001   0.000004
    12  C    0.000803   0.000032   0.000101   0.001043
    13  H   -0.000076  -0.000142   0.000029   0.000056
    14  H   -0.000142   0.000233  -0.000005   0.000143
    15  O    0.000029  -0.000005   0.000271  -0.000245
    16  H    0.000056   0.000143  -0.000245  -0.000516
 Mulliken atomic spin densities:
              1
     1  C   -0.072242
     2  H    0.003656
     3  H   -0.018525
     4  C    0.010038
     5  O    0.613025
     6  O    0.461661
     7  H    0.003612
     8  C   -0.000398
     9  H    0.000198
    10  H   -0.000009
    11  H    0.000017
    12  C   -0.000288
    13  H   -0.000100
    14  H    0.000164
    15  O    0.000111
    16  H   -0.000919
 Sum of Mulliken spin densities=   1.00000
 APT atomic charges:
              1
     1  C    0.154317
     2  H    0.018772
     3  H    0.203012
     4  C   -0.091112
     5  O   -0.128300
     6  O   -0.322411
     7  H    0.043332
     8  C    0.092460
     9  H   -0.012942
    10  H   -0.028765
    11  H   -0.010535
    12  C    0.526924
    13  H   -0.042958
    14  H   -0.069583
    15  O   -0.580586
    16  H    0.248376
 Sum of APT charges=   0.00000
 APT Atomic charges with hydrogens summed into heavy atoms:
              1
     1  C    0.216421
     2  H    0.000000
     3  H    0.000000
     4  C   -0.091112
     5  O   -0.128300
     6  O   -0.119399
     7  H    0.000000
     8  C    0.040217
     9  H    0.000000
    10  H    0.000000
    11  H    0.000000
    12  C    0.414382
    13  H    0.000000
    14  H    0.000000
    15  O   -0.332210
    16  H    0.000000
 Sum of APT charges=   0.00000
 Electronic spatial extent (au):  <R**2>=  1245.2622
 Charge=     0.0000 electrons
 Dipole moment (field-independent basis, Debye):
    X=     0.0076    Y=     2.0901    Z=     0.5539  Tot=     2.1623
 Quadrupole moment (field-independent basis, Debye-Ang):
   XX=   -46.2987   YY=   -43.6725   ZZ=   -43.9352
   XY=     4.1109   XZ=    -3.4564   YZ=    -0.1957
 Traceless Quadrupole moment (field-independent basis, Debye-Ang):
   XX=    -1.6632   YY=     0.9629   ZZ=     0.7003
   XY=     4.1109   XZ=    -3.4564   YZ=    -0.1957
 Octapole moment (field-independent basis, Debye-Ang**2):
  XXX=  -119.1244  YYY=   -34.1252  ZZZ=   137.8414  XYY=   -42.3765
  XXY=    -5.4698  XXZ=    45.2333  XZZ=   -22.3243  YZZ=   -18.1275
  YYZ=    37.7837  XYZ=    -1.5501
 Hexadecapole moment (field-independent basis, Debye-Ang**3):
 XXXX=  -455.6238 YYYY=  -495.2131 ZZZZ=  -645.4271 XXXY=    10.3360
 XXXZ=    64.5196 YYYX=    -2.3515 YYYZ=    47.5502 ZZZX=    13.1280
 ZZZY=    71.0179 XXYY=  -161.3806 XXZZ=  -172.8547 YYZZ=  -170.1225
 XXYZ=     8.5180 YYXZ=    20.3897 ZZXY=    -3.6933
 N-N= 3.229086256186D+02 E-N=-1.545268158911D+03  KE= 3.821824394125D+02
  Exact polarizability:  61.297  -3.741  71.379  -3.066  -2.387  57.349
 Approx polarizability: 108.619 -11.260 108.536 -16.697  -6.120  81.421
                          Isotropic Fermi Contact Couplings
        Atom                 a.u.       MegaHertz       Gauss      10(-4) cm-1
     1  C(13)             -0.00456      -5.12388      -1.82833      -1.70914
     2  H(1)               0.00119       5.30908       1.89441       1.77092
     3  H(1)              -0.00788     -35.22641     -12.56966     -11.75027
     4  C(13)              0.00151       1.69964       0.60647       0.56694
     5  O(17)              0.04544     -27.54509      -9.82877      -9.18805
     6  O(17)              0.03980     -24.12731      -8.60923      -8.04801
     7  H(1)               0.00128       5.71410       2.03893       1.90602
     8  C(13)             -0.00068      -0.76373      -0.27252      -0.25475
     9  H(1)               0.00008       0.33880       0.12089       0.11301
    10  H(1)               0.00011       0.51387       0.18336       0.17141
    11  H(1)               0.00001       0.05186       0.01851       0.01730
    12  C(13)             -0.00080      -0.90469      -0.32282      -0.30177
    13  H(1)               0.00008       0.35918       0.12817       0.11981
    14  H(1)               0.00007       0.32128       0.11464       0.10717
    15  O(17)             -0.00001       0.00677       0.00241       0.00226
    16  H(1)              -0.00001      -0.03276      -0.01169      -0.01093
 --------------------------------------------------------
       Center         ----  Spin Dipole Couplings  ----
                      3XX-RR        3YY-RR        3ZZ-RR
 --------------------------------------------------------
     1   Atom       -0.019006     -0.008523      0.027529
     2   Atom        0.003174      0.003105     -0.006279
     3   Atom       -0.018601      0.045969     -0.027367
     4   Atom        0.001703      0.007067     -0.008770
     5   Atom       -0.458830     -0.913702      1.372532
     6   Atom       -0.377521     -0.692043      1.069564
     7   Atom        0.008958     -0.003936     -0.005022
     8   Atom       -0.002793      0.005458     -0.002665
     9   Atom       -0.002518      0.004826     -0.002308
    10   Atom       -0.001065      0.002270     -0.001204
    11   Atom       -0.003230      0.004640     -0.001411
    12   Atom       -0.000470      0.003006     -0.002536
    13   Atom       -0.000071      0.001216     -0.001146
    14   Atom       -0.002047      0.002496     -0.000450
    15   Atom        0.001526     -0.001631      0.000105
    16   Atom       -0.000531     -0.003864      0.004396
 --------------------------------------------------------
                        XY            XZ            YZ
 --------------------------------------------------------
     1   Atom        0.041794      0.010586     -0.007329
     2   Atom       -0.005559     -0.007179      0.006301
     3   Atom       -0.028270      0.004603     -0.010102
     4   Atom       -0.012633     -0.001027      0.001178
     5   Atom        0.436024      1.595950      1.021501
     6   Atom        0.346650      1.266139      0.799176
     7   Atom       -0.009222     -0.001635     -0.003500
     8   Atom       -0.002070     -0.000523      0.000856
     9   Atom        0.000293      0.000015     -0.000012
    10   Atom       -0.001313     -0.000161      0.000530
    11   Atom       -0.000712     -0.000532      0.003261
    12   Atom       -0.003466      0.001635     -0.002918
    13   Atom       -0.001848      0.000830     -0.000961
    14   Atom       -0.001404      0.001049     -0.003178
    15   Atom       -0.002528      0.003318     -0.002262
    16   Atom       -0.002349      0.006583     -0.004356
 --------------------------------------------------------


 ---------------------------------------------------------------------------------
              Anisotropic Spin Dipole Couplings in Principal Axis System
 ---------------------------------------------------------------------------------

       Atom             a.u.   MegaHertz   Gauss  10(-4) cm-1        Axes

              Baa    -0.0578    -7.757    -2.768    -2.587  0.7432 -0.6524 -0.1482
     1 C(13)  Bbb     0.0273     3.665     1.308     1.223  0.4767  0.6719 -0.5668
              Bcc     0.0305     4.091     1.460     1.365  0.4694  0.3506  0.8104
 
              Baa    -0.0109    -5.840    -2.084    -1.948  0.3529 -0.2630  0.8979
     2 H(1)   Bbb    -0.0024    -1.276    -0.455    -0.426  0.6737  0.7374 -0.0488
              Bcc     0.0133     7.116     2.539     2.374  0.6493 -0.6221 -0.4375
 
              Baa    -0.0298   -15.896    -5.672    -5.302  0.7740  0.2091 -0.5977
     3 H(1)   Bbb    -0.0282   -15.067    -5.376    -5.026  0.5277  0.3088  0.7913
              Bcc     0.0580    30.964    11.049    10.328 -0.3500  0.9279 -0.1286
 
              Baa    -0.0089    -1.191    -0.425    -0.397  0.1638  0.0570  0.9848
     4 C(13)  Bbb    -0.0085    -1.143    -0.408    -0.381  0.7604  0.6286 -0.1629
              Bcc     0.0174     2.334     0.833     0.779 -0.6284  0.7756  0.0596
 
              Baa    -1.4632   105.879    37.780    35.317  0.6611  0.5057 -0.5542
     5 O(17)  Bbb    -1.1761    85.103    30.367    28.387 -0.5848  0.8101  0.0415
              Bcc     2.6394  -190.982   -68.147   -63.705  0.4700  0.2967  0.8313
 
              Baa    -1.1599    83.931    29.949    27.996  0.7148  0.4224 -0.5574
     6 O(17)  Bbb    -0.9152    66.225    23.631    22.090 -0.5172  0.8558 -0.0147
              Bcc     2.0752  -150.157   -53.580   -50.087  0.4708  0.2987  0.8301
 
              Baa    -0.0112    -5.958    -2.126    -1.987  0.3881  0.7526  0.5320
     7 H(1)   Bbb    -0.0026    -1.387    -0.495    -0.463 -0.2535 -0.4678  0.8467
              Bcc     0.0138     7.344     2.621     2.450  0.8861 -0.4635  0.0092
 
              Baa    -0.0034    -0.460    -0.164    -0.153  0.8905  0.1666  0.4234
     8 C(13)  Bbb    -0.0026    -0.352    -0.126    -0.117 -0.3911 -0.1955  0.8994
              Bcc     0.0061     0.812     0.290     0.271 -0.2326  0.9665  0.1089
 
              Baa    -0.0025    -1.350    -0.482    -0.450  0.9968 -0.0398 -0.0687
     9 H(1)   Bbb    -0.0023    -1.231    -0.439    -0.411  0.0687 -0.0011  0.9976
              Bcc     0.0048     2.581     0.921     0.861  0.0398  0.9992 -0.0016
 
              Baa    -0.0015    -0.812    -0.290    -0.271  0.9376  0.3368 -0.0860
    10 H(1)   Bbb    -0.0013    -0.683    -0.244    -0.228  0.1267 -0.1006  0.9868
              Bcc     0.0028     1.495     0.533     0.499 -0.3237  0.9362  0.1370
 
              Baa    -0.0034    -1.805    -0.644    -0.602  0.9348 -0.0594  0.3502
    11 H(1)   Bbb    -0.0028    -1.472    -0.525    -0.491 -0.3431 -0.4062  0.8469
              Bcc     0.0061     3.278     1.170     1.093 -0.0920  0.9118  0.4001
 
              Baa    -0.0038    -0.510    -0.182    -0.170 -0.0883  0.3541  0.9310
    12 C(13)  Bbb    -0.0026    -0.348    -0.124    -0.116  0.8688  0.4846 -0.1019
              Bcc     0.0064     0.858     0.306     0.286 -0.4872  0.7999 -0.3505
 
              Baa    -0.0016    -0.854    -0.305    -0.285 -0.5329 -0.0618  0.8439
    13 H(1)   Bbb    -0.0013    -0.706    -0.252    -0.235  0.6344  0.6307  0.4469
              Bcc     0.0029     1.559     0.556     0.520 -0.5599  0.7735 -0.2969
 
              Baa    -0.0026    -1.390    -0.496    -0.464  0.6911 -0.2355 -0.6833
    14 H(1)   Bbb    -0.0024    -1.258    -0.449    -0.419  0.6810  0.5288  0.5066
              Bcc     0.0050     2.648     0.945     0.883 -0.2420  0.8155 -0.5258
 
              Baa    -0.0032     0.233     0.083     0.078  0.1666  0.8846  0.4356
    15 O(17)  Bbb    -0.0025     0.184     0.066     0.061  0.6930  0.2093 -0.6899
              Bcc     0.0058    -0.417    -0.149    -0.139  0.7015 -0.4168  0.5781
 
              Baa    -0.0059    -3.138    -1.120    -1.047 -0.3071  0.7896  0.5313
    16 H(1)   Bbb    -0.0047    -2.534    -0.904    -0.845  0.7903  0.5226 -0.3199
              Bcc     0.0106     5.672     2.024     1.892  0.5303 -0.3216  0.7844
 

 ---------------------------------------------------------------------------------

 Use density number 0.
 Entering OneElI...
 Calculate overlap and kinetic energy integrals
    NBasis = 187  MinDer = 2  MaxDer = 2
 Requested accuracy = 0.1000D-12
 PrsmSu:  NPrtUS=   1 ThrOK=F
 PRISM was handed   130759496 working-precision words and  2552 shell-pairs
 Entering OneElI...
 Calculate potential energy integrals
    NBasis = 187  MinDer = 2  MaxDer = 2
 Requested accuracy = 0.1000D-12
 PrsmSu:  NPrtUS=   8 ThrOK=T
 PRISM was handed    16301398 working-precision words and  2384 shell-pairs
 PRISM was handed    16301398 working-precision words and  2384 shell-pairs
 PRISM was handed    16301398 working-precision words and  2384 shell-pairs
 PRISM was handed    16301398 working-precision words and  2384 shell-pairs
 PRISM was handed    16301398 working-precision words and  2384 shell-pairs
 PRISM was handed    16301398 working-precision words and  2384 shell-pairs
 PRISM was handed    16301398 working-precision words and  2384 shell-pairs
 PRISM was handed    16301398 working-precision words and  2384 shell-pairs
 Polarizability after L701:
                1             2             3
      1  0.612975D+02
      2 -0.374095D+01  0.713792D+02
      3 -0.306603D+01 -0.238742D+01  0.573488D+02
 Dipole Derivatives after L701:
               1            2            3            4            5
      1-0.428503D-01-0.437636D-01 0.634755D-01 0.708923D-01-0.353344D-02
      2 0.167962D+00 0.376812D+00-0.228215D+00 0.308812D-01 0.495967D-01
      3-0.320318D-01-0.125216D+00 0.128989D+00-0.211749D-01-0.129267D-01
               6            7            8            9           10
      1-0.319941D-03 0.392593D+00-0.176068D+00-0.684530D-01-0.174298D+00
      2 0.755680D-02-0.243960D+00 0.100718D+00 0.131511D+00-0.322136D+00
      3-0.641722D-01-0.341745D-01 0.953305D-01 0.115725D+00 0.195973D+00
              11           12           13           14           15
      1 0.105973D+00 0.545733D-01 0.340257D+00 0.300200D+00-0.374889D+00
      2 0.803484D-01 0.178136D+00-0.223463D+00-0.680203D+00 0.328617D+00
      3 0.107191D-01-0.179385D+00-0.178283D+00 0.425824D-01-0.449532D-01
              16           17           18           19           20
      1-0.785151D+00-0.653636D-01 0.399544D+00 0.289586D-01-0.279721D-01
      2 0.503037D+00 0.574809D-01-0.352253D+00-0.126851D-01 0.189572D-01
      3 0.166168D+00-0.352607D-01-0.239563D+00-0.340666D-01-0.268799D-02
              21           22           23           24           25
      1-0.302390D-01 0.161581D+00-0.455475D-01-0.767934D-01-0.573154D-01
      2-0.514996D-01 0.882060D-01 0.957128D-01 0.123905D-01-0.904405D-01
      3 0.820814D-01-0.552000D-01 0.240364D-01 0.200857D-01 0.702718D-01
              26           27           28           29           30
      1-0.327625D-01 0.111200D+00-0.377525D-01 0.470342D-01-0.132761D-01
      2 0.143493D-01 0.443887D-01 0.968797D-01-0.121406D+00-0.428238D-01
      3-0.331653D-02 0.413911D-02 0.151005D-01-0.283077D-01 0.728636D-01
              31           32           33           34           35
      1 0.432923D-01 0.128258D-01-0.708070D-01 0.430368D+00 0.106131D+00
      2-0.760375D-02 0.345459D-01 0.137438D-01 0.134527D+00 0.479909D+00
      3-0.481767D-01 0.621480D-01-0.109443D+00 0.152631D-01 0.176974D+00
              36           37           38           39           40
      1 0.136477D+00-0.449530D-01 0.697377D-01 0.682270D-02-0.115666D+00
      2 0.212019D-01 0.126227D+00-0.697936D-01 0.156395D-01-0.131749D+00
      3 0.670494D+00-0.371608D-01 0.265059D-02-0.141284D-01 0.911365D-01
              41           42           43           44           45
      1-0.616181D-01 0.435781D-01-0.337092D+00-0.227331D+00-0.161588D+00
      2-0.400349D-01 0.462472D-01-0.176462D+00-0.619163D+00-0.146245D+00
      3 0.235765D-01-0.530492D-01-0.116250D+00-0.233050D+00-0.785504D+00
              46           47           48
      1 0.127136D+00 0.420574D-01-0.193055D-01
      2 0.607812D-01 0.222171D+00 0.216043D-01
      3 0.260476D-02 0.274877D-02 0.395821D+00
 Hessian after L701:
                1             2             3             4             5
      1  0.157463D+02
      2 -0.459985D+01  0.137404D+02
      3  0.886607D+00  0.249959D+01  0.126542D+02
      4 -0.461991D+01 -0.270288D-01 -0.410737D-01  0.450955D+01
      5 -0.471216D-01 -0.462776D+01 -0.236611D+00  0.100221D+00  0.454958D+01
      6  0.175237D+00 -0.248448D+00 -0.147814D+01  0.182329D+00  0.256824D+00
      7  0.178498D+00  0.138876D+00 -0.138402D+00  0.624064D-02  0.313156D-02
      8  0.932174D-01  0.789876D-01 -0.784756D-01  0.254237D-02 -0.146821D-01
      9 -0.131181D+00 -0.981315D-01  0.106995D+00 -0.206586D-01 -0.174148D-02
     10 -0.772689D+01  0.407508D+01 -0.196273D+01  0.119588D+00 -0.183055D-02
     11  0.432249D+01 -0.555173D+01 -0.332673D+01 -0.202044D-01  0.699319D-01
     12 -0.196639D+01 -0.306826D+01 -0.642673D+01  0.541034D-01  0.962479D-01
     13 -0.445806D+00 -0.997688D+00 -0.650717D-01 -0.169681D-01 -0.349679D-01
     14 -0.928766D+00 -0.439211D-02  0.556823D-01 -0.296556D-01 -0.188108D-01
     15 -0.794087D-01  0.806234D-01 -0.121988D+01 -0.126340D-01  0.144444D-01
     16 -0.120364D+00 -0.229151D+00  0.212035D+00  0.172950D-01 -0.178543D-01
     17 -0.250907D+00  0.239461D+00  0.668209D-01 -0.273451D-01 -0.247632D-01
     18  0.192859D+00  0.618879D-01 -0.598542D-01 -0.518165D-01  0.208311D-01
     19 -0.316236D+01  0.135960D+01  0.117193D+01  0.586810D-01 -0.400548D-01
     20  0.124161D+01 -0.372906D+01  0.941606D+00 -0.300599D-01  0.827512D-01
     21  0.884142D+00  0.778146D+00 -0.421727D+01 -0.109112D+00 -0.848904D-01
     22  0.150225D+00  0.113912D+00  0.581046D-01 -0.223560D-01  0.267156D-02
     23  0.784970D-01  0.119845D+00  0.852955D-01 -0.704818D-02 -0.792807D-02
     24  0.883029D-02 -0.113330D-02 -0.430993D-01  0.108837D-01  0.712788D-02
     25  0.980207D-01  0.134825D+00 -0.434424D-01  0.319339D-02  0.788837D-02
     26  0.122575D+00  0.521841D-01 -0.363683D-01  0.573097D-02  0.401509D-02
     27 -0.418655D-01 -0.381108D-01 -0.479013D-01 -0.444585D-02 -0.528752D-02
     28 -0.149970D-01 -0.532593D-01 -0.535225D-02 -0.391315D-02 -0.762794D-03
     29 -0.374495D-01  0.133661D-01  0.121894D-03  0.468284D-02  0.142216D-01
     30 -0.487982D-02 -0.592175D-02 -0.121392D-02 -0.756092D-03 -0.412356D-02
     31 -0.177079D-03  0.114679D-01  0.455934D-02  0.996826D-02  0.286365D-01
     32 -0.134916D-01 -0.189532D-01 -0.125536D-01  0.237709D-01  0.928475D-02
     33  0.113215D-01  0.178914D-01  0.142119D-02  0.612584D-02  0.822598D-02
     34  0.112979D+00 -0.662049D-02 -0.143485D+00 -0.411957D-01  0.623673D-04
     35 -0.502426D-01 -0.624637D-02  0.801386D-01  0.333988D-02 -0.181343D-01
     36 -0.106513D+00 -0.299976D-02  0.276256D+00 -0.199285D-01 -0.627653D-01
     37  0.339718D-01 -0.273747D-03 -0.149941D-01 -0.102217D-02 -0.236624D-02
     38 -0.223273D-02  0.265696D-03  0.695425D-01 -0.972407D-03  0.187287D-02
     39 -0.146752D-01  0.732098D-01 -0.911056D-01  0.141986D-02 -0.276762D-02
     40 -0.173658D-01  0.677492D-01 -0.138635D+00 -0.186058D-03  0.191345D-02
     41  0.610216D-01 -0.516650D-02 -0.142424D+00 -0.257451D-03 -0.552509D-03
     42 -0.123778D+00 -0.136960D+00  0.183012D+00  0.866854D-03  0.113319D-02
     43 -0.199517D+00  0.187899D-01  0.251164D+00 -0.176861D-01  0.124583D-03
     44  0.428637D-02 -0.288472D+00  0.327472D-01  0.232765D-02 -0.171383D-01
     45  0.304590D+00  0.110735D+00  0.375884D+00  0.487188D-02 -0.695766D-02
     46 -0.126451D-01 -0.642896D-02 -0.312122D-01 -0.127794D-02  0.308359D-03
     47  0.636157D-02 -0.127383D-01  0.161251D-02 -0.441904D-04 -0.188538D-02
     48  0.510423D-02 -0.221228D-01 -0.125799D-01 -0.175514D-03  0.310215D-03
                6             7             8             9            10
      6  0.126792D+01
      7 -0.324425D-01  0.238176D+01
      8  0.562868D-02  0.310099D+01  0.160885D+01
      9  0.205165D-01  0.155233D+00 -0.474958D+00  0.493914D+01
     10 -0.951314D-02 -0.128105D+01 -0.154075D+01 -0.296902D+00  0.191310D+02
     11  0.531120D-01 -0.169448D+01 -0.143883D+01  0.320360D+00 -0.327226D+01
     12  0.589800D-02 -0.311884D+00  0.308114D+00 -0.289907D+01 -0.631869D+00
     13 -0.775001D-01  0.329394D+00 -0.402850D+00  0.197364D+00 -0.136768D+00
     14  0.831127D-01 -0.404538D+00 -0.163742D+00  0.408176D+00 -0.460682D+00
     15  0.129673D-01  0.207502D+00  0.434921D+00  0.196006D+00  0.770140D-01
     16 -0.892132D-01 -0.177881D+01 -0.119574D+01  0.758619D-01 -0.211341D+00
     17  0.425633D-01 -0.109821D+01  0.349053D-01 -0.227081D+00  0.120417D+00
     18  0.484959D-01  0.637595D-01 -0.227401D+00 -0.235357D+01  0.437308D-01
     19 -0.116986D+00  0.439336D-01  0.105998D-01 -0.969976D-02  0.106510D+00
     20 -0.708926D-01  0.226164D-01 -0.154490D-01 -0.230342D-02 -0.686579D-01
     21 -0.997192D-01 -0.407274D-02 -0.349642D-02 -0.133319D-01  0.430928D-01
     22 -0.500757D-02  0.215141D-01 -0.187693D-01 -0.975218D-02 -0.460341D+01
     23 -0.866678D-02 -0.426639D-01 -0.147757D-01 -0.141164D-01  0.190581D+01
     24  0.472466D-02 -0.212335D-01 -0.769371D-02  0.913546D-02  0.108467D+01
     25 -0.148837D-01  0.917114D-02 -0.128491D-01 -0.246311D-02  0.107043D+00
     26 -0.107282D-01 -0.189542D-01 -0.508911D-01 -0.103766D-01 -0.904769D-01
     27  0.695009D-02 -0.237297D-02 -0.153410D-01  0.146860D-01 -0.477475D-01
     28  0.514611D-02 -0.683641D-02 -0.316333D-01 -0.112193D-01  0.116785D+00
     29 -0.200241D-01 -0.396114D-01  0.708492D-01  0.310140D-01 -0.566321D-01
     30 -0.218564D-02 -0.134886D-01  0.298122D-01 -0.824667D-02 -0.162017D-01
     31 -0.150229D-01  0.116434D-01  0.314840D-04 -0.109614D-02  0.241352D-01
     32 -0.713126D-02  0.599627D-03 -0.127401D-01 -0.307600D-01 -0.197533D-01
     33 -0.280930D-01 -0.307605D-02 -0.216366D-01 -0.152223D-01  0.427037D-01
     34 -0.145417D-01  0.407101D-01  0.345309D-01 -0.287690D-01 -0.571126D+01
     35 -0.603300D-01  0.543772D-01 -0.115057D-01  0.530006D-01 -0.375511D+00
     36  0.149438D+00 -0.138903D-01  0.288233D-01  0.263246D-01  0.161554D+01
     37  0.958530D-02  0.463835D-01 -0.595612D-01  0.340771D-01  0.361206D-01
     38 -0.123224D-01 -0.671247D-01  0.324205D-01 -0.336068D-01  0.996359D-02
     39  0.378234D-02  0.374251D-01 -0.318736D-01 -0.881090D-02 -0.119233D+00
     40 -0.794515D-02  0.218895D-01  0.196040D-01 -0.196883D-01  0.189753D+00
     41 -0.363489D-02  0.197014D-01 -0.215880D-01  0.611828D-01 -0.711372D-01
     42  0.480524D-02 -0.217250D-01  0.587653D-01 -0.396982D-01  0.159752D+00
     43  0.203570D-01 -0.180858D-01 -0.107417D-01  0.351561D-01 -0.101317D+00
     44 -0.934553D-02  0.662242D-03 -0.588160D-01 -0.108023D-01 -0.127129D+00
     45  0.748882D-01  0.464615D-01 -0.227703D-01 -0.207686D-01  0.474427D-01
     46 -0.959951D-02 -0.634908D-02  0.113801D-01  0.337373D-01 -0.588518D-01
     47  0.102828D-01  0.246264D-01 -0.230002D-01  0.301443D-01 -0.264510D-01
     48  0.775790D-02  0.522065D-01  0.175814D-01  0.459119D-01 -0.297411D-01
               11            12            13            14            15
     11  0.151756D+02
     12  0.161053D+01  0.146293D+02
     13 -0.482378D+00  0.759042D-01  0.205468D+01
     14  0.446682D+00 -0.137038D-01 -0.299314D+01  0.496475D+01
     15 -0.541115D-02 -0.351772D+00  0.614852D+01  0.432840D+01  0.608135D+01
     16  0.128976D+00  0.603211D-01 -0.142832D+01  0.508180D+01 -0.664240D+01
     17  0.162705D+00 -0.104577D+00  0.511074D+01 -0.561861D+01 -0.443569D+01
     18 -0.796326D-01  0.110218D-01 -0.663569D+01 -0.440907D+01 -0.465560D+01
     19 -0.767789D-01 -0.302332D-01  0.574255D-01 -0.609382D-01 -0.355994D-02
     20  0.565317D-02 -0.255687D-01  0.228096D-01 -0.451521D-01  0.124384D-01
     21  0.520132D-01  0.145673D+00  0.400452D-01 -0.191949D-01 -0.412475D-01
     22  0.181710D+01  0.104313D+01 -0.152962D+00  0.446401D-02 -0.179605D-02
     23 -0.263371D+01  0.181601D+01  0.171527D-01  0.276951D+00  0.243032D-01
     24  0.180156D+01 -0.481986D+01  0.860265D-03 -0.700381D-02 -0.149774D+00
     25 -0.839922D-01  0.743462D-02 -0.739739D-02  0.296928D-01 -0.274868D-02
     26 -0.693101D-01  0.164100D-01  0.105803D-01  0.330919D-01 -0.332099D-02
     27 -0.283911D-01  0.108445D+00 -0.428764D-02 -0.172964D-01 -0.121140D-01
     28 -0.973100D-01 -0.335730D-01 -0.504699D-02 -0.175338D-01 -0.123149D-02
     29  0.786618D-01 -0.305465D-02 -0.588966D-02  0.269501D-01  0.297909D-02
     30 -0.296860D-01  0.825426D-01 -0.151520D-03  0.204581D-02 -0.919776D-02
     31  0.929019D-02  0.212076D-01 -0.238426D-01  0.214088D-01  0.739740D-02
     32  0.218885D-01 -0.452255D-01  0.861968D-02  0.440043D-01  0.218180D-01
     33  0.172206D-01  0.924761D-01  0.651094D-02  0.600319D-01 -0.474232D-02
     34 -0.329270D+00  0.166950D+01 -0.111590D+00 -0.896981D-01  0.701167D-01
     35 -0.607450D+01 -0.737332D+00 -0.860219D-01  0.876046D-01 -0.173499D+00
     36 -0.596619D+00 -0.945343D+00  0.675919D-01 -0.180669D+00 -0.190670D-01
     37 -0.741671D-02 -0.770369D-01  0.224611D-02 -0.196679D-01  0.111300D-01
     38  0.195502D+00 -0.219263D-01 -0.154885D-01  0.188260D-01 -0.158233D-01
     39  0.107010D-01  0.468468D-01  0.223229D-02 -0.369957D-02 -0.638189D-02
     40 -0.660041D-01  0.120576D+00 -0.154298D-01  0.143169D-01 -0.112533D-01
     41  0.820793D-01  0.253589D+00 -0.309201D-02  0.186499D-01 -0.257269D-01
     42  0.259379D+00 -0.237576D+00  0.336688D-02 -0.295816D-01  0.102744D-01
     43 -0.909704D-01  0.656376D-01 -0.623386D-01 -0.151779D+00  0.245472D+00
     44 -0.429870D+00 -0.143815D+00 -0.152654D+00 -0.355443D-01 -0.265465D+00
     45 -0.864218D-01  0.463774D+00  0.212969D+00 -0.220533D+00  0.122954D+00
     46 -0.567946D-01 -0.668262D-01 -0.372740D-01  0.471307D-02 -0.121201D-01
     47 -0.407836D-01  0.625529D-01  0.426104D-02 -0.312561D-01  0.501051D-02
     48  0.280110D-01  0.943757D-01  0.273344D-01 -0.366918D-01  0.462171D-01
               16            17            18            19            20
     16  0.344946D+01
     17 -0.314447D+01  0.486995D+01
     18  0.587422D+01  0.485111D+01  0.732895D+01
     19  0.115793D+00 -0.203966D-01 -0.111408D-01  0.287805D+01
     20  0.202990D-01 -0.396156D-01 -0.525179D-02 -0.133935D+01  0.377233D+01
     21  0.103532D-01 -0.131118D-02 -0.397817D-01 -0.898562D+00 -0.708546D+00
     22 -0.167535D+00 -0.165484D+00 -0.438357D-01  0.531825D-01  0.104340D+00
     23 -0.112984D+00  0.303220D+00  0.150283D+00  0.118522D+00  0.869888D-01
     24 -0.293270D-01  0.144243D+00 -0.165088D+00  0.253317D-01  0.289923D-01
     25 -0.283818D-01  0.363945D-01  0.152435D-02  0.572388D-02  0.502878D-02
     26  0.409261D-02  0.925889D-01  0.110283D-01  0.262685D-02  0.289333D-03
     27 -0.819398D-03 -0.123922D-01 -0.316144D-01 -0.396458D-02 -0.388121D-02
     28 -0.142744D-02 -0.249637D-01 -0.449294D-02 -0.515333D-02 -0.279144D-02
     29 -0.170454D-01  0.333933D-01  0.902758D-02  0.817972D-02  0.972115D-02
     30 -0.350793D-02  0.103113D-01 -0.105529D-01  0.129244D-02  0.162204D-02
     31 -0.270133D-01 -0.290224D-02 -0.881738D-03  0.496414D-02  0.594409D-02
     32 -0.126008D-01  0.234026D-01  0.298241D-01  0.118982D-02 -0.788210D-03
     33 -0.128916D-01  0.722235D-01  0.146050D-01  0.103863D-01  0.859347D-02
     34  0.114359D-01 -0.270771D+00  0.173630D+00  0.505099D-02 -0.152573D-01
     35 -0.222433D+00  0.516786D-01 -0.172891D+00 -0.292536D-01 -0.163283D-01
     36  0.141775D+00 -0.159662D+00 -0.110354D+00  0.248024D-01  0.228605D-01
     37  0.143428D-01 -0.315317D-01  0.131489D-01 -0.781034D-02 -0.617723D-02
     38 -0.288796D-01  0.210305D-01 -0.145459D-01  0.105138D-01  0.123719D-01
     39  0.541760D-02 -0.667356D-02 -0.934752D-02 -0.272982D-02 -0.288440D-02
     40 -0.303095D-01 -0.349994D-02  0.261569D-02  0.131358D-01  0.224059D-01
     41 -0.341148D-01  0.496171D-01 -0.584260D-01  0.210466D-01  0.141290D-01
     42  0.256804D-01 -0.651935D-01  0.169915D-01 -0.223059D-01 -0.241032D-01
     43  0.191974D+00 -0.201857D+00  0.340041D+00 -0.178024D+00  0.102510D-01
     44 -0.219628D+00 -0.144793D+00 -0.171091D+00  0.440669D-01 -0.134542D+00
     45  0.277193D+00 -0.131508D+00 -0.159118D-01 -0.133494D+00 -0.168529D+00
     46 -0.679616D-02 -0.252133D-01  0.423270D-01  0.108957D-01  0.698935D-02
     47 -0.262256D-03 -0.541703D-01  0.432300D-02 -0.957223D-02 -0.329680D-02
     48  0.953034D-01 -0.431815D-01  0.316091D-01 -0.107074D-02 -0.415270D-02
               21            22            23            24            25
     21  0.417171D+01
     22  0.262341D-01  0.143744D+02
     23  0.304859D-01 -0.127442D+01  0.123902D+02
     24 -0.448215D-01 -0.881921D+00 -0.138375D+01  0.144336D+02
     25  0.378281D-02 -0.242007D+01  0.744010D+00 -0.118193D+01  0.221038D+01
     26  0.260460D-02  0.862528D+00 -0.389320D+01 -0.575254D+00 -0.981187D+00
     27 -0.176827D-02 -0.104726D+01 -0.439955D+00 -0.356869D+01  0.101135D+01
     28 -0.144174D-02 -0.320756D+01 -0.124342D+01 -0.187051D+00 -0.737509D-01
     29  0.509092D-02 -0.139250D+01 -0.236469D+01  0.253121D+00  0.564722D-01
     30 -0.719085D-03 -0.257072D+00  0.314392D+00 -0.411306D+01  0.894150D-01
     31  0.415873D-02 -0.392563D+01 -0.279073D+00  0.839106D+00  0.701517D-01
     32  0.533892D-03 -0.188596D+00 -0.407691D+01 -0.528131D+00 -0.434886D-02
     33  0.444031D-02  0.800758D+00 -0.753880D+00 -0.188406D+01  0.285312D-01
     34  0.331087D-01 -0.534839D-01 -0.407767D-01  0.926136D-01  0.165229D-01
     35  0.460423D-01  0.938075D-02 -0.120146D+00  0.528888D-01  0.311269D-01
     36 -0.238536D-01  0.766043D-01 -0.519107D-01  0.148399D+00  0.188481D-01
     37 -0.122070D-02  0.466598D-01 -0.622190D-02  0.857805D-01  0.379286D-02
     38  0.178405D-03 -0.204784D-01 -0.391435D-01 -0.225706D-01 -0.771342D-02
     39 -0.221983D-02  0.641965D-01 -0.269379D-02  0.156912D-01 -0.441207D-02
     40 -0.142711D-01 -0.289821D-01 -0.135916D-02 -0.363984D-01 -0.163669D-01
     41 -0.173597D-01 -0.965755D-03 -0.245568D-01 -0.115365D-02  0.100916D-01
     42  0.797795D-02 -0.145197D-01  0.491074D-03  0.469221D-01  0.567595D-01
     43 -0.192874D-01 -0.531467D-01  0.146030D+00  0.195307D+00  0.273272D-01
     44 -0.817691D-01  0.137730D+00 -0.125473D-01  0.209764D+00  0.272658D-01
     45  0.166400D+00  0.185149D+00  0.215696D+00  0.119541D+00  0.292291D-01
     46  0.305082D-02 -0.108492D-01 -0.204739D-02 -0.551867D-02 -0.535405D-02
     47  0.147192D-02  0.909384D-02  0.104054D-01  0.289969D-01  0.729473D-02
     48 -0.114737D-01  0.699639D-02  0.180138D-01  0.104698D-01  0.300775D-02
               26            27            28            29            30
     26  0.371017D+01
     27  0.526339D+00  0.350486D+01
     28  0.613922D-01  0.589910D-01  0.322412D+01
     29  0.946678D-01 -0.222224D-01  0.138192D+01  0.199621D+01
     30 -0.340709D-01  0.647948D-01  0.217793D+00 -0.401548D+00  0.390289D+01
     31 -0.240593D-01  0.604880D-01  0.210924D-01  0.622948D-01 -0.589362D-01
     32  0.515655D-01  0.375411D-01  0.456549D-01  0.121282D-01  0.626899D-01
     33  0.556933D-01 -0.386289D-01 -0.314686D-01  0.462540D-01  0.461209D-01
     34  0.867757D-02 -0.434019D-02 -0.228855D-01  0.285834D-02  0.410254D-02
     35 -0.782986D-02 -0.580739D-02 -0.211683D-01  0.110574D-01  0.235675D-01
     36  0.189702D-02 -0.221379D-01 -0.150275D-01  0.303478D-01  0.151197D-01
     37  0.138679D-02 -0.843569D-02 -0.931872D-02  0.251879D-01  0.363027D-01
     38 -0.135958D-02  0.974978D-03  0.978957D-02 -0.178343D-01  0.117366D-01
     39 -0.125388D-02 -0.338504D-02  0.222881D-01  0.287696D-01  0.326101D-01
     40  0.103039D-01  0.292798D-01  0.671722D-02 -0.571410D-02 -0.198782D-02
     41 -0.217835D-01  0.187589D-01  0.133294D-02 -0.190846D-02 -0.629922D-02
     42  0.368741D-01  0.403713D-01 -0.452697D-02 -0.716309D-03 -0.921819D-02
     43  0.278512D-01  0.470753D-02 -0.196115D-01  0.181672D-01  0.989101D-02
     44  0.237394D-02  0.704652D-02 -0.339986D-02  0.150733D-01  0.210213D-01
     45  0.188661D-01 -0.119013D-01 -0.732326D-02  0.357132D-01  0.873048D-02
     46 -0.306817D-02  0.730428D-03  0.178903D-02 -0.492104D-02 -0.181476D-02
     47  0.342143D-02 -0.197604D-02 -0.384683D-02  0.812653D-02  0.445058D-02
     48  0.166054D-02 -0.197403D-02 -0.150967D-02  0.512616D-02  0.158477D-02
               31            32            33            34            35
     31  0.383995D+01
     32  0.147501D+00  0.399858D+01
     33 -0.965420D+00  0.444696D+00  0.163757D+01
     34 -0.202808D-02  0.126239D-01  0.859303D-01  0.182397D+02
     35  0.162189D-01 -0.417022D-01  0.382813D-01 -0.169008D+01  0.151638D+02
     36  0.852862D-01  0.299273D-01  0.135423D+00 -0.245021D+01 -0.198547D+01
     37  0.244975D-02 -0.231008D-02  0.722760D-02 -0.317701D+01 -0.152054D+01
     38 -0.323695D-02  0.993141D-03 -0.694126D-02 -0.160850D+01 -0.286744D+01
     39 -0.144588D-03 -0.943096D-03 -0.465125D-03  0.111317D-01 -0.479358D-02
     40 -0.320118D-02  0.123706D-02 -0.675780D-02 -0.276388D+01  0.103997D+01
     41 -0.872790D-03 -0.753837D-03 -0.366448D-02  0.114216D+01 -0.396532D+01
     42  0.245775D-02 -0.199901D-02  0.891970D-02 -0.130988D+01 -0.719312D+00
     43  0.314588D-03 -0.550338D-03  0.250822D-01 -0.672239D+01  0.284682D+01
     44  0.422920D-02 -0.943686D-02  0.824233D-02  0.274311D+01 -0.222087D+01
     45  0.148576D-01 -0.108174D-02  0.255198D-01  0.174996D+01  0.366625D+01
     46 -0.278386D-02  0.453830D-03 -0.496347D-02  0.179340D+00 -0.597652D-02
     47  0.312118D-02 -0.558045D-03  0.876840D-02  0.106945D+00  0.358935D-01
     48  0.198225D-02  0.794730D-03  0.471887D-02  0.611297D-01 -0.100732D+00
               36            37            38            39            40
     36  0.143398D+02
     37 -0.661072D-01  0.309384D+01
     38  0.824302D-01  0.191719D+01  0.241575D+01
     39 -0.460794D+01 -0.421061D-01  0.522325D-01  0.455426D+01
     40 -0.115709D+01 -0.189522D+00  0.847891D-01  0.108828D+00  0.258612D+01
     41 -0.693135D+00  0.716704D-01  0.161100D+00 -0.282490D-01 -0.116900D+01
     42 -0.382705D+01  0.133906D+00 -0.369442D-01  0.130286D+00  0.130314D+01
     43  0.181115D+01  0.112221D+00 -0.197110D+00 -0.477995D-01  0.230051D+00
     44  0.354914D+01 -0.272298D+00 -0.916047D-01 -0.129117D+00  0.280700D-01
     45 -0.567152D+01 -0.908408D-01 -0.121160D+00 -0.284114D-01 -0.161154D+00
     46 -0.128341D-01 -0.734284D-02 -0.805138D-01 -0.218389D-01  0.175832D-01
     47 -0.121984D-01 -0.870725D-01  0.157255D+00  0.500362D-01 -0.447839D-01
     48  0.136495D+00 -0.304166D-01  0.687452D-01 -0.254025D-01 -0.925768D-02
               41            42            43            44            45
     41  0.384830D+01
     42  0.848598D+00  0.354526D+01
     43  0.106428D-01 -0.189705D+00  0.112686D+02
     44 -0.256272D-01 -0.173437D+00  0.390651D+00  0.716004D+01
     45 -0.175020D+00  0.793697D-01 -0.199321D+01 -0.374697D+01  0.111010D+02
     46 -0.582306D-01  0.509314D-03 -0.445841D+01 -0.260730D+01 -0.486695D+00
     47 -0.106616D+00 -0.169935D-01 -0.281632D+01 -0.370823D+01  0.633693D+00
     48 -0.270352D-01  0.393554D-01 -0.753961D+00  0.903848D+00 -0.678957D+01
               46            47            48
     46  0.439832D+01
     47  0.282664D+01  0.376743D+01
     48  0.573068D+00 -0.810175D+00  0.642251D+01
 ReadGW:  IGet=0 IStart=         114 Next=        7220 LGW=        7106.
 ICntrl=12127.
 Symmetry not used in FoFDir.
 MinBra= 0 MaxBra= 2 Meth= 1.
 IRaf=       0 NMat=   1 IRICut=       1 DoRegI=T DoRafI=F ISym2E= 0 JSym2E=0.
 PrsmSu:  NPrtUS=   8 ThrOK=T
 PRISM was handed    16287591 working-precision words and  2466 shell-pairs
 PRISM was handed    16287591 working-precision words and  2466 shell-pairs
 PRISM was handed    16287591 working-precision words and  2466 shell-pairs
 PRISM was handed    16287591 working-precision words and  2466 shell-pairs
 PRISM was handed    16287591 working-precision words and  2466 shell-pairs
 PRISM was handed    16287591 working-precision words and  2466 shell-pairs
 PRISM was handed    16287591 working-precision words and  2466 shell-pairs
 PRISM was handed    16287591 working-precision words and  2466 shell-pairs
 Pruned (  75, 302) grid will be used in CalDFT.
 CkSvGd:  ISavGI=        -1 IRadAn=       4 IRASav=       4 ISavGd=        -1.
 CalDSu:  NPrtUS=   8 ThrOK=T
 IPart= 0 IRanGd=          0 ScrnBf=T ScrnGd=T RCrit=4.00D+00 DoMicB=T.
 IPart= 7 IRanGd=          0 ScrnBf=T ScrnGd=T RCrit=4.00D+00 DoMicB=T.
 IPart= 6 IRanGd=          0 ScrnBf=T ScrnGd=T RCrit=4.00D+00 DoMicB=T.
 IPart= 3 IRanGd=          0 ScrnBf=T ScrnGd=T RCrit=4.00D+00 DoMicB=T.
 IPart= 2 IRanGd=          0 ScrnBf=T ScrnGd=T RCrit=4.00D+00 DoMicB=T.
 CutRad = 1000.00    CtRdIn =    0.00    XCrit =  15.00   ICut = 0
 IPart= 4 IRanGd=          0 ScrnBf=T ScrnGd=T RCrit=4.00D+00 DoMicB=T.
 CutRad = 1000.00    CtRdIn =    0.00    XCrit =  15.00   ICut = 0
 IPart= 5 IRanGd=          0 ScrnBf=T ScrnGd=T RCrit=4.00D+00 DoMicB=T.
 CutRad = 1000.00    CtRdIn =    0.00    XCrit =  15.00   ICut = 0
 CutRad = 1000.00    CtRdIn =    0.00    XCrit =  15.00   ICut = 0
 CutRad = 1000.00    CtRdIn =    0.00    XCrit =  15.00   ICut = 0
 CutRad = 1000.00    CtRdIn =    0.00    XCrit =  15.00   ICut = 0
 IPart= 1 IRanGd=          0 ScrnBf=T ScrnGd=T RCrit=4.00D+00 DoMicB=T.
 CutRad = 1000.00    CtRdIn =    0.00    XCrit =  15.00   ICut = 0
 CutRad = 1000.00    CtRdIn =    0.00    XCrit =  15.00   ICut = 0
 IPart= 5        14413 of        16568 points in      36 batches and      106 microbatches, Max-NSigAt=      16 Max-NSgAt2=      16
 IPart= 2        14213 of        16810 points in      35 batches and       93 microbatches, Max-NSigAt=      16 Max-NSgAt2=      16
 IPart= 0        13815 of        15544 points in      31 batches and       99 microbatches, Max-NSigAt=      16 Max-NSgAt2=      16
 IPart= 1        14674 of        17008 points in      36 batches and      111 microbatches, Max-NSigAt=      16 Max-NSgAt2=      16
 IPart= 4        13259 of        14674 points in      29 batches and       98 microbatches, Max-NSigAt=      16 Max-NSgAt2=      16
 IPart= 7        14560 of        16532 points in      34 batches and       94 microbatches, Max-NSigAt=      16 Max-NSgAt2=      16
 IPart= 6        13278 of        14754 points in      28 batches and       83 microbatches, Max-NSigAt=      16 Max-NSgAt2=      16
 IPart= 3        13818 of        15900 points in      33 batches and      101 microbatches, Max-NSigAt=      16 Max-NSgAt2=      16
 Polarizability after L703:
                1             2             3
      1  0.612975D+02
      2 -0.374095D+01  0.713792D+02
      3 -0.306603D+01 -0.238742D+01  0.573488D+02
 Dipole Derivatives after L703:
               1            2            3            4            5
      1-0.428503D-01-0.437636D-01 0.634755D-01 0.708923D-01-0.353344D-02
      2 0.167962D+00 0.376812D+00-0.228215D+00 0.308812D-01 0.495967D-01
      3-0.320318D-01-0.125216D+00 0.128989D+00-0.211749D-01-0.129267D-01
               6            7            8            9           10
      1-0.319941D-03 0.392593D+00-0.176068D+00-0.684530D-01-0.174298D+00
      2 0.755680D-02-0.243960D+00 0.100718D+00 0.131511D+00-0.322136D+00
      3-0.641722D-01-0.341745D-01 0.953305D-01 0.115725D+00 0.195973D+00
              11           12           13           14           15
      1 0.105973D+00 0.545733D-01 0.340257D+00 0.300200D+00-0.374889D+00
      2 0.803484D-01 0.178136D+00-0.223463D+00-0.680203D+00 0.328617D+00
      3 0.107191D-01-0.179385D+00-0.178283D+00 0.425824D-01-0.449532D-01
              16           17           18           19           20
      1-0.785151D+00-0.653636D-01 0.399544D+00 0.289586D-01-0.279721D-01
      2 0.503037D+00 0.574809D-01-0.352253D+00-0.126851D-01 0.189572D-01
      3 0.166168D+00-0.352607D-01-0.239563D+00-0.340666D-01-0.268799D-02
              21           22           23           24           25
      1-0.302390D-01 0.161581D+00-0.455475D-01-0.767934D-01-0.573154D-01
      2-0.514996D-01 0.882060D-01 0.957128D-01 0.123905D-01-0.904405D-01
      3 0.820814D-01-0.552000D-01 0.240364D-01 0.200857D-01 0.702718D-01
              26           27           28           29           30
      1-0.327625D-01 0.111200D+00-0.377525D-01 0.470342D-01-0.132761D-01
      2 0.143493D-01 0.443887D-01 0.968797D-01-0.121406D+00-0.428238D-01
      3-0.331653D-02 0.413911D-02 0.151005D-01-0.283077D-01 0.728636D-01
              31           32           33           34           35
      1 0.432923D-01 0.128258D-01-0.708070D-01 0.430368D+00 0.106131D+00
      2-0.760375D-02 0.345459D-01 0.137438D-01 0.134527D+00 0.479909D+00
      3-0.481767D-01 0.621480D-01-0.109443D+00 0.152631D-01 0.176974D+00
              36           37           38           39           40
      1 0.136477D+00-0.449530D-01 0.697377D-01 0.682270D-02-0.115666D+00
      2 0.212019D-01 0.126227D+00-0.697936D-01 0.156395D-01-0.131749D+00
      3 0.670494D+00-0.371608D-01 0.265059D-02-0.141284D-01 0.911365D-01
              41           42           43           44           45
      1-0.616181D-01 0.435781D-01-0.337092D+00-0.227331D+00-0.161588D+00
      2-0.400349D-01 0.462472D-01-0.176462D+00-0.619163D+00-0.146245D+00
      3 0.235765D-01-0.530492D-01-0.116250D+00-0.233050D+00-0.785504D+00
              46           47           48
      1 0.127136D+00 0.420574D-01-0.193055D-01
      2 0.607812D-01 0.222171D+00 0.216043D-01
      3 0.260476D-02 0.274877D-02 0.395821D+00
 Hessian after L703:
                1             2             3             4             5
      1  0.423095D+00
      2  0.275135D+00  0.382502D+00
      3  0.225462D-01 -0.443914D-01  0.672190D+00
      4 -0.454894D-01 -0.133753D-01 -0.187749D-01  0.389409D-01
      5 -0.116167D-01 -0.424121D-01  0.128999D-01  0.119481D-01  0.395754D-01
      6 -0.159617D-01  0.141868D-01 -0.343373D+00  0.174314D-01 -0.169339D-01
      7 -0.283754D-01 -0.301951D-01  0.235480D-01 -0.129674D-02  0.124953D-03
      8  0.157285D-01  0.473226D-01 -0.266655D-01  0.331046D-02 -0.259520D-02
      9  0.735880D-02 -0.150657D-02 -0.772036D-02 -0.103068D-03  0.418601D-03
     10 -0.141859D+00 -0.859606D-01  0.499661D-01  0.870350D-02 -0.925503D-03
     11 -0.134780D+00 -0.217858D+00  0.112393D+00 -0.385811D-02  0.360222D-02
     12  0.636310D-01  0.809970D-01 -0.171109D+00  0.174675D-01  0.194281D-01
     13  0.330501D-02 -0.240320D-02 -0.102975D-01 -0.112252D-02  0.486696D-03
     14 -0.170007D-01  0.235270D-01 -0.523632D-02  0.532833D-02 -0.393382D-02
     15 -0.503638D-02 -0.133404D-01 -0.924680D-02  0.387988D-02 -0.340909D-02
     16 -0.189064D-01  0.164613D-01  0.104979D-01 -0.284829D-02  0.218131D-02
     17 -0.375411D-03 -0.468996D-01  0.203325D-01 -0.275607D-02  0.228018D-02
     18  0.161965D-01  0.113397D-01 -0.274182D-02  0.796312D-03 -0.416641D-03
     19 -0.184422D+00 -0.125796D+00 -0.909208D-01  0.468287D-02 -0.477436D-03
     20 -0.124415D+00 -0.133260D+00 -0.723224D-01  0.955695D-03  0.321877D-02
     21 -0.953786D-01 -0.731218D-01 -0.116889D+00 -0.192841D-01 -0.144791D-01
     22 -0.151325D-01 -0.255559D-01 -0.598750D-02 -0.190594D-02  0.438164D-02
     23 -0.957123D-02 -0.159898D-01 -0.110488D-01  0.148251D-02 -0.225946D-03
     24  0.829024D-02  0.112602D-01  0.123103D-01  0.936379D-03  0.389852D-03
     25 -0.112939D-02 -0.126156D-02 -0.237491D-02 -0.373550D-04  0.148474D-03
     26 -0.375329D-02 -0.259608D-02 -0.357710D-02  0.361309D-04  0.314986D-03
     27 -0.142286D-02 -0.178983D-02 -0.156947D-02 -0.143941D-03 -0.238917D-03
     28  0.128435D-02  0.309735D-03 -0.150812D-02  0.223842D-03 -0.266112D-03
     29  0.134734D-02  0.243647D-02 -0.246199D-02  0.621758D-03 -0.874933D-03
     30  0.780252D-03  0.196550D-02 -0.103010D-02  0.143929D-03 -0.160172D-03
     31  0.752614D-03  0.994328D-03 -0.977108D-03 -0.254410D-03 -0.449526D-03
     32  0.415507D-03  0.138463D-02 -0.722703D-03 -0.146488D-03  0.351374D-04
     33  0.135997D-02  0.147986D-02  0.518801D-03 -0.482219D-03 -0.221007D-03
     34  0.716008D-02 -0.526854D-02  0.238200D-01 -0.333717D-03 -0.655077D-02
     35  0.116354D-01  0.298113D-02  0.176339D-01 -0.469095D-02  0.224447D-03
     36  0.204877D-02  0.184508D-01 -0.269819D-01 -0.194633D-02  0.240629D-02
     37  0.104464D-03 -0.176697D-02  0.906012D-03  0.557487D-04  0.398794D-05
     38  0.381909D-03  0.929511D-03 -0.510341D-03 -0.188583D-03  0.159693D-03
     39 -0.274647D-02 -0.296865D-02  0.172178D-02  0.845059D-03 -0.916567D-03
     40  0.126539D-04  0.126788D-03 -0.220808D-02  0.247873D-03  0.586918D-03
     41  0.304326D-03  0.122094D-02  0.121832D-02 -0.142727D-03 -0.295441D-03
     42 -0.217020D-02 -0.838880D-03 -0.600313D-02  0.445050D-03  0.161863D-02
     43 -0.663790D-03 -0.154995D-02  0.160290D-02  0.575652D-03  0.484835D-03
     44 -0.388269D-02 -0.395025D-02  0.261360D-02  0.140435D-02  0.114272D-02
     45  0.506295D-03 -0.161113D-02  0.564689D-03 -0.134457D-02 -0.669919D-03
     46  0.264137D-03  0.105627D-03  0.161747D-03 -0.142037D-03 -0.608912D-04
     47  0.447483D-03  0.662065D-03 -0.154289D-03  0.709080D-04 -0.216094D-03
     48 -0.180421D-05 -0.111091D-03 -0.640117D-03  0.133639D-03  0.283939D-03
                6             7             8             9            10
      6  0.359288D+00
      7 -0.111085D-03  0.502923D-01
      8  0.536542D-04  0.400407D-01  0.200246D-01
      9 -0.317191D-04 -0.109710D-01 -0.102319D-01  0.652045D-01
     10 -0.500434D-02  0.702108D-02 -0.676113D-01  0.541849D-02  0.322233D+00
     11  0.243835D-03  0.735517D-02 -0.893880D-02 -0.940076D-02  0.183838D+00
     12 -0.112415D-01 -0.196269D-01  0.298849D-01 -0.248330D-01  0.148072D-01
     13  0.627190D-03 -0.170135D-02 -0.726876D-02  0.100129D-01  0.264179D-02
     14 -0.729610D-03  0.381762D-02 -0.746815D-01  0.290255D-01 -0.391476D-01
     15  0.985080D-03  0.529604D-02  0.346220D-01 -0.474074D-02  0.143607D-01
     16 -0.377981D-03 -0.166471D-01 -0.111281D-01  0.379010D-03 -0.337395D-01
     17  0.951369D-04 -0.228336D-01  0.483062D-01 -0.146116D-01  0.978057D-01
     18 -0.753831D-04  0.340885D-02 -0.183632D-01 -0.188094D-01 -0.126163D-01
     19  0.124344D-02 -0.113066D-02  0.262582D-02 -0.696078D-03 -0.248443D-02
     20  0.267869D-02  0.828406D-03 -0.265025D-02  0.104790D-02 -0.145841D-01
     21 -0.763189D-02  0.649889D-03 -0.898072D-03  0.398058D-05  0.103010D-01
     22 -0.476663D-03  0.164912D-02  0.124845D-01  0.491988D-02 -0.822182D-01
     23 -0.120856D-02 -0.139913D-02 -0.197474D-01 -0.785532D-02 -0.486224D-01
     24  0.806677D-03 -0.238284D-03 -0.778534D-02 -0.284716D-02 -0.283798D-01
     25 -0.107392D-04 -0.790888D-03  0.164641D-02  0.243927D-03 -0.899885D-02
     26 -0.138442D-03 -0.205611D-02  0.157192D-02  0.902677D-03 -0.179693D-01
     27  0.223308D-03 -0.326082D-03  0.457211D-03  0.543429D-03 -0.131346D-01
     28  0.179664D-03 -0.580844D-03 -0.118944D-02 -0.605957D-03  0.971774D-02
     29  0.431570D-04 -0.210054D-02 -0.173173D-02 -0.956834D-03  0.987414D-02
     30  0.654195D-04 -0.310767D-03 -0.218712D-02 -0.397705D-03  0.655494D-02
     31  0.509553D-03  0.148503D-03 -0.850664D-04  0.297832D-03 -0.625058D-02
     32  0.518973D-03 -0.447392D-03  0.885929D-03 -0.941371D-04 -0.831241D-02
     33  0.731474D-03 -0.442217D-03  0.579645D-03 -0.208178D-03 -0.441339D-02
     34  0.222104D-02 -0.107681D-01  0.129681D-01 -0.151945D-01 -0.736772D-01
     35  0.513734D-03  0.883460D-02 -0.880112D-02  0.123704D-01 -0.806131D-02
     36  0.815124D-03 -0.479097D-02  0.449826D-02 -0.320940D-02 -0.210219D-01
     37 -0.646459D-04 -0.155133D-03  0.841912D-03 -0.120404D-02 -0.271753D-02
     38  0.128076D-03 -0.275287D-03  0.479360D-03  0.568188D-03  0.647778D-02
     39 -0.909439D-04 -0.656033D-03  0.125902D-02 -0.314495D-02 -0.200239D-01
     40 -0.216186D-03  0.435515D-03  0.269697D-03 -0.310359D-03  0.768839D-02
     41  0.224117D-03 -0.152475D-02  0.654867D-03  0.337052D-03 -0.555690D-02
     42 -0.625713D-03  0.241447D-02 -0.214611D-02  0.336670D-03  0.211293D-01
     43  0.111770D-03  0.114919D-02 -0.157867D-02  0.102293D-02 -0.598434D-02
     44  0.264907D-03  0.406512D-03 -0.645362D-03  0.692963D-03 -0.989650D-03
     45  0.412754D-04  0.306040D-02 -0.242695D-02  0.743704D-03 -0.198004D-01
     46 -0.100750D-03  0.750601D-03 -0.105475D-02 -0.568786D-03 -0.753016D-04
     47  0.594064D-04 -0.576060D-03  0.545908D-03 -0.706222D-03 -0.254936D-03
     48  0.113682D-03 -0.904415D-03 -0.650447D-03 -0.889687D-03  0.185684D-02
               11            12            13            14            15
     11  0.530889D+00
     12 -0.998437D-01  0.492703D+00
     13  0.117064D-01 -0.419495D-02  0.267989D+00
     14 -0.119584D-03  0.240994D-01  0.156059D+00  0.195818D+00
     15 -0.597462D-02 -0.400919D-02 -0.198332D+00 -0.152755D+00  0.181385D+00
     16  0.742144D-02  0.179986D-01 -0.262664D+00 -0.122459D+00  0.184455D+00
     17 -0.398340D-01 -0.372492D-01 -0.165512D+00 -0.128324D+00  0.134044D+00
     18  0.116390D-01  0.831384D-02  0.198788D+00  0.109244D+00 -0.165367D+00
     19 -0.121558D-01 -0.103544D-01 -0.447957D-02  0.336791D-02 -0.271561D-02
     20 -0.624814D-02 -0.775661D-02  0.494321D-02 -0.176102D-02  0.376454D-02
     21  0.879901D-02  0.129581D-01  0.136971D-02 -0.629537D-03  0.164107D-02
     22 -0.391496D-01 -0.256948D-01 -0.224035D-02  0.609957D-02 -0.860463D-03
     23 -0.137928D+00 -0.312921D-01  0.506058D-03 -0.344512D-02  0.886874D-03
     24 -0.338323D-01 -0.108028D+00  0.872663D-03  0.138882D-02 -0.123548D-02
     25 -0.523744D-02  0.622755D-02 -0.170525D-03  0.786457D-04  0.110857D-03
     26 -0.110057D-01  0.138914D-01 -0.287791D-03  0.361189D-03  0.666877D-04
     27 -0.474536D-02  0.914179D-02  0.123693D-03  0.234553D-03 -0.971150D-04
     28 -0.145601D-01 -0.112228D-02  0.563300D-03 -0.698546D-03 -0.227539D-04
     29 -0.221887D-01 -0.255936D-02  0.112871D-02 -0.156653D-02 -0.569650D-05
     30 -0.123184D-01 -0.155163D-02  0.406763D-03 -0.137046D-02  0.258573D-03
     31  0.474042D-02 -0.129226D-01  0.527632D-03 -0.199099D-03 -0.175731D-03
     32  0.671787D-02 -0.257630D-01  0.853586D-04  0.166393D-03 -0.830956D-05
     33  0.372186D-02 -0.145724D-01  0.570037D-04 -0.370824D-03  0.153461D-03
     34  0.213588D-02 -0.256317D-01 -0.225701D-02  0.316309D-02 -0.362136D-03
     35 -0.892217D-01  0.349296D-01  0.918687D-03 -0.807929D-02  0.233703D-02
     36  0.298839D-01 -0.143197D+00  0.425920D-03 -0.667003D-02  0.201395D-02
     37  0.459419D-02 -0.254251D-02 -0.339715D-03  0.114403D-02 -0.245782D-03
     38 -0.467943D-02  0.379350D-02  0.344675D-03 -0.367941D-04 -0.115289D-03
     39  0.223582D-01 -0.672628D-02 -0.126059D-02  0.228973D-02 -0.489291D-04
     40  0.402033D-02 -0.625975D-02 -0.604951D-04 -0.113173D-03  0.114046D-03
     41 -0.295868D-02  0.825640D-02  0.745707D-04  0.250441D-03 -0.107496D-03
     42  0.134026D-01 -0.171943D-01  0.508199D-03 -0.290972D-03 -0.112056D-03
     43 -0.149732D-01 -0.115266D-01 -0.260127D-03  0.420157D-03  0.304392D-03
     44 -0.271941D-02 -0.110439D-01 -0.153834D-03  0.288427D-02 -0.685376D-03
     45 -0.347676D-01 -0.213396D-01  0.361920D-03  0.106730D-02 -0.855212D-03
     46 -0.109744D-02 -0.255420D-03  0.268706D-03  0.140617D-03 -0.770655D-03
     47  0.249079D-02  0.227601D-03 -0.627120D-03 -0.105954D-02  0.680170D-03
     48 -0.155831D-02  0.685627D-03  0.530741D-03  0.703990D-03 -0.724004D-03
               16            17            18            19            20
     16  0.329949D+00
     17  0.107421D+00  0.152844D+00
     18 -0.211379D+00 -0.107640D+00  0.178322D+00
     19 -0.704398D-03 -0.181334D-02  0.243672D-02  0.189097D+00
     20  0.110547D-02  0.163878D-02 -0.319304D-02  0.134083D+00  0.139893D+00
     21  0.125519D-02  0.421425D-03 -0.158358D-02  0.995491D-01  0.775532D-01
     22  0.149811D-02 -0.441585D-02 -0.240600D-04  0.241665D-02 -0.604181D-02
     23 -0.146250D-02  0.652881D-02 -0.116586D-03 -0.166676D-02  0.159780D-02
     24 -0.144899D-02  0.137135D-02  0.111715D-02  0.217233D-02  0.300522D-02
     25  0.110129D-02 -0.152671D-02 -0.228446D-03  0.573722D-04 -0.592898D-03
     26  0.137422D-02 -0.125451D-02 -0.262501D-03 -0.339568D-03 -0.134862D-02
     27 -0.641654D-04 -0.148722D-03  0.224413D-04 -0.251928D-03 -0.679110D-03
     28  0.208395D-03 -0.297739D-03  0.191318D-03 -0.569400D-03  0.633581D-03
     29 -0.229506D-03  0.727734D-04  0.394737D-03 -0.785149D-03  0.624410D-03
     30 -0.183547D-03  0.914035D-03 -0.168976D-03 -0.970263D-04  0.121513D-03
     31 -0.477006D-03 -0.122549D-03  0.210850D-03  0.126924D-03  0.816955D-04
     32  0.291990D-03 -0.434425D-03  0.674247D-04  0.369371D-03  0.000000D+00
     33  0.471768D-03 -0.344893D-03  0.294163D-04  0.212578D-03 -0.230462D-03
     34  0.309596D-02 -0.503807D-02  0.122529D-02 -0.251231D-02  0.115539D-02
     35 -0.102601D-02  0.565337D-02 -0.301358D-02  0.533811D-03 -0.268279D-02
     36  0.237738D-02 -0.190061D-03 -0.164920D-02 -0.412301D-04 -0.353522D-02
     37  0.516229D-03 -0.103542D-02  0.214988D-03 -0.320706D-03  0.328239D-03
     38 -0.132918D-03 -0.401170D-03  0.269135D-03  0.185666D-03 -0.363910D-03
     39  0.470822D-03 -0.289652D-03  0.294688D-03 -0.502962D-03  0.100540D-02
     40  0.361399D-03 -0.529713D-03  0.112628D-03  0.207405D-03  0.917603D-04
     41  0.477838D-03 -0.671367D-03 -0.894480D-04  0.762942D-04 -0.161166D-04
     42 -0.187863D-02  0.195596D-02  0.305809D-03  0.263020D-03 -0.272436D-03
     43  0.190726D-03  0.181550D-03 -0.540832D-03  0.253899D-03  0.127324D-02
     44 -0.108885D-02  0.166070D-03  0.792449D-03  0.198356D-02  0.100347D-02
     45 -0.189723D-02  0.112526D-02  0.101978D-02 -0.105029D-02 -0.104452D-02
[...]
    X8        2.72802   0.00001   0.00000  -0.00004  -0.00006   2.72796
    Y8        3.89361   0.00000   0.00000  -0.00004  -0.00001   3.89360
    Z8       -0.10923   0.00000   0.00000   0.00000  -0.00003  -0.10926
    X9        4.37632   0.00001   0.00000   0.00056   0.00051   4.37684
    Y9        4.55303   0.00000   0.00000  -0.00077  -0.00070   4.55232
    Z9       -1.16729   0.00000   0.00000   0.00047   0.00041  -1.16688
   X10        1.44872   0.00001   0.00000   0.00033   0.00028   1.44900
   Y10        5.50434   0.00000   0.00000   0.00038   0.00038   5.50472
   Z10        0.11619   0.00000   0.00000  -0.00092  -0.00094   0.11525
   X11        3.36907   0.00001   0.00000  -0.00090  -0.00087   3.36820
   Y11        3.32675   0.00000   0.00000   0.00026   0.00031   3.32705
   Z11        1.76871   0.00000   0.00000   0.00039   0.00034   1.76905
   X12        0.59447   0.00000   0.00000   0.00001  -0.00004   0.59443
   Y12        2.29986   0.00000   0.00000  -0.00003  -0.00005   2.29981
   Z12       -4.18931   0.00000   0.00000   0.00003   0.00003  -4.18928
   X13       -0.87282   0.00000   0.00000   0.00019   0.00011  -0.87271
   Y13        3.75635   0.00000   0.00000   0.00015   0.00010   3.75646
   Z13       -4.17602   0.00000   0.00000   0.00003   0.00006  -4.17596
   X14        2.21199   0.00000   0.00000   0.00010   0.00001   2.21200
   Y14        3.07225   0.00000   0.00000  -0.00024  -0.00022   3.07203
   Z14       -5.23791   0.00000   0.00000   0.00001  -0.00001  -5.23793
   X15       -0.47869   0.00000   0.00000  -0.00024  -0.00026  -0.47895
   Y15        0.19638   0.00000   0.00000   0.00010   0.00006   0.19644
   Z15       -5.45843   0.00000   0.00000   0.00001   0.00003  -5.45840
   X16        0.82363  -0.00001   0.00000  -0.00045  -0.00046   0.82317
   Y16       -1.05600   0.00000   0.00000  -0.00011  -0.00013  -1.05613
   Z16       -5.68162   0.00000   0.00000   0.00004   0.00004  -5.68158
         Item               Value     Threshold  Converged?
 Maximum Force            0.000011     0.000450     YES
 RMS     Force            0.000005     0.000300     YES
 Maximum Displacement     0.000935     0.001800     YES
 RMS     Displacement     0.000285     0.001200     YES
 Predicted change in Energy=-6.152681D-09
 Optimization completed.
    -- Stationary point found.
 GradGradGradGradGradGradGradGradGradGradGradGradGradGradGradGradGradGrad


 Test job not archived.
 1\1\GINC-NODE32\Freq\UB3LYP\CBSB7\C4H9O3(2)\SHAMEL\18-Jun-2013\0\\# fr
 eq nosymm b3lyp/cbsb7 iop(7/33=1)\\Title Card Required\\0,2\C,-0.00411
 8,-0.011887,-0.050883\H,0.044418,-0.062711,1.029283\H,1.719727,0.03769
 8,-0.97729\C,0.747626,0.906363,-0.774779\O,1.440767,-1.71475,-0.21257\
 O,2.318121,-1.124182,-0.917966\H,-0.754592,-0.616598,-0.541694\C,1.443
 605,2.060408,-0.057804\H,2.31585,2.409358,-0.617701\H,0.766628,2.91276
 9,0.061485\H,1.782836,1.760438,0.935963\C,0.314582,1.217036,-2.216889\
 H,-0.461875,1.987776,-2.209854\H,1.170535,1.625764,-2.771785\O,-0.2533
 1,0.10392,-2.888478\H,0.435844,-0.558811,-3.006584\\Version=AM64L-G03R
 evD.01\HF=-383.436829\S2=0.759973\S2-1=0.\S2A=0.750057\RMSD=6.159e-09\
 RMSF=4.837e-06\ZeroPoint=0.1262548\Thermal=0.1346947\Dipole=0.0029842,
 0.8223228,0.2179172\DipoleDeriv=-0.0428503,0.1679616,-0.0320318,-0.043
 7636,0.3768116,-0.1252164,0.0634755,-0.2282151,0.1289887,0.0708923,0.0
 308812,-0.0211749,-0.0035334,0.0495967,-0.0129267,-0.0003199,0.0075568
 ,-0.0641722,0.3925933,-0.2439601,-0.0341745,-0.1760682,0.1007181,0.095
 3305,-0.068453,0.1315107,0.1157249,-0.1742979,-0.3221359,0.1959734,0.1
 059729,0.0803484,0.0107191,0.0545733,0.1781356,-0.1793855,0.3402566,-0
 .2234634,-0.1782833,0.3002002,-0.6802034,0.0425824,-0.3748889,0.328616
 9,-0.0449532,-0.7851506,0.5030372,0.1661681,-0.0653636,0.0574809,-0.03
 52607,0.3995442,-0.3522528,-0.2395628,0.0289586,-0.0126851,-0.0340666,
 -0.0279721,0.0189572,-0.002688,-0.030239,-0.0514996,0.0820814,0.161580
 6,0.088206,-0.0552,-0.0455475,0.0957128,0.0240364,-0.0767934,0.0123905
 ,0.0200857,-0.0573154,-0.0904405,0.0702718,-0.0327625,0.0143493,-0.003
 3165,0.1112002,0.0443887,0.0041391,-0.0377525,0.0968797,0.0151005,0.04
 70342,-0.1214064,-0.0283077,-0.0132761,-0.0428238,0.0728636,0.0432923,
 -0.0076037,-0.0481767,0.0128258,0.0345459,0.062148,-0.070807,0.0137438
 ,-0.1094429,0.4303679,0.1345265,0.0152631,0.1061315,0.4799089,0.176974
 ,0.1364766,0.0212019,0.6704939,-0.044953,0.1262267,-0.0371608,0.069737
 7,-0.0697936,0.0026506,0.0068227,0.0156395,-0.0141284,-0.1156659,-0.13
 1749,0.0911365,-0.0616181,-0.0400349,0.0235765,0.0435781,0.0462472,-0.
 0530492,-0.337092,-0.1764623,-0.1162496,-0.2273308,-0.619163,-0.233050
 3,-0.1615877,-0.1462446,-0.785504,0.127136,0.0607812,0.0026048,0.04205
 74,0.2221714,0.0027488,-0.0193055,0.0216043,0.395821\Polar=61.2974893,
 -3.7409509,71.3791945,-3.0660315,-2.3874239,57.3487945\PG=C01 [X(C4H9O
 3)]\NImag=1\\0.42309465,0.27513509,0.38250216,0.02254616,-0.04439145,0
 .67218991,-0.04548939,-0.01337530,-0.01877490,0.03894092,-0.01161666,-
 0.04241210,0.01289992,0.01194809,0.03957537,-0.01596169,0.01418680,-0.
 34337327,0.01743142,-0.01693387,0.35928836,-0.02837540,-0.03019512,0.0
 2354803,-0.00129674,0.00012495,-0.00011109,0.05029225,0.01572852,0.047
 32258,-0.02666554,0.00331046,-0.00259520,0.00005365,0.04004071,0.02002
 463,0.00735880,-0.00150657,-0.00772036,-0.00010307,0.00041860,-0.00003
 172,-0.01097097,-0.01023192,0.06520449,-0.14185929,-0.08596063,0.04996
 608,0.00870350,-0.00092550,-0.00500434,0.00702108,-0.06761132,0.005418
 49,0.32223277,-0.13478050,-0.21785826,0.11239261,-0.00385811,0.0036022
 2,0.00024383,0.00735517,-0.00893880,-0.00940076,0.18383843,0.53088941,
 0.06363100,0.08099698,-0.17110940,0.01746749,0.01942808,-0.01124149,-0
 .01962685,0.02988491,-0.02483295,0.01480722,-0.09984374,0.49270323,0.0
 0330501,-0.00240320,-0.01029751,-0.00112252,0.00048670,0.00062719,-0.0
 0170135,-0.00726876,0.01001288,0.00264179,0.01170642,-0.00419495,0.267
 98881,-0.01700065,0.02352705,-0.00523632,0.00532833,-0.00393382,-0.000
 72961,0.00381762,-0.07468155,0.02902550,-0.03914759,-0.00011958,0.0240
 9941,0.15605854,0.19581835,-0.00503638,-0.01334039,-0.00924680,0.00387
 988,-0.00340909,0.00098508,0.00529604,0.03462204,-0.00474074,0.0143607
 2,-0.00597462,-0.00400919,-0.19833159,-0.15275542,0.18138460,-0.018906
 38,0.01646127,0.01049794,-0.00284829,0.00218131,-0.00037798,-0.0166471
 5,-0.01112808,0.00037901,-0.03373954,0.00742144,0.01799859,-0.26266358
 ,-0.12245944,0.18445516,0.32994937,-0.00037541,-0.04689958,0.02033255,
 -0.00275607,0.00228018,0.00009514,-0.02283357,0.04830618,-0.01461157,0
 .09780572,-0.03983396,-0.03724922,-0.16551223,-0.12832445,0.13404435,0
 .10742135,0.15284393,0.01619646,0.01133968,-0.00274182,0.00079631,-0.0
 0041664,-0.00007538,0.00340885,-0.01836323,-0.01880942,-0.01261630,0.0
 1163896,0.00831384,0.19878796,0.10924388,-0.16536721,-0.21137919,-0.10
 764037,0.17832225,-0.18442182,-0.12579562,-0.09092076,0.00468287,-0.00
 047744,0.00124344,-0.00113066,0.00262582,-0.00069608,-0.00248443,-0.01
 215582,-0.01035438,-0.00447957,0.00336791,-0.00271561,-0.00070440,-0.0
 0181334,0.00243672,0.18909724,-0.12441519,-0.13326045,-0.07232241,0.00
 095570,0.00321877,0.00267869,0.00082841,-0.00265025,0.00104790,-0.0145
 8410,-0.00624814,-0.00775661,0.00494321,-0.00176102,0.00376454,0.00110
 547,0.00163878,-0.00319304,0.13408340,0.13989291,-0.09537856,-0.073121
 80,-0.11688907,-0.01928413,-0.01447912,-0.00763189,0.00064989,-0.00089
 807,0.00000398,0.01030097,0.00879901,0.01295805,0.00136971,-0.00062954
 ,0.00164107,0.00125519,0.00042142,-0.00158358,0.09954908,0.07755325,0.
 11428771,-0.01513250,-0.02555594,-0.00598750,-0.00190594,0.00438164,-0
 .00047666,0.00164912,0.01248446,0.00491988,-0.08221824,-0.03914963,-0.
 02569479,-0.00224035,0.00609957,-0.00086046,0.00149811,-0.00441585,-0.
 00002406,0.00241665,-0.00604181,0.00076510,0.53096662,-0.00957123,-0.0
 1598981,-0.01104878,0.00148251,-0.00022595,-0.00120856,-0.00139913,-0.
 01974736,-0.00785532,-0.04862238,-0.13792798,-0.03129208,0.00050606,-0
 .00344512,0.00088687,-0.00146250,0.00652881,-0.00011659,-0.00166676,0.
 00159780,0.00127852,-0.02751112,0.49631109,0.00829024,0.01126019,0.012
 31026,0.00093638,0.00038985,0.00080668,-0.00023828,-0.00778534,-0.0028
 4716,-0.02837980,-0.03383227,-0.10802841,0.00087266,0.00138882,-0.0012
 3548,-0.00144899,0.00137135,0.00111715,0.00217233,0.00300522,-0.002111
 39,-0.01780932,-0.04384374,0.54948615,-0.00112939,-0.00126156,-0.00237
 491,-0.00003735,0.00014847,-0.00001074,-0.00079089,0.00164641,0.000243
 93,-0.00899885,-0.00523744,0.00622755,-0.00017053,0.00007865,0.0001108
 6,0.00110129,-0.00152671,-0.00022845,0.00005737,-0.00059290,0.00049779
 ,-0.21142899,-0.06309739,0.10700443,0.22850180,-0.00375329,-0.00259608
 ,-0.00357710,0.00003613,0.00031499,-0.00013844,-0.00205611,0.00157192,
 0.00090268,-0.01796934,-0.01100570,0.01389145,-0.00028779,0.00036119,0
 .00006669,0.00137422,-0.00125451,-0.00026250,-0.00033957,-0.00134862,0
 .00059945,-0.06233369,-0.07063234,0.04072771,0.07216738,0.07860933,-0.
 00142286,-0.00178983,-0.00156947,-0.00014394,-0.00023892,0.00022331,-0
 .00032608,0.00045721,0.00054343,-0.01313456,-0.00474536,0.00914179,0.0
 0012369,0.00023455,-0.00009711,-0.00006417,-0.00014872,0.00002244,-0.0
 0025193,-0.00067911,0.00043474,0.10747100,0.04170273,-0.11884970,-0.11
 781268,-0.04319177,0.12569813,0.00128435,0.00030973,-0.00150812,0.0002
 2384,-0.00026611,0.00017966,-0.00058084,-0.00118944,-0.00060596,0.0097
 1774,-0.01456015,-0.00112228,0.00056330,-0.00069855,-0.00002275,0.0002
 0840,-0.00029774,0.00019132,-0.00056940,0.00063358,0.00010638,-0.14869
 429,0.12448878,0.01651745,-0.01662891,0.01987712,0.00158580,0.16059734
 ,0.00134734,0.00243647,-0.00246199,0.00062176,-0.00087493,0.00004316,-
 0.00210054,-0.00173173,-0.00095683,0.00987414,-0.02218870,-0.00255936,
 0.00112871,-0.00156653,-0.00000570,-0.00022951,0.00007277,0.00039474,-
 0.00078515,0.00062441,0.00018023,0.12598382,-0.19632204,-0.01903964,-0
 .00617121,0.00870550,0.00060245,-0.13503297,0.21688880,0.00078025,0.00
 196550,-0.00103010,0.00014393,-0.00016017,0.00006542,-0.00031077,-0.00
 218712,-0.00039770,0.00655494,-0.01231835,-0.00155163,0.00040676,-0.00
 137046,0.00025857,-0.00018355,0.00091404,-0.00016898,-0.00009703,0.000
 12151,0.00007200,0.01757490,-0.02025504,-0.05000885,0.01120084,-0.0138
 7395,-0.00207739,-0.01733222,0.02440286,0.04977050,0.00075261,0.000994
 33,-0.00097711,-0.00025441,-0.00044953,0.00050955,0.00014850,-0.000085
 07,0.00029783,-0.00625058,0.00474042,-0.01292262,0.00052763,-0.0001991
 0,-0.00017573,-0.00047701,-0.00012255,0.00021085,0.00012692,0.00008170
 ,0.00023980,-0.07088319,0.02287742,-0.07364190,0.00943229,-0.00730646,
 0.02411359,-0.00651981,0.00543455,-0.01919368,0.07361260,0.00041551,0.
 00138463,-0.00072270,-0.00014649,0.00003514,0.00051897,-0.00044739,0.0
 0088593,-0.00009414,-0.00831241,0.00671787,-0.02576299,0.00008536,0.00
 016639,-0.00000831,0.00029199,-0.00043442,0.00006742,0.00036937,0.0000
 0093,0.00000345,0.02365441,-0.06768577,0.07104144,0.00363435,-0.003599
 01,0.00793113,0.00622850,-0.00693359,0.02292268,-0.02314963,0.07367729
 ,0.00135997,0.00147986,0.00051880,-0.00048222,-0.00022101,0.00073147,-
 0.00044222,0.00057964,-0.00020818,-0.00441339,0.00372186,-0.01457243,0
 .00005700,-0.00037082,0.00015346,0.00047177,-0.00034489,0.00002942,0.0
 0021258,-0.00023046,0.00013171,-0.07379188,0.06886998,-0.26414485,-0.0
 0510821,0.00451084,-0.01442059,0.00132519,-0.00085896,0.00443386,0.081
 91965,-0.07416634,0.28676447,0.00716008,-0.00526854,0.02382003,-0.0003
 3372,-0.00655077,0.00222104,-0.01076811,0.01296810,-0.01519448,-0.0736
 7717,0.00213588,-0.02563172,-0.00225701,0.00316309,-0.00036214,0.00309
 596,-0.00503807,0.00122529,-0.00251231,0.00115539,-0.00001071,-0.00454
 857,0.00103939,-0.01101811,-0.00069675,0.00000269,-0.00093084,0.000658
 69,0.00071690,0.00114493,-0.00054619,-0.00146981,-0.00020821,0.5809662
 9,0.01163544,0.00298113,0.01763391,-0.00469095,0.00022445,0.00051373,0
 .00883460,-0.00880112,0.01237045,-0.00806131,-0.08922166,0.03492963,0.
 00091869,-0.00807929,0.00233703,-0.00102601,0.00565337,-0.00301358,0.0
 0053381,-0.00268279,0.00139521,-0.00702081,0.00488505,-0.02379779,-0.0
 0032915,0.00037596,-0.00037701,-0.00013156,-0.00019901,-0.00105827,-0.
 00265530,-0.00409030,-0.00292593,-0.03404952,0.53885335,0.00204877,0.0
 1845076,-0.02698191,-0.00194633,0.00240629,0.00081512,-0.00479097,0.00
 449826,-0.00320940,-0.02102191,0.02988392,-0.14319679,0.00042592,-0.00
 667003,0.00201395,0.00237738,-0.00019006,-0.00164920,-0.00004123,-0.00
 353522,0.00013381,-0.00672376,-0.00290975,-0.01132297,0.00141475,0.001
 16576,0.00093653,0.00040445,0.00098170,0.00071401,0.00080899,0.0005231
 5,0.00117599,-0.05356077,-0.01722474,0.44194702,0.00010446,-0.00176697
 ,0.00090601,0.00005575,0.00000399,-0.00006465,-0.00015513,0.00084191,-
 0.00120404,-0.00271753,0.00459419,-0.00254251,-0.00033972,0.00114403,-
 0.00024578,0.00051623,-0.00103542,0.00021499,-0.00032071,0.00032824,-0
 .00007448,0.00003066,0.00038920,0.00023661,-0.00004100,0.00009554,0.00
 008154,-0.00004641,-0.00042842,-0.00048636,0.00019872,-0.00026993,-0.0
 0008092,-0.19162045,0.13280430,0.00480574,0.19806225,0.00038191,0.0009
 2951,-0.00051034,-0.00018858,0.00015969,0.00012808,-0.00027529,0.00047
 936,0.00056819,0.00647778,-0.00467943,0.00379350,0.00034468,-0.0000367
 9,-0.00011529,-0.00013292,-0.00040117,0.00026914,0.00018567,-0.0003639
 1,-0.00017496,-0.00005325,0.00023577,0.00020428,0.00001276,0.00006806,
 -0.00001174,0.00032585,0.00035708,0.00024808,-0.00003516,0.00021177,0.
 00020869,0.12073617,-0.16239255,-0.00068674,-0.13577394,0.19129771,-0.
 00274647,-0.00296865,0.00172178,0.00084506,-0.00091657,-0.00009094,-0.
 00065603,0.00125902,-0.00314495,-0.02002387,0.02235819,-0.00672628,-0.
 00126059,0.00228973,-0.00004893,0.00047082,-0.00028965,0.00029469,-0.0
 0050296,0.00100540,-0.00010161,0.00045865,0.00088033,0.00138508,-0.000
 01538,-0.00020639,-0.00013885,0.00016368,-0.00072537,-0.00005327,0.000
 44701,-0.00007148,0.00013355,-0.00113331,0.00472690,-0.04625334,0.0010
 1115,0.00629758,0.05565850,0.00001265,0.00012679,-0.00220808,0.0002478
 7,0.00058692,-0.00021619,0.00043552,0.00026970,-0.00031036,0.00768839,
 0.00402033,-0.00625975,-0.00006050,-0.00011317,0.00011405,0.00036140,-
 0.00052971,0.00011263,0.00020740,0.00009176,-0.00021434,0.00042177,0.0
 0038652,0.00031010,0.00027516,0.00009100,0.00032171,-0.00019112,-0.000
 01667,0.00006956,0.00025027,0.00025961,0.00011353,-0.19798620,-0.05898
 892,0.10065822,-0.01814137,-0.00673403,0.01339588,0.21524835,0.0003043
 3,0.00122094,0.00121832,-0.00014273,-0.00029544,0.00022412,-0.00152475
 ,0.00065487,0.00033705,-0.00555690,-0.00295868,0.00825640,0.00007457,0
 .00025044,-0.00010750,0.00047784,-0.00067137,-0.00008945,0.00007629,-0
 .00001612,-0.00058982,0.00000881,0.00028974,-0.00031933,0.00016641,0.0
 0038038,0.00003404,0.00010644,0.00009695,0.00000652,0.00024105,-0.0000
 1841,-0.00002990,-0.05513140,-0.07697111,0.04088660,0.01692073,0.00950
 619,-0.01093031,0.07465334,0.08912270,-0.00217020,-0.00083888,-0.00600
 313,0.00044505,0.00161863,-0.00062571,0.00241447,-0.00214611,0.0003366
 7,0.02112929,0.01340259,-0.01719432,0.00050820,-0.00029097,-0.00011206
 ,-0.00187863,0.00195596,0.00030581,0.00026302,-0.00027244,0.00021641,0
 .00133824,0.00074674,0.00075105,-0.00091197,-0.00061292,-0.00014304,-0
 .00009088,-0.00014299,-0.00007274,-0.00032521,-0.00003012,0.00036263,0
 .10177437,0.04138141,-0.11787626,0.00073152,0.00039974,0.00087548,-0.1
 0352155,-0.04421521,0.12839413,-0.00066379,-0.00154995,0.00160290,0.00
 057565,0.00048483,0.00011177,0.00114919,-0.00157867,0.00102293,-0.0059
 8434,-0.01497319,-0.01152658,-0.00026013,0.00042016,0.00030439,0.00019
 073,0.00018155,-0.00054083,0.00025390,0.00127324,-0.00031359,0.0001842
 3,0.00211550,-0.00339986,0.00057766,0.00047897,0.00039122,0.00003077,-
 0.00043398,-0.00030329,-0.00002874,-0.00106253,-0.00085494,-0.11752405
 ,-0.01903677,-0.01912111,0.01374411,0.01747569,0.01104731,-0.00960036,
 -0.02932115,-0.01943046,0.41373450,-0.00388269,-0.00395025,0.00261360,
 0.00140435,0.00114272,0.00026491,0.00040651,-0.00064536,0.00069296,-0.
 00098965,-0.00271941,-0.01104395,-0.00015383,0.00288427,-0.00068538,-0
 .00108885,0.00016607,0.00079245,0.00198356,0.00100347,-0.00015394,-0.0
 0069724,0.00230865,-0.00147201,0.00049765,0.00017722,0.00028972,0.0001
 9668,0.00055103,0.00054976,-0.00040106,-0.00052718,-0.00042786,-0.0611
 4600,-0.17136312,-0.06227311,-0.01356328,-0.03110995,-0.01956850,-0.01
 481311,-0.02198978,-0.01257028,-0.16558896,0.46958845,0.00050630,-0.00
 161113,0.00056469,-0.00134457,-0.00066992,0.00004128,0.00306040,-0.002
 42695,0.00074370,-0.01980037,-0.03476756,-0.02133965,0.00036192,0.0010
 6730,-0.00085521,-0.00189723,0.00112526,0.00101978,-0.00105029,-0.0010
 4452,-0.00089507,-0.00047061,0.00414001,-0.00724583,-0.00041719,-0.000
 08355,0.00030642,0.00012165,-0.00023435,-0.00012940,-0.00126766,-0.002
 20970,-0.00111938,-0.03722004,-0.05021940,-0.09258682,-0.00168181,-0.0
 0857700,-0.00285423,-0.00147532,0.00438740,0.00988701,0.02129030,0.145
 96310,0.13290199,0.00026414,0.00010563,0.00016175,-0.00014204,-0.00006
 089,-0.00010075,0.00075060,-0.00105475,-0.00056879,-0.00007530,-0.0010
 9744,-0.00025542,0.00026871,0.00014062,-0.00077066,-0.00093513,0.00084
 806,0.00120746,-0.00021907,0.00015390,0.00054191,-0.00011511,0.0000451
 2,-0.00040395,-0.00002291,-0.00007681,-0.00000149,-0.00005365,0.000091
 22,0.00003078,-0.00008963,-0.00008091,-0.00007769,0.01058953,-0.018736
 54,-0.00573815,0.00067013,-0.00274733,-0.00150094,0.00083075,-0.001352
 89,-0.00027526,-0.29637934,0.25783593,0.04128453,0.28465832,0.00044748
 ,0.00066206,-0.00015429,0.00007091,-0.00021609,0.00005941,-0.00057606,
 0.00054591,-0.00070622,-0.00025494,0.00249079,0.00022760,-0.00062712,-
 0.00105954,0.00068017,0.00079241,0.00032936,-0.00065087,-0.00019216,0.
 00035423,-0.00018330,0.00016664,-0.00018057,0.00070126,-0.00013571,-0.
 00012829,-0.00006939,0.00000982,0.00008351,0.00009240,0.00003439,0.000
 20873,0.00020531,0.02673651,-0.02917236,-0.00530679,-0.00428417,-0.004
 26132,-0.00314025,0.00070965,0.00139869,0.00161485,0.21111527,-0.24551
 682,-0.05483898,-0.23401291,0.27446170,-0.00000180,-0.00011109,-0.0006
 4012,0.00013364,0.00028394,0.00011368,-0.00090441,-0.00065045,-0.00088
 969,0.00185684,-0.00155831,0.00068563,0.00053074,0.00070399,-0.0007240
 0,-0.00067611,0.00021442,0.00097022,0.00075309,-0.00014272,-0.00066688
 ,-0.00068873,0.00002467,-0.00006172,0.00017939,0.00008206,-0.00001064,
 0.00008664,0.00038006,0.00017570,-0.00004336,0.00005752,0.00003005,0.0
 1508468,-0.01667154,-0.00465974,-0.00160701,-0.00204121,-0.00065668,-0
 .00089009,0.00093105,0.00089805,0.01971985,-0.04297147,-0.01843928,-0.
 03353333,0.06146909,0.02387541\\-0.00000127,0.00000704,-0.00000801,0.0
 0000161,-0.00000746,-0.00000301,-0.00000142,-0.00000857,-0.00000538,-0
 .00000266,-0.00000095,0.00000784,0.00000931,0.00000001,-0.00000434,0.0
 0000055,0.00001060,0.00000604,0.00000536,-0.00000681,-0.00000497,-0.00
 000526,0.00000084,0.00000412,-0.00000617,0.00000422,0.00000469,-0.0000
 0885,-0.00000184,0.00000408,-0.00000565,-0.00000011,0.00000277,0.00000
 227,-0.00000078,-0.00000238,-0.00000134,-0.00000279,-0.00000070,0.0000
 0110,0.00000360,0.00000191,0.00000261,0.00000171,-0.00000200,0.0000098
 0,0.00000127,-0.00000067\\\@


 KINETICS       FACT
 ---------  =  -------
 MECHANISM     FICTION
 Job cpu time:  0 days  1 hours  7 minutes 10.2 seconds.
 File lengths (MBytes):  RWF=    125 Int=      0 D2E=      0 Chk=      8 Scr=      1
 Normal termination of Gaussian 03 at Tue Jun 18 11:08:47 2013.
