 Entering Gaussian System, Link 0=g03
 Input=TS3freq.gjf
 Output=TS3freq.log
 Initial command:
 /opt/g03/l1.exe /scratch/nyee/Gau-32192.inp -scrdir=/scratch/nyee/
 Entering Link 1 = /opt/g03/l1.exe PID=     32194.
  
 Copyright (c) 1988,1990,1992,1993,1995,1998,2003,2004, Gaussian, Inc.
                  All Rights Reserved.
  
 This is the Gaussian(R) 03 program.  It is based on the
 the Gaussian(R) 98 system (copyright 1998, Gaussian, Inc.),
 the Gaussian(R) 94 system (copyright 1995, Gaussian, Inc.),
 the Gaussian 92(TM) system (copyright 1992, Gaussian, Inc.),
 the Gaussian 90(TM) system (copyright 1990, Gaussian, Inc.),
 the Gaussian 88(TM) system (copyright 1988, Gaussian, Inc.),
 the Gaussian 86(TM) system (copyright 1986, Carnegie Mellon
 University), and the Gaussian 82(TM) system (copyright 1983,
 Carnegie Mellon University). Gaussian is a federally registered
 trademark of Gaussian, Inc.
  
 This software contains proprietary and confidential information,
 including trade secrets, belonging to Gaussian, Inc.
  
 This software is provided under written license and may be
 used, copied, transmitted, or stored only in accord with that
 written license.
  
 The following legend is applicable only to US Government
 contracts under FAR:
  
                    RESTRICTED RIGHTS LEGEND
  
 Use, reproduction and disclosure by the US Government is
 subject to restrictions as set forth in subparagraphs (a)
 and (c) of the Commercial Computer Software - Restricted
 Rights clause in FAR 52.227-19.
  
 Gaussian, Inc.
 340 Quinnipiac St., Bldg. 40, Wallingford CT 06492
  
  
 ---------------------------------------------------------------
 Warning -- This program may not be used in any manner that
 competes with the business of Gaussian, Inc. or will provide
 assistance to any competitor of Gaussian, Inc.  The licensee
 of this program is prohibited from giving any competitor of
 Gaussian, Inc. access to this program.  By using this program,
 the user acknowledges that Gaussian, Inc. is engaged in the
 business of creating and licensing software in the field of
 computational chemistry and represents and warrants to the
 licensee that it is not a competitor of Gaussian, Inc. and that
 it will not use this program in any manner prohibited above.
 ---------------------------------------------------------------
  

 Cite this work as:
 Gaussian 03, Revision D.01,
 M. J. Frisch, G. W. Trucks, H. B. Schlegel, G. E. Scuseria, 
 M. A. Robb, J. R. Cheeseman, J. A. Montgomery, Jr., T. Vreven, 
 K. N. Kudin, J. C. Burant, J. M. Millam, S. S. Iyengar, J. Tomasi, 
 V. Barone, B. Mennucci, M. Cossi, G. Scalmani, N. Rega, 
 G. A. Petersson, H. Nakatsuji, M. Hada, M. Ehara, K. Toyota, 
 R. Fukuda, J. Hasegawa, M. Ishida, T. Nakajima, Y. Honda, O. Kitao, 
 H. Nakai, M. Klene, X. Li, J. E. Knox, H. P. Hratchian, J. B. Cross, 
 V. Bakken, C. Adamo, J. Jaramillo, R. Gomperts, R. E. Stratmann, 
 O. Yazyev, A. J. Austin, R. Cammi, C. Pomelli, J. W. Ochterski, 
 P. Y. Ayala, K. Morokuma, G. A. Voth, P. Salvador, J. J. Dannenberg, 
 V. G. Zakrzewski, S. Dapprich, A. D. Daniels, M. C. Strain, 
 O. Farkas, D. K. Malick, A. D. Rabuck, K. Raghavachari, 
 J. B. Foresman, J. V. Ortiz, Q. Cui, A. G. Baboul, S. Clifford, 
 J. Cioslowski, B. B. Stefanov, G. Liu, A. Liashenko, P. Piskorz, 
 I. Komaromi, R. L. Martin, D. J. Fox, T. Keith, M. A. Al-Laham, 
 C. Y. Peng, A. Nanayakkara, M. Challacombe, P. M. W. Gill, 
 B. Johnson, W. Chen, M. W. Wong, C. Gonzalez, and J. A. Pople, 
 Gaussian, Inc., Wallingford CT, 2004.
 
 ******************************************
 Gaussian 03:  AM64L-G03RevD.01 13-Oct-2005
                 9-Jun-2013 
 ******************************************
 %chk=TS3freq.chk
 %mem=1000mb
 %nproc=8
 Will use up to    8 processors via shared memory.
 -------------------------------------
 # freq nosymm b3lyp/cbsb7 iop(7/33=1)
 -------------------------------------
 1/10=4,30=1,38=1/1,3;
 2/15=1,17=6,18=5,40=1/2;
 3/5=4,6=6,7=700,11=2,16=1,25=1,30=1,74=-5/1,2,3;
 4//1;
 5/5=2,38=5/2;
 8/6=4,10=90,11=11/1;
 11/6=1,8=1,9=11,15=111,16=1,31=1/1,2,10;
 10/6=1,31=1/2;
 6/7=2,8=2,9=2,10=2,18=1,28=1/1;
 7/8=1,10=1,25=1,30=1,33=1/1,2,3,16;
 1/10=4,30=1/3;
 99//99;
 -------------------
 Title Card Required
 -------------------
 Symbolic Z-matrix:
 Charge =  0 Multiplicity = 2
 C                    -2.06647   0.91567   0.3576 
 C                    -1.48258   1.41081   1.52172 
 H                    -2.03783   2.05671   2.19153 
 H                    -0.434     1.24257   1.73776 
 C                    -1.35371  -0.14023  -0.44537 
 H                    -1.36968  -1.08676   0.10495 
 H                    -1.85166  -0.2927   -1.4017 
 H                    -0.31553   0.13995  -0.6247 
 O                    -1.87892   2.47536  -0.741 
 O                    -0.68667   2.46856  -1.47402 
 H                    -0.16168   3.14462  -1.02218 
 C                    -3.58592   0.93231   0.25687 
 H                    -3.96208   1.83495   0.75879 
 H                    -3.98196   0.06449   0.79402 
 O                    -4.05995   0.83649  -1.06965 
 H                    -3.59901   1.53486  -1.55389 
 

 GradGradGradGradGradGradGradGradGradGradGradGradGradGradGradGradGradGrad
 Berny optimization.
 Initialization pass.
 Trust Radius=3.00D-01 FncErr=1.00D-07 GrdErr=1.00D-07
 Number of steps in this run=   2 maximum allowed number of steps=   2.
 GradGradGradGradGradGradGradGradGradGradGradGradGradGradGradGradGradGrad

                          Input orientation:                          
 ---------------------------------------------------------------------
 Center     Atomic     Atomic              Coordinates (Angstroms)
 Number     Number      Type              X           Y           Z
 ---------------------------------------------------------------------
    1          6             0       -2.066466    0.915674    0.357595
    2          6             0       -1.482578    1.410812    1.521716
    3          1             0       -2.037834    2.056710    2.191531
    4          1             0       -0.434003    1.242569    1.737760
    5          6             0       -1.353714   -0.140226   -0.445370
    6          1             0       -1.369681   -1.086760    0.104947
    7          1             0       -1.851657   -0.292701   -1.401701
    8          1             0       -0.315525    0.139946   -0.624698
    9          8             0       -1.878915    2.475359   -0.741001
   10          8             0       -0.686667    2.468556   -1.474021
   11          1             0       -0.161682    3.144623   -1.022182
   12          6             0       -3.585921    0.932313    0.256867
   13          1             0       -3.962083    1.834952    0.758787
   14          1             0       -3.981960    0.064493    0.794018
   15          8             0       -4.059946    0.836490   -1.069647
   16          1             0       -3.599013    1.534857   -1.553890
 ---------------------------------------------------------------------
                    Distance matrix (angstroms):
                    1          2          3          4          5
     1  C    0.000000
     2  C    1.393293   0.000000
     3  H    2.160117   1.083580   0.000000
     4  H    2.162557   1.083739   1.854995   0.000000
     5  C    1.505886   2.508337   3.499685   2.743000   0.000000
     6  H    2.135201   2.873647   3.831666   2.994553   1.095002
     7  H    2.145096   3.403607   4.297175   3.771341   1.088928
     8  H    2.152312   2.753944   3.817261   2.609794   1.090179
     9  O    1.916952   2.531844   2.966524   3.122787   2.684123
    10  O    2.769495   3.275170   3.928300   3.447089   2.882502
    11  H    3.240401   3.349968   3.877042   3.362923   3.541735
    12  C    1.522881   2.500571   2.720986   3.496268   2.574145
    13  H    2.144619   2.628669   2.409287   3.708996   3.486389
    14  H    2.141049   2.930705   3.114739   3.855711   2.913017
    15  O    2.453009   3.699707   4.026556   4.603683   2.944043
    16  H    2.527026   3.735510   4.091184   4.575771   3.012655
                    6          7          8          9         10
     6  H    0.000000
     7  H    1.769977   0.000000
     8  H    1.774383   1.774998   0.000000
     9  O    3.696436   2.845949   2.812804   0.000000
    10  O    3.949673   2.997828   2.506296   1.399578   0.000000
    11  H    4.542497   3.849058   3.034756   1.864368   0.967902
    12  C    3.001909   2.694286   3.478576   2.508107   3.709675
    13  H    3.960361   3.694389   4.252583   2.645576   4.014379
    14  H    2.936699   3.080091   3.932072   3.548430   4.667170
    15  O    3.509428   2.502373   3.834559   2.747871   3.769107
    16  H    3.820280   2.533058   3.686525   2.122279   3.059401
                   11         12         13         14         15
    11  H    0.000000
    12  C    4.272668   0.000000
    13  H    4.396605   1.099172   0.000000
    14  H    5.232620   1.094756   1.770921   0.000000
    15  O    4.530584   1.411921   2.085587   2.018739   0.000000
    16  H    3.832663   1.908421   2.360159   2.796657   0.966782
                   16
    16  H    0.000000
 Symmetry turned off by external request.
 Stoichiometry    C4H9O3(2)
 Framework group  C1[X(C4H9O3)]
 Deg. of freedom    42
 Full point group                 C1
 Rotational constants (GHZ):      2.9879956      2.1639377      1.7871048
 Standard basis: CBSB7 (5D, 7F)
 Integral buffers will be    131072 words long.
 Raffenetti 2 integral format.
 Two-electron integral symmetry is turned off.
   180 basis functions,   296 primitive gaussians,   187 cartesian basis functions
    29 alpha electrons       28 beta electrons
       nuclear repulsion energy       329.9141625397 Hartrees.
 NAtoms=   16 NActive=   16 NUniq=   16 SFac= 7.50D-01 NAtFMM=   80 NAOKFM=F Big=F
 One-electron integrals computed using PRISM.
 NBasis=   180 RedAO= T  NBF=   180
 NBsUse=   180 1.00D-06 NBFU=   180
 Harris functional with IExCor=  402 diagonalized for initial guess.
 ExpMin= 1.03D-01 ExpMax= 8.59D+03 ExpMxC= 1.30D+03 IAcc=1 IRadAn=         1 AccDes= 1.00D-06
 HarFok:  IExCor= 402 AccDes= 1.00D-06 IRadAn=         1 IDoV=1
 ScaDFX=  1.000000  1.000000  1.000000  1.000000
 <S**2> of initial guess= 0.7500
 Requested convergence on RMS density matrix=1.00D-08 within 128 cycles.
 Requested convergence on MAX density matrix=1.00D-06.
 Requested convergence on             energy=1.00D-06.
 No special actions if energy rises.
 Integral accuracy reduced to 1.0D-05 until final iterations.
 Initial convergence to 1.0D-05 achieved.  Increase integral accuracy.
 SCF Done:  E(UB+HF-LYP) =  -383.444624271     A.U. after   20 cycles
             Convg  =    0.3413D-08             -V/T =  2.0032
             S**2   =   0.7774
 Annihilation of the first spin contaminant:
 S**2 before annihilation     0.7774,   after     0.7501
 Range of M.O.s used for correlation:     1   180
 NBasis=   180 NAE=    29 NBE=    28 NFC=     0 NFV=     0
 NROrb=    180 NOA=    29 NOB=    28 NVA=   151 NVB=   152
 Symmetrizing basis deriv contribution to polar:
 IMax=3 JMax=2 DiffMx= 0.00D+00
 G2DrvN: will do   17 centers at a time, making    1 passes doing MaxLOS=2.
 FoFDir/FoFCou used for L=0 through L=2.
 DoAtom=TTTTTTTTTTTTTTTT
          Differentiating once with respect to electric field.
                with respect to dipole field.
          Differentiating once with respect to nuclear coordinates.
 Symmetry not used in FoFDir.
 MinBra= 0 MaxBra= 2 Meth= 1.
 IRaf=       0 NMat=  51 IRICut=      51 DoRegI=T DoRafI=T ISym2E= 0 JSym2E=0.
          There are  51 degrees of freedom in the 1st order CPHF.
    48 vectors were produced by pass  0.
 AX will form  48 AO Fock derivatives at one time.
    48 vectors were produced by pass  1.
    48 vectors were produced by pass  2.
    48 vectors were produced by pass  3.
    48 vectors were produced by pass  4.
    48 vectors were produced by pass  5.
    27 vectors were produced by pass  6.
     5 vectors were produced by pass  7.
     3 vectors were produced by pass  8.
 Inv2:  IOpt= 1 Iter= 1 AM= 2.77D-15 Conv= 1.00D-12.
 Inverted reduced A of dimension  323 with in-core refinement.
 Isotropic polarizability for W=    0.000000       66.85 Bohr**3.
 End of Minotr Frequency-dependent properties file   721 does not exist.

 **********************************************************************

            Population analysis using the SCF density.

 **********************************************************************

 Alpha  occ. eigenvalues --  -19.18526 -19.17598 -19.10632 -10.22575 -10.22117
 Alpha  occ. eigenvalues --  -10.18950 -10.16613  -1.12940  -1.01942  -0.86870
 Alpha  occ. eigenvalues --   -0.80965  -0.70413  -0.68366  -0.56502  -0.52413
 Alpha  occ. eigenvalues --   -0.50523  -0.47814  -0.47394  -0.44666  -0.43272
 Alpha  occ. eigenvalues --   -0.42129  -0.39619  -0.38268  -0.37588  -0.33417
 Alpha  occ. eigenvalues --   -0.30028  -0.28840  -0.27413  -0.23173
 Alpha virt. eigenvalues --   -0.00244   0.03089   0.04875   0.07535   0.08326
 Alpha virt. eigenvalues --    0.08776   0.09546   0.11157   0.12318   0.13296
 Alpha virt. eigenvalues --    0.16028   0.18808   0.20562   0.25243   0.25894
 Alpha virt. eigenvalues --    0.31625   0.32909   0.34112   0.36834   0.38004
 Alpha virt. eigenvalues --    0.40226   0.42544   0.43988   0.45399   0.48005
 Alpha virt. eigenvalues --    0.49264   0.55249   0.55732   0.57465   0.58612
 Alpha virt. eigenvalues --    0.59213   0.59940   0.60972   0.63204   0.64462
 Alpha virt. eigenvalues --    0.67265   0.72749   0.75410   0.77133   0.81230
 Alpha virt. eigenvalues --    0.85003   0.86454   0.88721   0.90942   0.92181
 Alpha virt. eigenvalues --    0.95298   1.00074   1.00898   1.03439   1.06856
 Alpha virt. eigenvalues --    1.10019   1.13847   1.23933   1.25958   1.30360
 Alpha virt. eigenvalues --    1.31310   1.35603   1.36640   1.39978   1.42548
 Alpha virt. eigenvalues --    1.43027   1.44546   1.48029   1.49804   1.51621
 Alpha virt. eigenvalues --    1.52936   1.54833   1.57367   1.60073   1.61544
 Alpha virt. eigenvalues --    1.62237   1.66274   1.68178   1.70424   1.71164
 Alpha virt. eigenvalues --    1.73577   1.76525   1.79276   1.88510   1.90441
 Alpha virt. eigenvalues --    1.93343   1.95557   1.96706   2.02445   2.03641
 Alpha virt. eigenvalues --    2.08568   2.12355   2.16320   2.18617   2.24581
 Alpha virt. eigenvalues --    2.27798   2.35531   2.37969   2.38477   2.41390
 Alpha virt. eigenvalues --    2.45495   2.48661   2.49176   2.50994   2.53515
 Alpha virt. eigenvalues --    2.55407   2.57253   2.58427   2.59604   2.63822
 Alpha virt. eigenvalues --    2.65234   2.68058   2.72526   2.74129   2.76262
 Alpha virt. eigenvalues --    2.80645   2.86781   2.89023   2.91408   2.95662
 Alpha virt. eigenvalues --    3.08809   3.13874   3.15205   3.17947   3.20501
 Alpha virt. eigenvalues --    3.25864   3.30073   3.33708   3.39847   3.61924
 Alpha virt. eigenvalues --    3.67607   3.69679   3.72193   3.79445   3.81212
 Alpha virt. eigenvalues --    3.82686   3.89783   3.94362   4.22489   4.27426
 Alpha virt. eigenvalues --    4.67968   4.75569   4.88253   4.91325   4.92963
 Alpha virt. eigenvalues --    5.29010   5.36038   5.63811   5.73937  23.69589
 Alpha virt. eigenvalues --   23.79535  23.93130  24.04107  49.74065  49.76858
 Alpha virt. eigenvalues --   49.91309
  Beta  occ. eigenvalues --  -19.18272 -19.16279 -19.10623 -10.22771 -10.22097
  Beta  occ. eigenvalues --  -10.18022 -10.16597  -1.11559  -1.01916  -0.85148
  Beta  occ. eigenvalues --   -0.79885  -0.69942  -0.67415  -0.56088  -0.51851
  Beta  occ. eigenvalues --   -0.50264  -0.47172  -0.47012  -0.43885  -0.41961
  Beta  occ. eigenvalues --   -0.41830  -0.38231  -0.37840  -0.37445  -0.33321
  Beta  occ. eigenvalues --   -0.27935  -0.27492  -0.25943
  Beta virt. eigenvalues --   -0.11114   0.01081   0.03576   0.05331   0.07920
  Beta virt. eigenvalues --    0.08589   0.09064   0.09804   0.11371   0.12518
  Beta virt. eigenvalues --    0.13355   0.16095   0.18788   0.20604   0.25206
  Beta virt. eigenvalues --    0.25999   0.31738   0.33764   0.34692   0.37253
  Beta virt. eigenvalues --    0.38535   0.40320   0.42661   0.45043   0.46371
  Beta virt. eigenvalues --    0.49082   0.49816   0.55282   0.55836   0.57840
  Beta virt. eigenvalues --    0.58694   0.59276   0.60111   0.61084   0.63356
  Beta virt. eigenvalues --    0.65372   0.67589   0.73160   0.75925   0.77756
  Beta virt. eigenvalues --    0.81755   0.85564   0.86892   0.89257   0.91177
  Beta virt. eigenvalues --    0.92503   0.95578   1.00260   1.02160   1.03898
  Beta virt. eigenvalues --    1.08327   1.10782   1.13962   1.24069   1.26466
  Beta virt. eigenvalues --    1.30686   1.31648   1.35807   1.36861   1.40425
  Beta virt. eigenvalues --    1.42529   1.43422   1.44557   1.48034   1.50163
  Beta virt. eigenvalues --    1.52007   1.53172   1.54908   1.57665   1.60397
  Beta virt. eigenvalues --    1.61570   1.62775   1.66430   1.68752   1.70569
  Beta virt. eigenvalues --    1.71378   1.73983   1.76965   1.79376   1.89186
  Beta virt. eigenvalues --    1.90806   1.93462   1.96234   1.97395   2.02855
  Beta virt. eigenvalues --    2.03971   2.08976   2.12599   2.16618   2.18965
  Beta virt. eigenvalues --    2.24751   2.27943   2.35583   2.38059   2.38666
  Beta virt. eigenvalues --    2.41602   2.45655   2.48887   2.49690   2.51086
  Beta virt. eigenvalues --    2.53821   2.55963   2.57985   2.58699   2.60171
  Beta virt. eigenvalues --    2.64095   2.65707   2.69066   2.73131   2.75172
  Beta virt. eigenvalues --    2.78612   2.81694   2.86890   2.90547   2.92854
  Beta virt. eigenvalues --    2.96121   3.09480   3.14018   3.15485   3.18954
  Beta virt. eigenvalues --    3.21904   3.26162   3.31101   3.34306   3.39909
  Beta virt. eigenvalues --    3.62560   3.68268   3.69822   3.73430   3.79558
  Beta virt. eigenvalues --    3.81574   3.82719   3.89826   3.94375   4.22650
  Beta virt. eigenvalues --    4.27804   4.68503   4.77396   4.89462   4.92455
  Beta virt. eigenvalues --    4.96083   5.29061   5.36379   5.63830   5.74695
  Beta virt. eigenvalues --   23.69878  23.79534  23.93155  24.04681  49.74458
  Beta virt. eigenvalues --   49.78013  49.91338
          Condensed to atoms (all electrons):
              1          2          3          4          5          6
     1  C    5.481015   0.383733  -0.041973  -0.032057   0.309020  -0.033509
     2  C    0.383733   5.038603   0.410732   0.403118  -0.061784  -0.005235
     3  H   -0.041973   0.410732   0.551435  -0.037514   0.006989  -0.000157
     4  H   -0.032057   0.403118  -0.037514   0.554380  -0.007790   0.000214
     5  C    0.309020  -0.061784   0.006989  -0.007790   4.874992   0.396838
     6  H   -0.033509  -0.005235  -0.000157   0.000214   0.396838   0.575620
     7  H   -0.039709   0.010416  -0.000132  -0.000171   0.399557  -0.025623
     8  H   -0.029662  -0.007068  -0.000130   0.003269   0.393474  -0.027804
     9  O    0.043205  -0.026825   0.001095   0.000828  -0.027022   0.002469
    10  O   -0.032334   0.003744  -0.000084   0.001277  -0.006475  -0.000113
    11  H    0.001865   0.000569  -0.000004   0.000128  -0.000476  -0.000039
    12  C    0.317533  -0.050060  -0.006470   0.005373  -0.058074  -0.001046
    13  H   -0.045669  -0.002841   0.007305  -0.000226   0.010300  -0.000492
    14  H   -0.037367   0.000502  -0.000195  -0.000416  -0.007935   0.001809
    15  O   -0.040409   0.006403   0.000092  -0.000195  -0.008978  -0.000418
    16  H   -0.007826   0.000433  -0.000123  -0.000027  -0.000886  -0.000023
              7          8          9         10         11         12
     1  C   -0.039709  -0.029662   0.043205  -0.032334   0.001865   0.317533
     2  C    0.010416  -0.007068  -0.026825   0.003744   0.000569  -0.050060
     3  H   -0.000132  -0.000130   0.001095  -0.000084  -0.000004  -0.006470
     4  H   -0.000171   0.003269   0.000828   0.001277   0.000128   0.005373
     5  C    0.399557   0.393474  -0.027022  -0.006475  -0.000476  -0.058074
     6  H   -0.025623  -0.027804   0.002469  -0.000113  -0.000039  -0.001046
     7  H    0.546201  -0.025372   0.000685  -0.000636  -0.000043  -0.016029
     8  H   -0.025372   0.556859  -0.006954   0.020333  -0.000957   0.008043
     9  O    0.000685  -0.006954   8.291902   0.045331  -0.035134  -0.032762
    10  O   -0.000636   0.020333   0.045331   7.904227   0.284929   0.002999
    11  H   -0.000043  -0.000957  -0.035134   0.284929   0.478588  -0.000236
    12  C   -0.016029   0.008043  -0.032762   0.002999  -0.000236   4.703743
    13  H    0.002231  -0.000296  -0.000361  -0.000049  -0.000055   0.389742
    14  H   -0.001823  -0.000261   0.002481  -0.000118   0.000025   0.398751
    15  O    0.029408  -0.000304  -0.008348   0.000213  -0.000036   0.296504
    16  H   -0.001512   0.000033   0.027102  -0.001699   0.000406  -0.052591
             13         14         15         16
     1  C   -0.045669  -0.037367  -0.040409  -0.007826
     2  C   -0.002841   0.000502   0.006403   0.000433
     3  H    0.007305  -0.000195   0.000092  -0.000123
     4  H   -0.000226  -0.000416  -0.000195  -0.000027
     5  C    0.010300  -0.007935  -0.008978  -0.000886
     6  H   -0.000492   0.001809  -0.000418  -0.000023
     7  H    0.002231  -0.001823   0.029408  -0.001512
     8  H   -0.000296  -0.000261  -0.000304   0.000033
     9  O   -0.000361   0.002481  -0.008348   0.027102
    10  O   -0.000049  -0.000118   0.000213  -0.001699
    11  H   -0.000055   0.000025  -0.000036   0.000406
    12  C    0.389742   0.398751   0.296504  -0.052591
    13  H    0.619207  -0.041194  -0.030732  -0.007421
    14  H   -0.041194   0.587009  -0.030626   0.009723
    15  O   -0.030732  -0.030626   7.863442   0.319355
    16  H   -0.007421   0.009723   0.319355   0.469436
 Mulliken atomic charges:
              1
     1  C   -0.195857
     2  C   -0.104441
     3  H    0.109134
     4  H    0.109807
     5  C   -0.211750
     6  H    0.117508
     7  H    0.122553
     8  H    0.116799
     9  O   -0.277694
    10  O   -0.221545
    11  H    0.270470
    12  C    0.094581
    13  H    0.100551
    14  H    0.119635
    15  O   -0.395371
    16  H    0.245620
 Sum of Mulliken charges=   0.00000
 Atomic charges with hydrogens summed into heavy atoms:
              1
     1  C   -0.195857
     2  C    0.114500
     3  H    0.000000
     4  H    0.000000
     5  C    0.145109
     6  H    0.000000
     7  H    0.000000
     8  H    0.000000
     9  O   -0.277694
    10  O    0.048925
    11  H    0.000000
    12  C    0.314767
    13  H    0.000000
    14  H    0.000000
    15  O   -0.149751
    16  H    0.000000
 Sum of Mulliken charges=   0.00000
          Atomic-Atomic Spin Densities.
              1          2          3          4          5          6
     1  C   -0.148448   0.016604  -0.002771  -0.001729   0.009551   0.002052
     2  C    0.016604   0.729027   0.003694   0.003442  -0.009059   0.000417
     3  H   -0.002771   0.003694  -0.037497   0.003348  -0.000324  -0.000019
     4  H   -0.001729   0.003442   0.003348  -0.038100   0.000862   0.000000
     5  C    0.009551  -0.009059  -0.000324   0.000862   0.009855   0.000197
     6  H    0.002052   0.000417  -0.000019   0.000000   0.000197  -0.010384
     7  H    0.001020   0.000294   0.000026  -0.000033  -0.001888   0.000845
     8  H    0.003823  -0.000313  -0.000001  -0.000006  -0.000875   0.002106
     9  O   -0.046672  -0.046456   0.000100  -0.000204   0.001067  -0.000021
    10  O    0.007424   0.005944  -0.000020  -0.000054  -0.001846   0.000011
    11  H    0.000963   0.001264  -0.000003   0.000030  -0.000206   0.000006
    12  C    0.014603  -0.006672   0.001050  -0.000308   0.002477   0.000177
    13  H    0.001811  -0.000426  -0.000036   0.000014  -0.000171   0.000073
    14  H    0.001644   0.000879  -0.000039  -0.000001   0.000151  -0.000562
    15  O   -0.000213   0.000133  -0.000005   0.000004  -0.000999   0.000098
    16  H    0.002353   0.000294  -0.000014   0.000008   0.000165   0.000059
              7          8          9         10         11         12
     1  C    0.001020   0.003823  -0.046672   0.007424   0.000963   0.014603
     2  C    0.000294  -0.000313  -0.046456   0.005944   0.001264  -0.006672
     3  H    0.000026  -0.000001   0.000100  -0.000020  -0.000003   0.001050
     4  H   -0.000033  -0.000006  -0.000204  -0.000054   0.000030  -0.000308
     5  C   -0.001888  -0.000875   0.001067  -0.001846  -0.000206   0.002477
     6  H    0.000845   0.002106  -0.000021   0.000011   0.000006   0.000177
     7  H    0.001066  -0.001093   0.001366  -0.000629  -0.000069  -0.001306
     8  H   -0.001093  -0.004018  -0.001849   0.000332   0.000076  -0.000051
     9  O    0.001366  -0.001849   0.571816  -0.053085  -0.001656  -0.004761
    10  O   -0.000629   0.000332  -0.053085   0.119041   0.000614   0.000188
    11  H   -0.000069   0.000076  -0.001656   0.000614  -0.003034   0.000013
    12  C   -0.001306  -0.000051  -0.004761   0.000188   0.000013   0.007289
    13  H   -0.000033  -0.000031  -0.000257   0.000021  -0.000004  -0.000825
    14  H    0.000190   0.000080   0.000075  -0.000002  -0.000001  -0.000802
    15  O    0.000672  -0.000089   0.001206  -0.000052  -0.000009  -0.002835
    16  H   -0.000882   0.000073  -0.001850   0.000127   0.000036   0.001053
             13         14         15         16
     1  C    0.001811   0.001644  -0.000213   0.002353
     2  C   -0.000426   0.000879   0.000133   0.000294
     3  H   -0.000036  -0.000039  -0.000005  -0.000014
     4  H    0.000014  -0.000001   0.000004   0.000008
     5  C   -0.000171   0.000151  -0.000999   0.000165
     6  H    0.000073  -0.000562   0.000098   0.000059
     7  H   -0.000033   0.000190   0.000672  -0.000882
     8  H   -0.000031   0.000080  -0.000089   0.000073
     9  O   -0.000257   0.000075   0.001206  -0.001850
    10  O    0.000021  -0.000002  -0.000052   0.000127
    11  H   -0.000004  -0.000001  -0.000009   0.000036
    12  C   -0.000825  -0.000802  -0.002835   0.001053
    13  H   -0.002038   0.001202  -0.000002  -0.000212
    14  H    0.001202  -0.008919   0.000801   0.000122
    15  O   -0.000002   0.000801   0.005130  -0.001060
    16  H   -0.000212   0.000122  -0.001060   0.001325
 Mulliken atomic spin densities:
              1
     1  C   -0.137986
     2  C    0.699067
     3  H   -0.032509
     4  H   -0.032727
     5  C    0.008956
     6  H   -0.004944
     7  H   -0.000453
     8  H   -0.001835
     9  O    0.418819
    10  O    0.078015
    11  H   -0.001978
    12  C    0.009292
    13  H   -0.000913
    14  H   -0.005181
    15  O    0.002780
    16  H    0.001598
 Sum of Mulliken spin densities=   1.00000
 APT atomic charges:
              1
     1  C   -0.004161
     2  C   -0.057370
     3  H    0.031817
     4  H    0.030522
     5  C   -0.022069
     6  H    0.011199
     7  H    0.036775
     8  H    0.010553
     9  O    0.072271
    10  O   -0.438086
    11  H    0.249859
    12  C    0.441190
    13  H   -0.063398
    14  H   -0.015450
    15  O   -0.576647
    16  H    0.292996
 Sum of APT charges=   0.00000
 APT Atomic charges with hydrogens summed into heavy atoms:
              1
     1  C   -0.004161
     2  C    0.004968
     3  H    0.000000
     4  H    0.000000
     5  C    0.036459
     6  H    0.000000
     7  H    0.000000
     8  H    0.000000
     9  O    0.072271
    10  O   -0.188227
    11  H    0.000000
    12  C    0.362341
    13  H    0.000000
    14  H    0.000000
    15  O   -0.283651
    16  H    0.000000
 Sum of APT charges=   0.00000
 Electronic spatial extent (au):  <R**2>=  2084.2133
 Charge=     0.0000 electrons
 Dipole moment (field-independent basis, Debye):
    X=     2.1918    Y=     0.6655    Z=     2.0712  Tot=     3.0882
 Quadrupole moment (field-independent basis, Debye-Ang):
   XX=   -51.9578   YY=   -38.9840   ZZ=   -44.2403
   XY=     2.5942   XZ=    -6.2474   YZ=     1.8692
 Traceless Quadrupole moment (field-independent basis, Debye-Ang):
   XX=    -6.8971   YY=     6.0767   ZZ=     0.8204
   XY=     2.5942   XZ=    -6.2474   YZ=     1.8692
 Octapole moment (field-independent basis, Debye-Ang**2):
  XXX=   324.7801  YYY=  -140.9534  ZZZ=    25.3657  XYY=    98.4215
  XXY=   -53.2184  XXZ=    31.6650  XZZ=    92.4566  YZZ=   -51.5730
  YYZ=     8.6382  XYZ=    -4.7103
 Hexadecapole moment (field-independent basis, Debye-Ang**3):
 XXXX= -1850.3473 YYYY=  -588.0892 ZZZZ=  -316.1305 XXXY=   305.2311
 XXXZ=  -158.4284 YYYX=   328.6545 YYYZ=    39.3437 ZZZX=   -43.2538
 ZZZY=    60.2874 XXYY=  -366.2324 XXZZ=  -317.4618 YYZZ=  -158.1249
 XXYZ=    21.2877 YYXZ=   -27.7779 ZZXY=    90.3644
 N-N= 3.299141625397D+02 E-N=-1.559980261994D+03  KE= 3.822030086656D+02
  Exact polarizability:  62.799   5.344  61.850  -2.858  -8.154  75.896
 Approx polarizability:  86.044   6.994  89.993  -3.856 -20.382 121.781
                          Isotropic Fermi Contact Couplings
        Atom                 a.u.       MegaHertz       Gauss      10(-4) cm-1
     1  C(13)             -0.00888      -9.97993      -3.56109      -3.32894
     2  C(13)              0.03893      43.75932      15.61441      14.59654
     3  H(1)              -0.00881     -39.36459     -14.04626     -13.13061
     4  H(1)              -0.00901     -40.28048     -14.37308     -13.43612
     5  C(13)              0.00251       2.81762       1.00540       0.93986
     6  H(1)              -0.00190      -8.49989      -3.03297      -2.83526
     7  H(1)              -0.00025      -1.13834      -0.40619      -0.37971
     8  H(1)              -0.00048      -2.12610      -0.75865      -0.70919
     9  O(17)              0.06896     -41.80208     -14.91602     -13.94367
    10  O(17)              0.00932      -5.65159      -2.01663      -1.88517
    11  H(1)              -0.00175      -7.83871      -2.79705      -2.61471
    12  C(13)              0.00673       7.56709       2.70013       2.52411
    13  H(1)              -0.00024      -1.07649      -0.38412      -0.35908
    14  H(1)              -0.00258     -11.52350      -4.11187      -3.84383
    15  O(17)              0.00013      -0.07785      -0.02778      -0.02597
    16  H(1)              -0.00003      -0.13762      -0.04911      -0.04591
 --------------------------------------------------------
       Center         ----  Spin Dipole Couplings  ----
                      3XX-RR        3YY-RR        3ZZ-RR
 --------------------------------------------------------
     1   Atom        0.043607     -0.040667     -0.002940
     2   Atom       -0.317658      0.346885     -0.029227
     3   Atom       -0.019822      0.012083      0.007739
     4   Atom        0.045544     -0.016943     -0.028601
     5   Atom       -0.005907      0.000859      0.005048
     6   Atom       -0.004759      0.005659     -0.000900
     7   Atom       -0.003300      0.003948     -0.000648
     8   Atom       -0.003188      0.003568     -0.000380
     9   Atom       -0.584558      0.124805      0.459753
    10   Atom       -0.271497      0.101394      0.170103
    11   Atom        0.005153     -0.000019     -0.005134
    12   Atom        0.008117     -0.003051     -0.005066
    13   Atom        0.007826     -0.005483     -0.002343
    14   Atom        0.003086     -0.001110     -0.001976
    15   Atom        0.029781     -0.012149     -0.017632
    16   Atom        0.004630     -0.001876     -0.002755
 --------------------------------------------------------
                        XY            XZ            YZ
 --------------------------------------------------------
     1   Atom       -0.017000      0.032932      0.092267
     2   Atom        0.210837     -0.150455     -0.510002
     3   Atom       -0.020305     -0.038515      0.014770
     4   Atom       -0.006436      0.013815     -0.024748
     5   Atom        0.001732     -0.005979      0.001671
     6   Atom       -0.000532      0.000278      0.003037
     7   Atom        0.001143      0.001243      0.003057
     8   Atom       -0.004416     -0.002152      0.002758
     9   Atom       -0.692115      0.767313     -1.288975
    10   Atom       -0.056471      0.107952     -0.374193
    11   Atom        0.018647      0.004150      0.000626
    12   Atom       -0.000221      0.002404     -0.002649
    13   Atom        0.000815     -0.000296     -0.002075
    14   Atom        0.005211      0.001418     -0.000042
    15   Atom        0.006150      0.007904      0.005337
    16   Atom        0.007261      0.005974      0.001928
 --------------------------------------------------------


 ---------------------------------------------------------------------------------
              Anisotropic Spin Dipole Couplings in Principal Axis System
 ---------------------------------------------------------------------------------

       Atom             a.u.   MegaHertz   Gauss  10(-4) cm-1        Axes

              Baa    -0.1230   -16.501    -5.888    -5.504  0.2012  0.7491 -0.6311
     1 C(13)  Bbb     0.0434     5.817     2.076     1.940  0.8756 -0.4264 -0.2269
              Bcc     0.0796    10.683     3.812     3.564  0.4391  0.5069  0.7418
 
              Baa    -0.3860   -51.793   -18.481   -17.276  0.3921  0.4468  0.8041
     2 C(13)  Bbb    -0.3784   -50.781   -18.120   -16.939  0.8900 -0.4054 -0.2087
              Bcc     0.7644   102.574    36.601    34.215  0.2328  0.7975 -0.5566
 
              Baa    -0.0482   -25.704    -9.172    -8.574  0.8323  0.1496  0.5338
     3 H(1)   Bbb    -0.0018    -0.987    -0.352    -0.329  0.1876  0.8301 -0.5252
              Bcc     0.0500    26.690     9.524     8.903 -0.5217  0.5372  0.6628
 
              Baa    -0.0487   -25.991    -9.274    -8.670 -0.0752  0.6033  0.7940
     4 H(1)   Bbb    -0.0012    -0.657    -0.234    -0.219  0.2740  0.7781 -0.5653
              Bcc     0.0499    26.648     9.509     8.889  0.9588 -0.1751  0.2238
 
              Baa    -0.0091    -1.215    -0.434    -0.405  0.8877 -0.2230  0.4028
     5 C(13)  Bbb     0.0013     0.171     0.061     0.057  0.2542  0.9668 -0.0252
              Bcc     0.0078     1.045     0.373     0.348 -0.3838  0.1248  0.9149
 
              Baa    -0.0048    -2.586    -0.923    -0.863  0.9862  0.0901 -0.1388
     6 H(1)   Bbb    -0.0020    -1.075    -0.384    -0.359  0.1619 -0.3534  0.9214
              Bcc     0.0069     3.661     1.306     1.221 -0.0339  0.9311  0.3631
 
              Baa    -0.0038    -2.023    -0.722    -0.675  0.9256  0.0127 -0.3784
     7 H(1)   Bbb    -0.0020    -1.045    -0.373    -0.349  0.3369 -0.4834  0.8080
              Bcc     0.0058     3.069     1.095     1.024  0.1726  0.8753  0.4517
 
              Baa    -0.0055    -2.931    -1.046    -0.978  0.9052  0.3890  0.1712
     8 H(1)   Bbb    -0.0018    -0.958    -0.342    -0.320  0.0211 -0.4434  0.8961
              Bcc     0.0073     3.889     1.388     1.297 -0.4245  0.8075  0.4096
 
              Baa    -1.0159    73.509    26.230    24.520  0.5141  0.7604  0.3969
     9 O(17)  Bbb    -0.9886    71.532    25.524    23.860  0.7735 -0.2110 -0.5976
              Bcc     2.0045  -145.041   -51.754   -48.381  0.3707 -0.6142  0.6967
 
              Baa    -0.3037    21.973     7.841     7.329  0.8913 -0.2343 -0.3882
    10 O(17)  Bbb    -0.2252    16.297     5.815     5.436  0.4293  0.7115  0.5563
              Bcc     0.5289   -38.270   -13.656   -12.765  0.1458 -0.6624  0.7348
 
              Baa    -0.0167    -8.915    -3.181    -2.974 -0.6576  0.7273  0.1964
    11 H(1)   Bbb    -0.0051    -2.747    -0.980    -0.916  0.0317 -0.2338  0.9718
              Bcc     0.0219    11.663     4.162     3.890  0.7527  0.6453  0.1307
 
              Baa    -0.0071    -0.956    -0.341    -0.319 -0.1239  0.5363  0.8349
    12 C(13)  Bbb    -0.0015    -0.196    -0.070    -0.065  0.1496  0.8419 -0.5185
              Bcc     0.0086     1.152     0.411     0.384  0.9810 -0.0607  0.1845
 
              Baa    -0.0065    -3.489    -1.245    -1.164 -0.0418  0.8968  0.4405
    13 H(1)   Bbb    -0.0014    -0.722    -0.258    -0.241  0.0677 -0.4373  0.8968
              Bcc     0.0079     4.212     1.503     1.405  0.9968  0.0673 -0.0425
 
              Baa    -0.0049    -2.602    -0.928    -0.868 -0.5599  0.7780  0.2851
    14 H(1)   Bbb    -0.0019    -1.004    -0.358    -0.335  0.0535 -0.3094  0.9494
              Bcc     0.0068     3.606     1.287     1.203  0.8268  0.5469  0.1317
 
              Baa    -0.0212     1.532     0.547     0.511 -0.0804 -0.4661  0.8811
    15 O(17)  Bbb    -0.0110     0.794     0.283     0.265 -0.2169  0.8709  0.4410
              Bcc     0.0322    -2.327    -0.830    -0.776  0.9729  0.1557  0.1711
 
              Baa    -0.0076    -4.045    -1.443    -1.349  0.6100 -0.6026 -0.5145
    16 H(1)   Bbb    -0.0043    -2.289    -0.817    -0.764  0.0106 -0.6430  0.7658
              Bcc     0.0119     6.334     2.260     2.113  0.7923  0.4726  0.3859
 

 ---------------------------------------------------------------------------------

 Use density number 0.
 Entering OneElI...
 Calculate overlap and kinetic energy integrals
    NBasis = 187  MinDer = 2  MaxDer = 2
 Requested accuracy = 0.1000D-12
 PrsmSu:  NPrtUS=   1 ThrOK=F
 PRISM was handed   130758933 working-precision words and  2553 shell-pairs
 Entering OneElI...
 Calculate potential energy integrals
    NBasis = 187  MinDer = 2  MaxDer = 2
 Requested accuracy = 0.1000D-12
 PrsmSu:  NPrtUS=   8 ThrOK=T
 PRISM was handed    16301177 working-precision words and  2407 shell-pairs
 PRISM was handed    16301177 working-precision words and  2407 shell-pairs
 PRISM was handed    16301177 working-precision words and  2407 shell-pairs
 PRISM was handed    16301177 working-precision words and  2407 shell-pairs
 PRISM was handed    16301177 working-precision words and  2407 shell-pairs
 PRISM was handed    16301177 working-precision words and  2407 shell-pairs
 PRISM was handed    16301177 working-precision words and  2407 shell-pairs
 PRISM was handed    16301177 working-precision words and  2407 shell-pairs
 Polarizability after L701:
                1             2             3
      1  0.627992D+02
      2  0.534358D+01  0.618500D+02
      3 -0.285764D+01 -0.815356D+01  0.758956D+02
 Dipole Derivatives after L701:
               1            2            3            4            5
      1 0.241362D+00-0.430595D-03 0.255196D+00-0.438554D-01-0.188909D+00
      2 0.139091D+00 0.230471D+00 0.770963D+00-0.309134D+00-0.343571D+00
      3-0.157632D+00 0.176647D+00-0.484314D+00 0.152488D+00 0.206302D+00
               6            7            8            9           10
      1-0.109974D+00 0.156286D-01 0.455798D-01 0.166533D-01-0.793670D-01
      2-0.276855D+00 0.743741D-01 0.461858D-01-0.660541D-01 0.304363D-01
      3 0.215316D+00 0.456207D-01-0.102856D+00 0.336354D-01-0.593741D-01
              11           12           13           14           15
      1 0.451496D-01-0.993235D-02-0.601160D-01 0.299036D-01 0.226473D-01
      2 0.101245D+00-0.327540D-01 0.744798D-01-0.689424D-01-0.631453D-01
      3-0.379678D-01 0.696865D-01 0.379091D-01-0.774205D-01 0.628521D-01
              16           17           18           19           20
      1 0.880926D-01-0.253552D-02-0.290479D-02 0.729530D-01-0.326471D-02
      2 0.537330D-02-0.794859D-01 0.565627D-01-0.129747D-01 0.601961D-01
      3 0.205076D-01 0.360560D-01 0.249915D-01-0.771586D-01 0.159223D-01
              21           22           23           24           25
      1-0.438298D-01-0.810469D-01-0.569959D-01 0.164416D-01 0.420179D-01
      2-0.588451D-01-0.590973D-02 0.564359D-01-0.470737D-01 0.476017D+00
      3-0.228227D-01 0.113824D-01 0.176204D-01 0.562701D-01-0.807442D+00
              26           27           28           29           30
      1 0.150497D+00-0.279482D+00-0.545522D+00-0.394070D-01 0.120365D+00
      2-0.764866D-01-0.474126D+00-0.422715D+00-0.233610D+00 0.351621D+00
      3-0.234243D+00 0.251282D+00 0.738820D+00 0.210838D+00-0.535127D+00
              31           32           33           34           35
      1 0.242338D+00-0.964722D-02 0.116376D-01 0.396847D+00-0.382306D-01
      2-0.518386D-02 0.305371D+00-0.732502D-01 0.279935D-01 0.287994D+00
      3-0.113114D-01-0.168616D+00 0.201866D+00 0.135668D+00-0.422236D-02
              36           37           38           39           40
      1 0.185568D+00-0.946704D-02 0.835441D-01 0.153857D-01-0.401674D-02
      2 0.108712D+00 0.396494D-01-0.105716D+00-0.787665D-01-0.607201D-01
      3 0.638730D+00 0.146306D-01-0.119367D+00-0.750117D-01-0.780342D-03
              41           42           43           44           45
      1-0.671108D-01-0.133644D-01-0.661119D+00 0.945234D-01-0.235169D+00
      2-0.537884D-01 0.283956D-01 0.425534D-01-0.332897D+00-0.124118D+00
      3 0.802378D-01 0.114537D-01-0.170190D+00-0.422811D-01-0.735925D+00
              46           47           48
      1 0.385271D+00-0.426665D-01 0.507620D-01
      2-0.933292D-01 0.206600D+00-0.212674D-01
      3 0.126863D+00 0.433507D-01 0.287118D+00
 Hessian after L701:
                1             2             3             4             5
      1  0.139778D+02
      2  0.648384D+00  0.179391D+02
      3 -0.208841D+01 -0.369139D+01  0.149297D+02
      4 -0.695483D+01  0.824336D+00  0.294546D+01  0.123884D+02
      5  0.778524D+00 -0.839588D+01  0.333064D+01  0.337680D+00  0.161786D+02
      6  0.298476D+01  0.351335D+01 -0.328402D+01 -0.274117D+01 -0.391703D+01
      7  0.120804D+00 -0.268257D-01 -0.274533D-01 -0.365476D+01 -0.844418D+00
      8  0.180650D-01  0.361368D-01 -0.368299D-01 -0.937843D+00 -0.331904D+01
      9  0.454881D-01 -0.892204D-01  0.741604D-01 -0.113500D+01  0.121550D+01
     10  0.620475D-01 -0.535837D-04  0.650275D-02 -0.154083D+01 -0.458751D+00
     11 -0.372617D-01  0.722962D-01 -0.120208D-01 -0.406442D+00 -0.425790D+01
     12 -0.754025D-01 -0.219388D-03  0.506868D-01  0.773158D+00 -0.159418D+00
     13 -0.515098D+01 -0.205724D+01 -0.148083D+01 -0.521541D-02  0.385192D-01
     14 -0.206510D+01 -0.335282D+01  0.237490D+01 -0.129980D-01  0.114602D+00
     15 -0.140019D+01  0.220128D+01 -0.465781D+01 -0.821575D-01  0.784005D-01
     16  0.791460D-01  0.816392D-02 -0.292742D-01 -0.159731D-01  0.146913D-01
     17 -0.323096D-01  0.232918D-01  0.391350D-01  0.108135D-01  0.571371D-01
     18 -0.111656D-01 -0.181368D-01  0.914237D-01  0.779092D-02 -0.263627D-01
     19  0.991335D-01  0.180315D-01  0.584609D-01 -0.604326D-01  0.209396D-01
     20 -0.249205D-01  0.828439D-01 -0.961143D-01  0.193753D-01 -0.651386D-02
     21 -0.153280D-01 -0.818020D-02 -0.308772D-01  0.326210D-01  0.115763D+00
     22  0.507108D-01 -0.208914D-01  0.333434D-02  0.169490D-01 -0.112312D-01
     23  0.652854D-01  0.636894D-01 -0.185740D-01  0.113744D-01 -0.287344D-01
     24  0.257813D-01  0.109633D-01  0.430070D-01 -0.128098D-01 -0.569236D-02
     25 -0.179857D+01  0.460004D+00 -0.421682D+00 -0.293019D+00 -0.899285D-02
     26  0.363337D+00 -0.161728D+00 -0.153315D+01 -0.331165D-02 -0.315748D-01
     27 -0.331317D+00 -0.157320D+01 -0.575212D+00 -0.363149D-01 -0.437510D+00
     28 -0.383984D+00 -0.340427D-01  0.139434D+00 -0.212171D+00  0.287850D-01
     29  0.478217D-01  0.147736D+00 -0.225022D+00  0.522062D-01 -0.176939D+00
     30  0.410875D-02 -0.219071D+00  0.421786D-01 -0.166578D+00 -0.190701D+00
     31  0.224180D-01  0.639919D-01 -0.213875D-01  0.424082D-04  0.231191D-01
     32  0.643624D-01  0.545250D-01 -0.323154D-01  0.291415D-01  0.127157D-01
     33 -0.325269D-02 -0.823248D-02 -0.265540D-01 -0.993692D-02 -0.112997D-01
     34 -0.436879D+00  0.612522D-01  0.878926D+00  0.158573D+00 -0.344852D-01
     35  0.165938D+00 -0.647442D+01 -0.500336D-01 -0.217173D-01  0.881063D-02
     36  0.769984D+00 -0.913023D-01 -0.640739D+01  0.790892D-01 -0.625091D-01
     37 -0.116100D+00  0.287451D+00  0.164036D-01  0.259013D-01 -0.442303D-01
     38  0.197823D+00 -0.179655D-01 -0.676978D-02 -0.715577D-01 -0.634500D-02
     39  0.208931D-01 -0.440943D-01  0.155725D+00 -0.954209D-02 -0.814980D-02
     40  0.100427D+00 -0.187934D+00 -0.705250D-03  0.357734D-01  0.716184D-01
     41 -0.108532D+00 -0.130793D-01  0.373635D-02  0.858338D-01  0.335695D-01
     42 -0.197641D-01  0.301073D-01  0.120147D+00 -0.162958D-01 -0.424848D-02
     43  0.329313D+00 -0.109984D-01  0.103179D+00  0.113928D+00  0.867151D-01
     44 -0.872909D-02 -0.582242D-01  0.365100D-02  0.971407D-01 -0.165198D+00
     45  0.124573D+00  0.262006D-01 -0.403232D+00  0.327281D+00  0.801415D-01
     46 -0.412953D-03 -0.336257D-01 -0.819477D-01 -0.228796D-02  0.151586D-02
     47 -0.726889D-01  0.544772D-01 -0.498433D-01 -0.140312D-01 -0.173141D-01
     48 -0.307622D-01 -0.388576D-01 -0.121957D+00  0.444036D-01  0.247404D-02
                6             7             8             9            10
      6  0.977329D+01
      7 -0.911819D+00  0.375919D+01
      8  0.107335D+01  0.765977D+00  0.326878D+01
      9 -0.313329D+01  0.976563D+00 -0.121500D+01  0.264948D+01
     10  0.521989D+00 -0.140014D+00  0.140845D+00  0.930599D-01  0.148449D+01
     11 -0.108064D+00  0.141806D+00  0.610462D-01 -0.398892D-01  0.339181D+00
     12 -0.422686D+01  0.725598D-01 -0.285478D-01  0.119925D+00 -0.916174D+00
     13 -0.157103D-01 -0.373648D-01 -0.312800D-01 -0.409281D-01  0.113609D-02
     14 -0.100926D-01 -0.328357D-01  0.475594D-01  0.114978D+00  0.105146D-02
     15  0.118164D+00 -0.413801D-01  0.104826D+00  0.835797D-01  0.137798D-01
     16  0.975154D-02 -0.128268D-02 -0.151931D-02 -0.102187D-02 -0.148027D-02
     17 -0.264889D-02 -0.617381D-02  0.108339D-01  0.104291D-01  0.200945D-01
     18 -0.415892D-01  0.811177D-03 -0.274383D-03 -0.291815D-02  0.252761D-03
     19  0.355933D-01 -0.201525D-02  0.301856D-02  0.394055D-02  0.477720D-02
     20  0.120760D+00 -0.206839D-02  0.217486D-03  0.111054D-02  0.461891D-02
     21  0.185699D+00 -0.527089D-02  0.602533D-02  0.668321D-02  0.142647D-01
     22 -0.263073D-01  0.605740D-02 -0.869719D-02 -0.114636D-01 -0.286566D-01
     23 -0.292352D-01 -0.905015D-03 -0.114804D-02  0.156772D-02  0.129873D-02
     24 -0.144456D-02 -0.425816D-02  0.497538D-02  0.422564D-02  0.108016D-01
     25 -0.137393D-01 -0.415143D-01 -0.388850D-02 -0.151670D-01  0.940300D-02
     26 -0.389513D+00  0.508408D-02 -0.445798D-01 -0.254933D-01 -0.431126D-01
     27  0.212528D+00 -0.438844D-01  0.158368D-01  0.115620D+00  0.865372D-01
     28 -0.136491D+00 -0.987067D-02 -0.118756D-02 -0.165636D-01 -0.178236D-01
     29 -0.179215D+00 -0.263363D-02 -0.162164D-01  0.190369D-02 -0.114961D-01
     30  0.341587D+00 -0.372287D-01  0.151022D-01  0.561417D-01  0.538957D-01
     31 -0.297381D-01  0.345231D-02 -0.248986D-02 -0.796474D-02 -0.817911D-02
     32 -0.405754D-01  0.590441D-02 -0.446638D-02 -0.881683D-02 -0.888846D-02
     33 -0.391400D-02 -0.454908D-04 -0.140657D-02 -0.152453D-02 -0.199895D-02
     34 -0.552655D-01 -0.111657D-01  0.861268D-02 -0.315181D-02  0.129943D+00
     35 -0.103799D+00 -0.890374D-02 -0.719252D-02  0.128614D-02  0.141255D-01
     36 -0.769647D-01 -0.233682D-01  0.182120D-01 -0.129911D-01  0.932935D-01
     37  0.281317D-02  0.288658D-01  0.188872D-01  0.655119D-01  0.991359D-02
     38 -0.189039D-01  0.167262D-02 -0.375705D-01 -0.822037D-02 -0.107642D-01
     39 -0.333865D-01  0.360673D-01  0.622715D-02 -0.596946D-03 -0.326805D-02
     40  0.675259D-02 -0.244760D-02  0.957213D-02  0.888956D-02  0.462194D-02
     41  0.135530D-01  0.749476D-03  0.108734D-01  0.132369D-01  0.900018D-02
     42 -0.408289D-01  0.221106D-02 -0.454080D-03 -0.477910D-02 -0.554642D-02
     43  0.347402D+00 -0.178460D-01  0.237004D-01  0.405181D-01  0.334403D-01
     44  0.952950D-01  0.162014D-02 -0.399023D-04  0.330245D-01  0.102588D-01
     45  0.169490D+00  0.848781D-02  0.327335D-01  0.382930D-01  0.243817D-01
     46  0.211735D-01 -0.910261D-04 -0.177199D-02 -0.271385D-02 -0.278933D-02
     47 -0.172321D-01  0.195027D-02 -0.519306D-02 -0.639808D-02 -0.740871D-02
     48  0.415409D-01 -0.199218D-02  0.522143D-02  0.798742D-02  0.822913D-02
               11            12            13            14            15
     11  0.422004D+01
     12  0.223219D+00  0.391209D+01
     13 -0.102606D-01 -0.935341D-02  0.152090D+02
     14 -0.718092D-02  0.352282D-02  0.142282D+01  0.139316D+02
     15  0.456044D-02 -0.109983D-01  0.730598D+00 -0.126876D+01  0.152763D+02
     16  0.342195D-02  0.303460D-02 -0.429691D+01 -0.600102D-01  0.397862D-01
     17  0.665816D-02  0.136826D-01  0.361899D-01 -0.207863D+01 -0.125344D+01
     18  0.413179D-02 -0.253224D-02 -0.133194D-01 -0.113523D+01 -0.365476D+01
     19  0.755838D-03  0.467199D-02 -0.408595D+01  0.167476D+00  0.114324D+01
     20 -0.136557D-02  0.354658D-02  0.337966D+00 -0.461711D+01  0.602707D+00
     21  0.173073D-02  0.764135D-02  0.134443D+01  0.330633D+00 -0.217435D+01
     22 -0.467940D-02 -0.163485D-01 -0.176714D+01  0.832412D+00 -0.553176D+00
     23 -0.782658D-02  0.212793D-01  0.515690D+00 -0.440523D+01 -0.962075D-01
     24  0.195412D-01  0.326176D-01 -0.548710D+00 -0.161290D+00 -0.442396D+01
     25 -0.280419D-01  0.488902D-01 -0.155931D+00 -0.143130D+00  0.289702D-01
     26 -0.168327D-01 -0.422485D-01 -0.124251D+00  0.249241D+00 -0.834343D-01
     27 -0.466539D-01  0.446079D-01  0.231570D-01 -0.370956D-01 -0.190073D+00
     28 -0.602851D-02  0.114286D-01 -0.206681D+00  0.144396D+00 -0.857726D-01
     29 -0.213663D-01 -0.305768D-01  0.254340D+00  0.208434D+00 -0.279695D+00
     30 -0.439716D-01  0.712180D-01 -0.129231D+00 -0.228156D+00 -0.157966D+00
     31  0.334732D-02 -0.516793D-02 -0.504963D-02  0.118976D-01 -0.531092D-02
     32  0.425412D-02 -0.110753D-01  0.180683D-01  0.240084D-01 -0.922887D-02
     33 -0.257563D-02  0.100369D-02  0.775346D-02  0.102737D-01 -0.166162D-01
     34  0.106600D-01  0.869862D-01  0.161124D+00 -0.404960D-01 -0.368295D-01
     35 -0.388654D-01  0.491761D-02 -0.119581D+00  0.715053D-01  0.188573D-01
     36  0.466475D-03  0.252923D-02  0.103127D-01 -0.291801D-01 -0.665122D-02
     37 -0.223200D-02  0.282576D-02  0.116205D+00 -0.146513D+00 -0.685961D-01
     38  0.135347D-03 -0.245712D-02 -0.146570D+00  0.495881D-01  0.517973D-01
     39  0.104178D-02 -0.282521D-02 -0.835089D-01  0.610667D-01 -0.350319D-01
     40 -0.307524D-03  0.181311D-03 -0.514418D-01  0.844723D-02  0.127133D-02
     41 -0.111481D-02  0.220136D-02  0.108989D-01  0.724572D-02 -0.191435D-02
     42 -0.117810D-03 -0.230465D-02 -0.658138D-02 -0.100131D-02  0.139051D-01
     43 -0.433088D-02  0.192596D-01  0.302370D+00 -0.930078D-01  0.331049D+00
     44 -0.120965D-01  0.570810D-02 -0.116078D+00 -0.240538D+00 -0.530954D-01
     45 -0.415003D-03  0.140382D-03  0.205737D+00 -0.253557D-01 -0.152337D+00
     46  0.412152D-03 -0.549426D-03 -0.271471D-01  0.558194D-02 -0.152858D-01
     47  0.120248D-03 -0.353415D-02 -0.292343D-01 -0.224672D-02 -0.166496D-01
     48 -0.983201D-03  0.306274D-02  0.618743D-02  0.791571D-03 -0.114288D-01
               16            17            18            19            20
     16  0.414142D+01
     17  0.185645D+00  0.170426D+01
     18 -0.500763D-01  0.117535D+01  0.367247D+01
     19  0.673163D-01  0.151694D-01 -0.235506D-01  0.395022D+01
     20  0.345985D-01  0.563829D-01  0.791032D-01 -0.207921D+00  0.437696D+01
     21 -0.510998D-01  0.637752D-01 -0.474220D-01 -0.117307D+01 -0.694146D+00
     22  0.266561D-01 -0.809170D-01  0.399445D-01 -0.267314D-01 -0.423101D-01
     23 -0.917526D-01  0.248016D-03  0.437825D-01 -0.161717D-01  0.641030D-01
     24  0.598269D-01  0.590508D-01  0.513528D-01 -0.774535D-01 -0.275695D-01
     25 -0.322332D-01 -0.172084D-01  0.692797D-02 -0.516838D-01 -0.225863D-02
     26 -0.197326D-01  0.122520D+00 -0.467955D-01  0.234735D-01  0.104407D+00
     27  0.668048D-02 -0.436718D-01 -0.213213D-01  0.554495D-02  0.255358D-01
     28 -0.151995D-01  0.344551D-02 -0.291428D-02 -0.178962D-01  0.335117D-01
     29  0.504572D-02  0.384578D-01 -0.271094D-01  0.584185D-01  0.572303D-01
     30 -0.382435D-02 -0.326290D-01 -0.768530D-03 -0.360584D-02 -0.505449D-02
     31 -0.476685D-03  0.530802D-02 -0.237557D-02  0.241963D-02  0.478526D-02
     32  0.113787D-02  0.845189D-02 -0.395904D-02  0.717011D-02  0.680309D-02
     33 -0.532988D-04  0.319443D-02 -0.215775D-02  0.291503D-02  0.309517D-02
     34  0.105467D-01 -0.500799D-01  0.128971D-01 -0.274342D-01  0.491002D-01
     35 -0.389995D-01  0.321341D-01 -0.158197D-01  0.393932D-01 -0.115002D-03
     36  0.793243D-02 -0.154944D-01 -0.221991D-01  0.488216D-01 -0.438135D-01
     37 -0.158756D-02 -0.246824D-02  0.250313D-02  0.792515D-02 -0.223907D-01
     38 -0.630961D-04  0.634107D-02 -0.398733D-02 -0.174011D-01  0.134659D-01
     39 -0.289536D-03  0.332735D-02 -0.212097D-02 -0.185765D-01  0.224730D-01
     40  0.234632D-01 -0.251724D-01 -0.296858D-02 -0.724082D-02  0.692133D-03
     41 -0.642016D-02 -0.110305D-01  0.427745D-02  0.321360D-04 -0.367463D-04
     42 -0.125727D-01  0.122671D-01 -0.104906D-01  0.832400D-02  0.300781D-03
     43  0.173478D-01 -0.631086D-01  0.355799D-01  0.151044D+00 -0.184407D+00
     44 -0.294164D-01  0.126826D-01 -0.213080D-01 -0.108778D+00 -0.146054D+00
     45  0.179029D-01 -0.235873D-01 -0.102525D-01 -0.164478D-01  0.139090D-01
     46 -0.755119D-03  0.771838D-03 -0.337129D-03 -0.344393D-02  0.162842D-02
     47 -0.479080D-02  0.102630D-01 -0.766308D-02 -0.360668D-02  0.878488D-02
     48  0.329705D-02 -0.873863D-02  0.328480D-02  0.119010D-02 -0.584279D-02
               21            22            23            24            25
     21  0.223275D+01
     22 -0.398502D-01  0.157487D+01
     23 -0.365591D-02 -0.419794D+00  0.423139D+01
     24  0.562783D-01  0.617096D+00  0.174249D+00  0.442734D+01
     25  0.223315D-02  0.190673D-01 -0.449660D-02 -0.383562D-02  0.657710D+00
     26  0.822362D-01 -0.577052D-01  0.838464D-02  0.725743D-02 -0.140575D+01
     27 -0.319643D-01 -0.180672D-02  0.665563D-02 -0.138184D-01  0.428721D+01
     28  0.967527D-02 -0.132595D+00 -0.134950D-01  0.948847D-03  0.133541D+01
     29  0.402303D-01 -0.112325D+00  0.148554D+00 -0.969268D-01 -0.845815D-01
     30 -0.381870D-01  0.445949D-01 -0.114453D+00 -0.118461D+00 -0.436599D+01
     31  0.549708D-02 -0.448646D-02 -0.320172D-03  0.111587D-02 -0.142671D+00
     32  0.877710D-02 -0.110147D-01 -0.693294D-02  0.276615D-02  0.105396D+00
     33  0.268986D-02 -0.416949D-02  0.414705D-02  0.415604D-03  0.378684D+00
     34  0.365876D-01  0.184442D+00 -0.485561D-01 -0.670560D-01  0.211710D-01
     35 -0.178387D-01 -0.492791D-01 -0.464188D-01  0.123196D-01  0.321846D+00
     36 -0.272545D-02 -0.554051D-01  0.120449D-01 -0.385833D-01 -0.549110D-01
     37 -0.259951D-01  0.113382D-02  0.388577D-02  0.100123D-02  0.385622D-01
     38  0.291088D-01 -0.660329D-02 -0.164739D-02  0.127196D-02  0.293126D-02
     39  0.168725D-01 -0.358602D-02 -0.825970D-03  0.322954D-03 -0.743862D-01
     40 -0.727443D-03  0.667992D-02  0.140778D-02 -0.212973D-02  0.279024D-01
     41 -0.875645D-02  0.834445D-02  0.234512D-03 -0.197809D-02  0.821923D-01
     42  0.498946D-02 -0.684417D-02 -0.121995D-02  0.515162D-03 -0.565277D-01
     43 -0.135193D+00  0.738185D-01 -0.257442D-02 -0.121605D-02  0.328283D+00
     44  0.428756D-01 -0.324710D-02 -0.172223D-01  0.132419D-02  0.606300D+00
     45 -0.179875D+00  0.518172D-02  0.670776D-03 -0.178800D-01  0.420436D-01
     46  0.122470D-02 -0.779191D-03 -0.876740D-03  0.897378D-03  0.781144D-01
     47  0.114226D-01 -0.120618D-01 -0.144848D-02 -0.262441D-03  0.119676D+00
     48 -0.820168D-02  0.880543D-02 -0.225327D-03 -0.192223D-02  0.211273D+00
               26            27            28            29            30
     26  0.525292D+01
     27  0.172632D+01  0.417259D+01
     28  0.814006D-01 -0.439241D+01  0.365759D+01
     29 -0.577393D+01  0.243012D+00 -0.262661D+01  0.981002D+01
     30  0.152641D+00 -0.296792D+01  0.373945D+01 -0.619225D+00  0.861961D+01
     31  0.860526D-01  0.321581D+00 -0.444784D+01  0.205961D+01  0.114260D+01
     32  0.318205D+00  0.120815D+00  0.202525D+01 -0.419074D+01  0.140888D+01
     33  0.134263D+00  0.879707D-01  0.100139D+01  0.128477D+01 -0.559007D+01
     34  0.251424D+00 -0.553913D-01  0.159427D+00  0.138777D+00 -0.186293D+00
     35  0.108283D+00 -0.818107D-01  0.148080D+00 -0.103403D+00 -0.924092D-01
     36 -0.210278D-01 -0.241563D+00 -0.164363D+00 -0.723614D-01 -0.725600D-01
     37  0.603372D-01 -0.598577D-01  0.212284D-01  0.454993D-03 -0.301570D-01
     38 -0.347636D-01 -0.696695D-02 -0.107924D-01 -0.167831D-01  0.111510D-01
     39 -0.485601D-01  0.344908D-02 -0.285356D-01 -0.111191D-02  0.795994D-02
     40  0.735503D-01 -0.454514D-01  0.355843D-02  0.982506D-02 -0.128780D-01
     41  0.523097D-01 -0.540146D-01  0.158634D-01  0.222383D-02 -0.162022D-01
     42 -0.577593D-01  0.797101D-03 -0.146532D-01 -0.104685D-01  0.396232D-02
     43  0.512437D+00  0.128397D+00  0.265573D+00  0.207843D+00 -0.561753D-01
     44  0.108758D-01  0.107654D+00  0.231834D+00 -0.843772D-01 -0.299852D-01
     45  0.243423D-01 -0.426762D+00 -0.851520D-01 -0.344463D-01 -0.178330D+00
     46  0.196764D+00  0.107323D+00  0.126673D-02  0.330073D-02  0.731114D-02
     47 -0.163744D+00  0.350952D-01 -0.204192D-01 -0.288979D-01  0.407936D-02
     48  0.120925D+00 -0.168931D+00  0.245347D-01  0.624296D-02 -0.184017D-01
               31            32            33            34            35
     31  0.453162D+01
     32 -0.229651D+01  0.375830D+01
     33 -0.139372D+01 -0.143143D+01  0.557038D+01
     34  0.656962D-02  0.128153D-01  0.277819D-02  0.151233D+02
     35  0.131312D-01  0.486301D-02  0.483851D-02 -0.518497D+00  0.200517D+02
     36 -0.269937D-02 -0.923464D-03 -0.619540D-02 -0.263573D+01 -0.131675D+00
     37  0.361167D-02  0.447777D-02  0.202324D-02 -0.433111D+01 -0.101428D+01
     38 -0.362512D-02 -0.452101D-02 -0.170995D-02 -0.781211D+00 -0.256233D+01
     39 -0.359062D-02 -0.347175D-02 -0.255544D-02 -0.512092D+00  0.137875D+01
     40  0.321768D-02  0.426363D-02  0.133921D-02 -0.426829D+01  0.923502D+00
     41  0.536852D-02  0.541265D-02  0.212302D-02  0.800849D+00 -0.278163D+01
     42 -0.350141D-02 -0.387016D-02 -0.201028D-02 -0.584090D+00 -0.137560D+01
     43  0.280987D-01  0.341557D-01  0.157571D-01 -0.707039D+01  0.107963D+00
     44  0.254099D-01  0.135066D-01  0.123627D-01  0.166565D+00 -0.841397D+01
     45 -0.234400D-02 -0.983827D-03 -0.111658D-01  0.301661D+01  0.310687D+00
     46  0.724493D-02  0.426173D-02  0.540857D-03  0.190173D+00  0.372828D-01
     47  0.919781D-03 -0.438523D-02 -0.241215D-02 -0.267293D-01  0.151045D+00
     48  0.700856D-02  0.540732D-02  0.299999D-03  0.101118D+00  0.137321D+00
               36            37            38            39            40
     36  0.141900D+02
     37 -0.612913D+00  0.391831D+01
     38  0.127616D+01  0.958018D+00  0.249172D+01
     39 -0.381900D+01  0.869799D+00 -0.146068D+01  0.377029D+01
     40 -0.633920D+00  0.163043D+00 -0.159467D-01 -0.761246D-02  0.394631D+01
     41 -0.129237D+01  0.942674D-02 -0.230908D+00  0.242871D-02 -0.963209D+00
     42 -0.368835D+01 -0.666459D-02  0.844040D-02  0.162116D+00  0.852762D+00
     43  0.322038D+01  0.850760D-01 -0.896701D-01 -0.183952D+00  0.530326D-01
     44  0.417241D+00 -0.117446D+00  0.334089D+00  0.112198D+00  0.640127D-01
     45  0.117133D+00 -0.174943D+00  0.138126D+00 -0.141621D+00 -0.123121D+00
     46 -0.465047D-01  0.290172D-01 -0.624081D-02  0.217993D-02 -0.386087D-01
     47  0.365345D-01  0.662456D-02  0.174930D-01 -0.206266D-01  0.256776D-01
     48  0.854844D-01  0.162448D-01 -0.636174D-02 -0.795920D-01 -0.416823D-01
               41            42            43            44            45
     41  0.264515D+01
     42  0.162079D+01  0.359788D+01
     43  0.280331D-01 -0.987858D-01  0.113412D+02
     44  0.243934D+00 -0.104926D+00 -0.247395D+01  0.128288D+02
     45 -0.166691D+00 -0.279826D+00 -0.214108D+01  0.180533D+01  0.660290D+01
     46  0.215695D-01 -0.314701D-01 -0.603431D+01  0.165451D+01 -0.122910D+01
     47  0.368482D-01 -0.112241D+00  0.192120D+01 -0.430619D+01 -0.218066D+01
     48 -0.120417D+00  0.124276D+00 -0.162512D+01 -0.242735D+01 -0.512667D+01
               46            47            48
     46  0.580481D+01
     47 -0.188508D+01  0.425039D+01
     48  0.126726D+01  0.233039D+01  0.527117D+01
 ReadGW:  IGet=0 IStart=         114 Next=        7220 LGW=        7106.
 ICntrl=12127.
 Symmetry not used in FoFDir.
 MinBra= 0 MaxBra= 2 Meth= 1.
 IRaf=       0 NMat=   1 IRICut=       1 DoRegI=T DoRafI=F ISym2E= 0 JSym2E=0.
 PrsmSu:  NPrtUS=   8 ThrOK=T
 PRISM was handed    16286942 working-precision words and  2491 shell-pairs
 PRISM was handed    16286942 working-precision words and  2491 shell-pairs
 PRISM was handed    16286942 working-precision words and  2491 shell-pairs
 PRISM was handed    16286942 working-precision words and  2491 shell-pairs
 PRISM was handed    16286942 working-precision words and  2491 shell-pairs
 PRISM was handed    16286942 working-precision words and  2491 shell-pairs
 PRISM was handed    16286942 working-precision words and  2491 shell-pairs
 PRISM was handed    16286942 working-precision words and  2491 shell-pairs
 Pruned (  75, 302) grid will be used in CalDFT.
 CkSvGd:  ISavGI=        -1 IRadAn=       4 IRASav=       4 ISavGd=        -1.
 CalDSu:  NPrtUS=   8 ThrOK=T
 IPart= 0 IRanGd=          0 ScrnBf=T ScrnGd=T RCrit=4.00D+00 DoMicB=T.
 IPart= 3 IRanGd=          0 ScrnBf=T ScrnGd=T RCrit=4.00D+00 DoMicB=T.
 IPart= 2 IRanGd=          0 ScrnBf=T ScrnGd=T RCrit=4.00D+00 DoMicB=T.
 IPart= 4 IRanGd=          0 ScrnBf=T ScrnGd=T RCrit=4.00D+00 DoMicB=T.
 CutRad = 1000.00    CtRdIn =    0.00    XCrit =  15.00   ICut = 0
 IPart= 6 IRanGd=          0 ScrnBf=T ScrnGd=T RCrit=4.00D+00 DoMicB=T.
 IPart= 5 IRanGd=          0 ScrnBf=T ScrnGd=T RCrit=4.00D+00 DoMicB=T.
 IPart= 7 IRanGd=          0 ScrnBf=T ScrnGd=T RCrit=4.00D+00 DoMicB=T.
 CutRad = 1000.00    CtRdIn =    0.00    XCrit =  15.00   ICut = 0
 CutRad = 1000.00    CtRdIn =    0.00    XCrit =  15.00   ICut = 0
 CutRad = 1000.00    CtRdIn =    0.00    XCrit =  15.00   ICut = 0
 CutRad = 1000.00    CtRdIn =    0.00    XCrit =  15.00   ICut = 0
 CutRad = 1000.00    CtRdIn =    0.00    XCrit =  15.00   ICut = 0
 CutRad = 1000.00    CtRdIn =    0.00    XCrit =  15.00   ICut = 0
 IPart= 1 IRanGd=          0 ScrnBf=T ScrnGd=T RCrit=4.00D+00 DoMicB=T.
 CutRad = 1000.00    CtRdIn =    0.00    XCrit =  15.00   ICut = 0
 IPart= 1        13682 of        15642 points in      33 batches and      110 microbatches, Max-NSigAt=      16 Max-NSgAt2=      16
 IPart= 5        15650 of        18544 points in      40 batches and      100 microbatches, Max-NSigAt=      16 Max-NSgAt2=      16
 IPart= 4        13859 of        15392 points in      31 batches and       93 microbatches, Max-NSigAt=      16 Max-NSgAt2=      16
 IPart= 3        12495 of        13710 points in      26 batches and       84 microbatches, Max-NSigAt=      16 Max-NSgAt2=      16
 IPart= 0        13927 of        15710 points in      31 batches and       95 microbatches, Max-NSigAt=      16 Max-NSgAt2=      16
 IPart= 6        14298 of        16092 points in      33 batches and       98 microbatches, Max-NSigAt=      16 Max-NSgAt2=      16
 IPart= 7        14360 of        16520 points in      34 batches and       96 microbatches, Max-NSigAt=      16 Max-NSgAt2=      16
 IPart= 2        14078 of        16180 points in      34 batches and      108 microbatches, Max-NSigAt=      16 Max-NSgAt2=      16
 Polarizability after L703:
                1             2             3
      1  0.627992D+02
      2  0.534358D+01  0.618500D+02
      3 -0.285764D+01 -0.815356D+01  0.758956D+02
 Dipole Derivatives after L703:
               1            2            3            4            5
      1 0.241362D+00-0.430595D-03 0.255196D+00-0.438554D-01-0.188909D+00
      2 0.139091D+00 0.230471D+00 0.770963D+00-0.309134D+00-0.343571D+00
      3-0.157632D+00 0.176647D+00-0.484314D+00 0.152488D+00 0.206302D+00
               6            7            8            9           10
      1-0.109974D+00 0.156286D-01 0.455798D-01 0.166533D-01-0.793670D-01
      2-0.276855D+00 0.743741D-01 0.461858D-01-0.660541D-01 0.304363D-01
      3 0.215316D+00 0.456207D-01-0.102856D+00 0.336354D-01-0.593741D-01
              11           12           13           14           15
      1 0.451496D-01-0.993235D-02-0.601160D-01 0.299036D-01 0.226473D-01
      2 0.101245D+00-0.327540D-01 0.744798D-01-0.689424D-01-0.631453D-01
      3-0.379678D-01 0.696865D-01 0.379091D-01-0.774205D-01 0.628521D-01
              16           17           18           19           20
      1 0.880926D-01-0.253552D-02-0.290479D-02 0.729530D-01-0.326471D-02
      2 0.537330D-02-0.794859D-01 0.565627D-01-0.129747D-01 0.601961D-01
      3 0.205076D-01 0.360560D-01 0.249915D-01-0.771586D-01 0.159223D-01
              21           22           23           24           25
      1-0.438298D-01-0.810469D-01-0.569959D-01 0.164416D-01 0.420179D-01
      2-0.588451D-01-0.590973D-02 0.564359D-01-0.470737D-01 0.476017D+00
      3-0.228227D-01 0.113824D-01 0.176204D-01 0.562701D-01-0.807442D+00
              26           27           28           29           30
      1 0.150497D+00-0.279482D+00-0.545522D+00-0.394070D-01 0.120365D+00
      2-0.764866D-01-0.474126D+00-0.422715D+00-0.233610D+00 0.351621D+00
      3-0.234243D+00 0.251282D+00 0.738820D+00 0.210838D+00-0.535127D+00
              31           32           33           34           35
      1 0.242338D+00-0.964722D-02 0.116376D-01 0.396847D+00-0.382306D-01
      2-0.518386D-02 0.305371D+00-0.732502D-01 0.279935D-01 0.287994D+00
      3-0.113114D-01-0.168616D+00 0.201866D+00 0.135668D+00-0.422236D-02
              36           37           38           39           40
      1 0.185568D+00-0.946704D-02 0.835441D-01 0.153857D-01-0.401674D-02
      2 0.108712D+00 0.396494D-01-0.105716D+00-0.787665D-01-0.607201D-01
      3 0.638730D+00 0.146306D-01-0.119367D+00-0.750117D-01-0.780342D-03
              41           42           43           44           45
      1-0.671108D-01-0.133644D-01-0.661119D+00 0.945234D-01-0.235169D+00
      2-0.537884D-01 0.283956D-01 0.425534D-01-0.332897D+00-0.124118D+00
      3 0.802378D-01 0.114537D-01-0.170190D+00-0.422811D-01-0.735925D+00
              46           47           48
      1 0.385271D+00-0.426665D-01 0.507620D-01
      2-0.933292D-01 0.206600D+00-0.212674D-01
      3 0.126863D+00 0.433507D-01 0.287118D+00
 Hessian after L703:
                1             2             3             4             5
      1  0.518930D+00
      2 -0.217740D-01  0.308948D+00
      3  0.636747D-01  0.275477D+00  0.357947D+00
      4 -0.149099D+00 -0.480487D-01 -0.679576D-01  0.606158D+00
      5 -0.269809D-01 -0.108722D+00 -0.878631D-01 -0.117284D+00  0.283802D+00
      6 -0.929701D-01 -0.149846D+00 -0.189997D+00  0.710872D-01  0.233261D+00
      7  0.100322D-01 -0.771654D-02 -0.733378D-02 -0.131702D+00  0.955497D-01
      8  0.701584D-02 -0.340850D-02 -0.469018D-02  0.947784D-01 -0.136000D+00
      9  0.141355D-01 -0.175091D-01 -0.129388D-01  0.843646D-01 -0.113875D+00
     10 -0.101691D-01  0.320310D-02 -0.615393D-04 -0.319583D+00  0.513833D-01
     11 -0.108138D-01  0.523294D-02 -0.971204D-03  0.510856D-01 -0.419266D-01
     12 -0.281513D-01  0.255397D-02 -0.160617D-02 -0.526820D-01 -0.496415D-02
     13 -0.115269D+00  0.398022D-01  0.269279D-01  0.111030D-01 -0.782003D-02
     14  0.375136D-01 -0.127564D+00 -0.546845D-01  0.483923D-02 -0.957654D-02
     15  0.297421D-01 -0.569205D-01 -0.111225D+00  0.134157D-01 -0.251448D-01
     16 -0.103390D-02  0.132714D-01 -0.689167D-02  0.201928D-03 -0.297579D-03
     17 -0.925186D-03 -0.210332D-01  0.913770D-02  0.116225D-02  0.119517D-02
     18 -0.688729D-03 -0.162872D-01  0.102052D-01 -0.302984D-03 -0.146190D-02
     19  0.981512D-02  0.120102D-02  0.135594D-01 -0.163199D-02  0.266914D-02
     20 -0.122392D-01 -0.516391D-02 -0.215327D-01  0.343744D-02 -0.245551D-02
     21 -0.653965D-02 -0.325792D-02 -0.139231D-01  0.204919D-02 -0.264430D-02
     22 -0.163881D-01 -0.177110D-02  0.175215D-02  0.954551D-03 -0.179363D-03
     23  0.262253D-01  0.519149D-02 -0.950657D-03 -0.498005D-03  0.173058D-03
     24  0.175177D-01  0.538787D-02 -0.269663D-02  0.554074D-03 -0.254871D-03
     25 -0.284152D-01  0.277436D-01 -0.577559D-01  0.137389D-01  0.140072D-01
     26  0.889373D-02  0.169087D-01 -0.925434D-01  0.192594D-01  0.646027D-02
     27  0.773000D-02 -0.274048D-01  0.671744D-01 -0.192046D-01 -0.146237D-02
     28  0.115109D-02 -0.136852D-01  0.425353D-01 -0.808059D-02 -0.985647D-02
     29 -0.114731D-01  0.566045D-02  0.961570D-03  0.101422D-02  0.640936D-03
     30  0.228059D-02  0.418889D-02 -0.258466D-01  0.533899D-02  0.518190D-02
     31 -0.127218D-02  0.743063D-03 -0.153153D-02  0.900163D-03  0.964845D-03
     32 -0.203079D-02  0.254781D-03 -0.649492D-02  0.118750D-02  0.879848D-03
     33  0.249593D-02 -0.684279D-03  0.292729D-02 -0.443624D-03  0.260680D-03
     34 -0.174115D+00  0.935389D-02  0.381921D-02 -0.127716D-01 -0.391015D-02
     35  0.106161D-01 -0.751904D-01 -0.138651D-01 -0.975262D-02  0.300252D-02
     36 -0.524984D-04 -0.130211D-01 -0.720410D-01 -0.285549D-01 -0.917297D-03
     37 -0.165817D-01  0.291683D-01  0.156834D-01  0.101227D-03  0.377524D-03
     38 -0.172736D-02 -0.198785D-02 -0.283520D-03 -0.513588D-03  0.681262D-03
     39  0.295387D-02 -0.612271D-03  0.722762D-03 -0.925477D-03  0.717178D-03
     40 -0.130548D-01 -0.261698D-01  0.117407D-01 -0.498209D-03  0.914098D-03
     41 -0.439226D-03  0.119137D-03 -0.144272D-02 -0.271682D-04  0.923930D-03
     42  0.273255D-02 -0.105402D-02  0.422417D-02 -0.138631D-02 -0.101474D-02
     43 -0.166448D-01 -0.736839D-02 -0.383256D-01 -0.816337D-02  0.154551D-02
     44 -0.799170D-03  0.746804D-03 -0.363001D-02  0.107988D-02  0.196050D-02
     45 -0.145310D-01 -0.255936D-02 -0.144032D-01 -0.589480D-02  0.470636D-03
     46  0.211385D-02  0.204701D-02  0.164822D-03 -0.162899D-02 -0.108333D-02
     47 -0.106189D-02  0.714756D-05  0.337589D-02 -0.172033D-02 -0.103858D-02
     48 -0.329675D-03  0.154916D-02  0.147647D-02  0.542508D-03 -0.289039D-03
                6             7             8             9            10
      6  0.474684D+00
      7  0.856119D-01  0.130130D+00
      8 -0.119952D+00 -0.101775D+00  0.136384D+00
      9 -0.150838D+00 -0.912993D-01  0.129083D+00  0.158021D+00
     10 -0.574038D-01 -0.890986D-02  0.249307D-03 -0.468296D-02  0.335599D+00
     11 -0.620447D-02  0.153567D-01  0.117002D-02  0.312182D-02 -0.542172D-01
     12 -0.563479D-01  0.166330D-01 -0.304140D-02  0.653708D-02  0.637195D-01
     13 -0.365055D-02 -0.541134D-03 -0.876835D-03 -0.397945D-02  0.713356D-03
     14 -0.117848D-01  0.203747D-03  0.310282D-02 -0.101621D-02  0.245043D-03
     15 -0.195566D-01 -0.227563D-02 -0.410293D-02 -0.144972D-02  0.148910D-02
     16 -0.886147D-03 -0.140950D-03 -0.202222D-03  0.654944D-04  0.267123D-04
     17  0.292684D-03  0.706958D-04  0.520418D-03 -0.407404D-03 -0.394166D-03
     18 -0.159087D-02  0.250644D-04  0.471579D-03 -0.577079D-04 -0.215516D-03
     19  0.168344D-02  0.396025D-03  0.583201D-03  0.701310D-03  0.130892D-03
     20 -0.274065D-02 -0.379086D-03 -0.596230D-03 -0.107502D-02  0.931078D-04
     21 -0.212776D-02 -0.592137D-03 -0.576621D-03 -0.320963D-03  0.786239D-04
     22 -0.142870D-02  0.260830D-03  0.287413D-03 -0.966367D-04  0.392200D-03
     23 -0.529158D-03 -0.750245D-04 -0.645022D-04  0.246998D-03 -0.375699D-03
     24  0.479223D-03 -0.325091D-03  0.152182D-03  0.149723D-03 -0.457574D-03
     25  0.203723D-01 -0.356296D-03 -0.276754D-03 -0.154499D-03 -0.314489D-03
     26  0.519685D-01  0.262344D-03  0.459327D-03 -0.435814D-03 -0.483868D-03
     27 -0.547300D-01 -0.491640D-03  0.261805D-03  0.945881D-03  0.570540D-03
     28 -0.146998D-01  0.297792D-03  0.175283D-03 -0.980748D-04  0.585394D-03
     29  0.210926D-02 -0.110098D-03 -0.147729D-03  0.121143D-03 -0.862663D-04
     30  0.648689D-02  0.122586D-03  0.164343D-03  0.325317D-04 -0.105327D-03
     31  0.415145D-03 -0.113073D-03 -0.111999D-03  0.862536D-04 -0.154857D-04
     32  0.220990D-02  0.207652D-03  0.120337D-03 -0.548453D-04  0.146775D-03
     33 -0.999902D-03 -0.354825D-04 -0.391003D-04 -0.896153D-04 -0.232458D-03
     34 -0.704948D-02  0.450810D-03  0.125900D-02  0.188553D-02  0.199664D-02
     35  0.185945D-02 -0.190649D-02 -0.174878D-02  0.393993D-03  0.733855D-03
     36 -0.242420D-02 -0.779184D-03  0.199958D-02 -0.758364D-03 -0.259025D-02
     37  0.710924D-03  0.179910D-03 -0.492988D-03 -0.960948D-03  0.353316D-03
     38 -0.341406D-03  0.348360D-03  0.263169D-03  0.716202D-03  0.160326D-04
     39  0.436193D-03 -0.100449D-03 -0.739115D-04  0.424770D-03  0.184346D-03
     40  0.890448D-03 -0.253379D-03 -0.603822D-03  0.161881D-03  0.125506D-03
     41  0.216774D-04 -0.133332D-03 -0.257047D-03  0.228892D-03 -0.132520D-03
     42 -0.172531D-02  0.134973D-04 -0.308042D-04 -0.751872D-04  0.153050D-03
     43 -0.538256D-03  0.166797D-03 -0.133818D-03 -0.301542D-03 -0.901222D-03
     44  0.127569D-02  0.298844D-04  0.345095D-03  0.562469D-03 -0.324186D-03
     45 -0.117694D-02  0.834825D-03  0.318937D-03  0.544300D-03 -0.607790D-03
     46 -0.214455D-02  0.101738D-03  0.124857D-03  0.172830D-03 -0.298185D-04
     47 -0.159999D-02  0.663217D-04 -0.141701D-03 -0.100900D-03 -0.566947D-04
     48 -0.570932D-03 -0.819999D-05  0.555487D-04 -0.126508D-03  0.162066D-03
               11            12            13            14            15
     11  0.336009D-01
     12  0.704772D-02  0.531537D-01
     13 -0.102841D-02 -0.333624D-03  0.564282D+00
     14 -0.100008D-02  0.158127D-02  0.356003D-01  0.501852D+00
     15  0.223429D-02  0.307776D-03  0.285155D-01 -0.235304D-01  0.550265D+00
     16 -0.143625D-05 -0.122593D-03 -0.442941D-01 -0.260337D-02  0.132747D-02
     17 -0.637396D-03  0.163916D-03 -0.397302D-02 -0.235796D+00  0.114276D+00
     18 -0.105290D-03 -0.248388D-04  0.273917D-02  0.112678D+00 -0.111908D+00
     19  0.108387D-03  0.165998D-03 -0.107010D+00 -0.179019D-01 -0.111519D+00
     20 -0.975161D-05  0.160835D-03 -0.165653D-01 -0.511252D-01 -0.298069D-01
     21  0.237729D-03  0.443768D-04 -0.107476D+00 -0.329062D-01 -0.255423D+00
     22 -0.148249D-03  0.644751D-03 -0.288909D+00 -0.676111D-01  0.397847D-01
     23  0.258843D-03  0.954849D-05 -0.708432D-01 -0.621964D-01  0.941509D-02
     24 -0.200056D-03 -0.394296D-03  0.407164D-01  0.895660D-02 -0.538661D-01
     25 -0.412076D-03  0.260486D-03  0.276230D-02  0.528061D-02 -0.295670D-02
     26  0.159714D-03 -0.168415D-03 -0.240315D-02 -0.221345D-01  0.137215D-01
     27 -0.822027D-03  0.963102D-03 -0.192989D-03  0.156193D-02 -0.798399D-03
     28 -0.602143D-04  0.648659D-03 -0.172485D-02  0.863100D-03 -0.484683D-03
     29  0.271351D-03 -0.223167D-03  0.616722D-03 -0.653640D-03  0.779332D-03
     30 -0.292167D-03  0.609431D-04  0.331068D-03 -0.100509D-02  0.117594D-02
     31  0.411822D-04 -0.809301D-04  0.164359D-03  0.411532D-03 -0.322546D-03
     32 -0.251025D-03  0.391856D-03 -0.366431D-03 -0.347261D-03  0.530343D-03
     33  0.278730D-03 -0.386846D-03  0.237972D-03  0.303036D-03 -0.528147D-03
     34  0.104576D-02  0.174508D-02 -0.166598D-01  0.530636D-02  0.438538D-02
     35  0.255439D-02 -0.359332D-02  0.267649D-01  0.444235D-02 -0.171468D-02
     36 -0.439652D-02 -0.160336D-02  0.167363D-01  0.236019D-02  0.381118D-02
     37 -0.367279D-03 -0.142922D-03 -0.563414D-02 -0.263236D-02 -0.109459D-02
     38  0.341168D-03  0.303560D-03  0.833386D-04  0.951058D-03  0.167136D-03
     39  0.425649D-03 -0.226249D-04 -0.935156D-03 -0.159250D-03  0.646139D-03
     40  0.726430D-03 -0.690413D-03  0.154515D-02  0.461062D-03 -0.371722D-03
     41  0.169078D-04 -0.673361D-04 -0.133188D-03  0.538892D-04  0.135620D-03
     42  0.201226D-04  0.144139D-03  0.122052D-04  0.897848D-04  0.875994D-05
     43 -0.149953D-02 -0.151096D-02  0.546142D-03  0.543380D-03  0.553071D-03
     44  0.982102D-04  0.236315D-03  0.829195D-03  0.281078D-03 -0.506271D-03
     45 -0.406242D-03 -0.104833D-02  0.279712D-03 -0.278138D-02 -0.170015D-02
     46  0.184042D-03 -0.102699D-03 -0.107480D-02 -0.519241D-03 -0.187912D-03
     47  0.120449D-03 -0.391200D-03  0.312824D-03 -0.289648D-03  0.467506D-03
     48  0.319241D-04  0.223258D-03  0.713225D-04  0.337274D-03  0.240896D-03
               16            17            18            19            20
     16  0.446207D-01
     17  0.238372D-02  0.258788D+00
     18 -0.391092D-02 -0.123736D+00  0.120570D+00
     19  0.203960D-03  0.410233D-03  0.231164D-02  0.111413D+00
     20  0.136569D-01  0.484481D-02  0.248089D-01  0.159413D-01  0.559899D-01
     21 -0.672945D-02 -0.198061D-02 -0.131092D-01  0.119051D+00  0.371544D-01
     22  0.133216D-02 -0.147747D-03 -0.375794D-03 -0.121167D-01 -0.329363D-02
     23 -0.267049D-01 -0.661750D-02  0.316146D-02 -0.284351D-02 -0.213738D-02
     24  0.158053D-01  0.358451D-02 -0.330384D-02 -0.267926D-01 -0.761536D-02
     25 -0.143478D-02  0.384251D-03  0.269380D-02 -0.232049D-03  0.580336D-03
     26  0.252065D-02 -0.232699D-02 -0.113491D-02 -0.993256D-03  0.161471D-02
     27  0.965411D-03 -0.380114D-03 -0.116641D-02  0.226264D-03 -0.409002D-03
     28  0.103927D-02  0.894018D-03 -0.137821D-02  0.273636D-03 -0.605632D-03
     29 -0.125523D-02  0.723181D-03  0.880803D-03 -0.745635D-04 -0.469336D-03
     30 -0.415333D-04 -0.674983D-03  0.164745D-03  0.229686D-03  0.477727D-03
     31 -0.566545D-04  0.107048D-03 -0.754279D-05 -0.177127D-03 -0.135909D-03
     32  0.951568D-04 -0.445240D-05  0.125086D-03  0.245760D-03  0.253247D-03
     33 -0.207512D-03  0.276424D-04  0.192507D-03  0.754943D-04  0.226728D-04
     34  0.139310D-03 -0.478467D-03 -0.141798D-03 -0.448734D-04 -0.762927D-03
     35 -0.277823D-03 -0.215888D-04  0.759742D-03 -0.317381D-03  0.396736D-03
     36 -0.157144D-03  0.239360D-03 -0.108564D-03  0.141689D-02 -0.887631D-03
     37  0.107841D-03  0.104576D-03 -0.229311D-03  0.332095D-03 -0.136687D-03
     38 -0.231726D-03  0.215318D-03  0.133925D-03 -0.184438D-03  0.805161D-04
     39  0.169317D-03 -0.180457D-03  0.788017D-05 -0.465551D-03  0.191035D-03
     40 -0.529251D-03  0.480630D-03  0.123378D-03 -0.167528D-03  0.860284D-05
     41 -0.322283D-04  0.184103D-03  0.132338D-04  0.377299D-04 -0.173556D-04
     42  0.217594D-03 -0.144324D-03  0.518109D-04 -0.875731D-04  0.175530D-03
     43 -0.514655D-03  0.141053D-03 -0.775086D-03 -0.124183D-02 -0.531997D-03
     44 -0.158138D-03 -0.160836D-04  0.168936D-03  0.743573D-04 -0.214797D-04
     45  0.389748D-03 -0.130317D-03  0.204163D-03 -0.405514D-03  0.130753D-02
[...]
    X8       -0.59626   0.00000   0.00000   0.00002  -0.00002  -0.59627
    Y8        0.26446   0.00000   0.00000   0.00017   0.00010   0.26456
    Z8       -1.18051   0.00000   0.00000  -0.00006  -0.00006  -1.18057
    X9       -3.55063   0.00000   0.00000   0.00010   0.00016  -3.55047
    Y9        4.67775   0.00000   0.00000  -0.00010  -0.00011   4.67764
    Z9       -1.40029   0.00000   0.00000  -0.00011  -0.00011  -1.40040
   X10       -1.29761   0.00000   0.00000   0.00017   0.00023  -1.29738
   Y10        4.66489   0.00001   0.00000  -0.00019  -0.00024   4.66465
   Z10       -2.78550   0.00000   0.00000  -0.00002  -0.00003  -2.78553
   X11       -0.30553  -0.00001   0.00000   0.00003   0.00012  -0.30542
   Y11        5.94248   0.00000   0.00000  -0.00001  -0.00008   5.94240
   Z11       -1.93164   0.00000   0.00000  -0.00015  -0.00015  -1.93180
   X12       -6.77641   0.00000   0.00000  -0.00003  -0.00004  -6.77645
   Y12        1.76182   0.00000   0.00000  -0.00014  -0.00007   1.76175
   Z12        0.48541   0.00000   0.00000   0.00003   0.00002   0.48543
   X13       -7.48725   0.00000   0.00000  -0.00014  -0.00010  -7.48736
   Y13        3.46756  -0.00001   0.00000  -0.00042  -0.00034   3.46722
   Z13        1.43390   0.00000   0.00000   0.00045   0.00044   1.43434
   X14       -7.52481   0.00000   0.00000   0.00015   0.00011  -7.52471
   Y14        0.12187  -0.00001   0.00000  -0.00044  -0.00036   0.12152
   Z14        1.50048   0.00000   0.00000  -0.00030  -0.00032   1.50016
   X15       -7.67219   0.00000   0.00000  -0.00017  -0.00017  -7.67236
   Y15        1.58074  -0.00001   0.00000   0.00034   0.00042   1.58116
   Z15       -2.02134   0.00000   0.00000   0.00006   0.00004  -2.02130
   X16       -6.80115   0.00000   0.00000  -0.00012  -0.00009  -6.80124
   Y16        2.90046   0.00000   0.00000   0.00039   0.00045   2.90091
   Z16       -2.93643   0.00000   0.00000   0.00019   0.00017  -2.93625
         Item               Value     Threshold  Converged?
 Maximum Force            0.000007     0.000450     YES
 RMS     Force            0.000003     0.000300     YES
 Maximum Displacement     0.000452     0.001800     YES
 RMS     Displacement     0.000172     0.001200     YES
 Predicted change in Energy=-1.935224D-09
 Optimization completed.
    -- Stationary point found.
 GradGradGradGradGradGradGradGradGradGradGradGradGradGradGradGradGradGrad


 Test job not archived.
 1\1\GINC-NODE23\Freq\UB3LYP\CBSB7\C4H9O3(2)\NYEE\09-Jun-2013\0\\# freq
  nosymm b3lyp/cbsb7 iop(7/33=1)\\Title Card Required\\0,2\C,-2.066466,
 0.915674,0.357595\C,-1.482578,1.410812,1.521716\H,-2.037834,2.05671,2.
 191531\H,-0.434003,1.242569,1.73776\C,-1.353714,-0.140226,-0.44537\H,-
 1.369681,-1.08676,0.104947\H,-1.851657,-0.292701,-1.401701\H,-0.315525
 ,0.139946,-0.624698\O,-1.878915,2.475359,-0.741001\O,-0.686667,2.46855
 6,-1.474021\H,-0.161682,3.144623,-1.022182\C,-3.585921,0.932313,0.2568
 67\H,-3.962083,1.834952,0.758787\H,-3.98196,0.064493,0.794018\O,-4.059
 946,0.83649,-1.069647\H,-3.599013,1.534857,-1.55389\\Version=AM64L-G03
 RevD.01\HF=-383.4446243\S2=0.7774\S2-1=0.\S2A=0.75014\RMSD=3.413e-09\R
 MSF=3.204e-06\ZeroPoint=0.1287759\Thermal=0.1375101\Dipole=0.8623196,0
 .2618364,0.8148891\DipoleDeriv=0.2413617,0.139091,-0.1576319,-0.000430
 6,0.2304707,0.1766466,0.2551955,0.7709632,-0.4843143,-0.0438554,-0.309
 1344,0.1524876,-0.1889088,-0.3435715,0.2063017,-0.1099736,-0.2768546,0
 .2153158,0.0156286,0.0743741,0.0456207,0.0455798,0.0461858,-0.102856,0
 .0166533,-0.0660541,0.0336354,-0.079367,0.0304363,-0.0593741,0.0451496
 ,0.1012453,-0.0379678,-0.0099323,-0.032754,0.0696865,-0.060116,0.07447
 98,0.0379091,0.0299036,-0.0689424,-0.0774205,0.0226473,-0.0631453,0.06
 28521,0.0880926,0.0053733,0.0205076,-0.0025355,-0.0794859,0.036056,-0.
 0029048,0.0565627,0.0249915,0.072953,-0.0129747,-0.0771586,-0.0032647,
 0.0601961,0.0159223,-0.0438298,-0.0588451,-0.0228227,-0.0810469,-0.005
 9097,0.0113824,-0.0569959,0.0564359,0.0176204,0.0164416,-0.0470737,0.0
 562701,0.0420179,0.4760166,-0.8074425,0.1504973,-0.0764866,-0.2342428,
 -0.2794821,-0.4741258,0.2512815,-0.5455215,-0.4227153,0.7388199,-0.039
 407,-0.2336098,0.2108378,0.1203646,0.3516215,-0.5351265,0.2423384,-0.0
 051839,-0.0113114,-0.0096472,0.3053708,-0.1686158,0.0116376,-0.0732502
 ,0.2018665,0.3968465,0.0279935,0.1356681,-0.0382306,0.2879943,-0.00422
 24,0.1855681,0.1087117,0.6387295,-0.009467,0.0396494,0.0146306,0.08354
 41,-0.1057164,-0.1193669,0.0153857,-0.0787665,-0.0750117,-0.0040167,-0
 .0607201,-0.0007803,-0.0671108,-0.0537884,0.0802378,-0.0133644,0.02839
 56,0.0114537,-0.6611187,0.0425534,-0.1701903,0.0945234,-0.3328974,-0.0
 422811,-0.2351687,-0.1241179,-0.7359249,0.3852707,-0.0933292,0.1268631
 ,-0.0426665,0.2065997,0.0433507,0.050762,-0.0212674,0.2871176\Polar=62
 .7992434,5.3435813,61.8500287,-2.85764,-8.1535611,75.8955653\PG=C01 [X
 (C4H9O3)]\NImag=1\\0.51892991,-0.02177399,0.30894835,0.06367472,0.2754
 7679,0.35794744,-0.14909872,-0.04804866,-0.06795757,0.60615840,-0.0269
 8090,-0.10872202,-0.08786310,-0.11728353,0.28380222,-0.09297011,-0.149
 84614,-0.18999724,0.07108722,0.23326147,0.47468384,0.01003219,-0.00771
 654,-0.00733378,-0.13170165,0.09554970,0.08561187,0.13013025,0.0070158
 4,-0.00340850,-0.00469018,0.09477837,-0.13600046,-0.11995204,-0.101774
 83,0.13638377,0.01413548,-0.01750906,-0.01293884,0.08436458,-0.1138752
 7,-0.15083845,-0.09129926,0.12908300,0.15802108,-0.01016912,0.00320310
 ,-0.00006154,-0.31958308,0.05138334,-0.05740380,-0.00890986,0.00024931
 ,-0.00468296,0.33559905,-0.01081377,0.00523294,-0.00097120,0.05108563,
 -0.04192660,-0.00620447,0.01535669,0.00117002,0.00312182,-0.05421716,0
 .03360086,-0.02815130,0.00255397,-0.00160617,-0.05268205,-0.00496415,-
 0.05634789,0.01663301,-0.00304140,0.00653708,0.06371949,0.00704772,0.0
 5315369,-0.11526902,0.03980224,0.02692788,0.01110300,-0.00782003,-0.00
 365055,-0.00054113,-0.00087684,-0.00397945,0.00071336,-0.00102841,-0.0
 0033362,0.56428234,0.03751358,-0.12756393,-0.05468448,0.00483923,-0.00
 957654,-0.01178476,0.00020375,0.00310282,-0.00101621,0.00024504,-0.001
 00008,0.00158127,0.03560034,0.50185214,0.02974211,-0.05692048,-0.11122
 508,0.01341575,-0.02514483,-0.01955663,-0.00227563,-0.00410293,-0.0014
 4972,0.00148910,0.00223429,0.00030778,0.02851555,-0.02353044,0.5502648
 9,-0.00103390,0.01327142,-0.00689167,0.00020193,-0.00029758,-0.0008861
 5,-0.00014095,-0.00020222,0.00006549,0.00002671,-0.00000144,-0.0001225
 9,-0.04429410,-0.00260337,0.00132747,0.04462068,-0.00092519,-0.0210332
 0,0.00913770,0.00116225,0.00119517,0.00029268,0.00007070,0.00052042,-0
 .00040740,-0.00039417,-0.00063740,0.00016392,-0.00397302,-0.23579625,0
 .11427574,0.00238372,0.25878783,-0.00068873,-0.01628719,0.01020521,-0.
 00030298,-0.00146190,-0.00159087,0.00002506,0.00047158,-0.00005771,-0.
 00021552,-0.00010529,-0.00002484,0.00273917,0.11267770,-0.11190814,-0.
 00391092,-0.12373558,0.12057044,0.00981512,0.00120102,0.01355941,-0.00
 163199,0.00266914,0.00168344,0.00039602,0.00058320,0.00070131,0.000130
 89,0.00010839,0.00016600,-0.10701027,-0.01790193,-0.11151930,0.0002039
 6,0.00041023,0.00231164,0.11141325,-0.01223916,-0.00516391,-0.02153266
 ,0.00343744,-0.00245551,-0.00274065,-0.00037909,-0.00059623,-0.0010750
 2,0.00009311,-0.00000975,0.00016083,-0.01656528,-0.05112517,-0.0298068
 7,0.01365687,0.00484481,0.02480887,0.01594134,0.05598988,-0.00653965,-
 0.00325792,-0.01392306,0.00204919,-0.00264430,-0.00212776,-0.00059214,
 -0.00057662,-0.00032096,0.00007862,0.00023773,0.00004438,-0.10747580,-
 0.03290616,-0.25542327,-0.00672945,-0.00198061,-0.01310916,0.11905089,
 0.03715443,0.27795806,-0.01638808,-0.00177110,0.00175215,0.00095455,-0
 .00017936,-0.00142870,0.00026083,0.00028741,-0.00009664,0.00039220,-0.
 00014825,0.00064475,-0.28890856,-0.06761107,0.03978466,0.00133216,-0.0
 0014775,-0.00037579,-0.01211672,-0.00329363,0.00293858,0.31459470,0.02
 622526,0.00519149,-0.00095066,-0.00049801,0.00017306,-0.00052916,-0.00
 007502,-0.00006450,0.00024700,-0.00037570,0.00025884,0.00000955,-0.070
 84321,-0.06219636,0.00941509,-0.02670486,-0.00661750,0.00316146,-0.002
 84351,-0.00213738,0.00110737,0.07341455,0.06906707,0.01751771,0.005387
 87,-0.00269663,0.00055407,-0.00025487,0.00047922,-0.00032509,0.0001521
 8,0.00014972,-0.00045757,-0.00020006,-0.00039430,0.04071642,0.00895660
 ,-0.05386605,0.01580526,0.00358451,-0.00330384,-0.02679257,-0.00761536
 ,0.00696809,-0.04625941,-0.00905238,0.05500906,-0.02841516,0.02774361,
 -0.05775589,0.01373887,0.01400720,0.02037233,-0.00035630,-0.00027675,-
 0.00015450,-0.00031449,-0.00041208,0.00026049,0.00276230,0.00528061,-0
 .00295670,-0.00143478,0.00038425,0.00269380,-0.00023205,0.00058034,0.0
 0161064,-0.00190087,0.00110109,0.00023538,0.27168966,0.00889373,0.0169
 0871,-0.09254339,0.01925937,0.00646027,0.05196848,0.00026234,0.0004593
 3,-0.00043581,-0.00048387,0.00015971,-0.00016842,-0.00240315,-0.022134
 46,0.01372146,0.00252065,-0.00232699,-0.00113491,-0.00099326,0.0016147
 1,0.00170800,-0.00067556,0.00187559,0.00066436,-0.01526436,0.04522841,
 0.00773000,-0.02740483,0.06717442,-0.01920463,-0.00146237,-0.05473002,
 -0.00049164,0.00026181,0.00094588,0.00057054,-0.00082203,0.00096310,-0
 .00019299,0.00156193,-0.00079840,0.00096541,-0.00038011,-0.00116641,0.
 00022626,-0.00040900,-0.00043847,0.00146628,-0.00121307,-0.00062969,-0
 .08736118,0.02217077,0.06527432,0.00115109,-0.01368524,0.04253529,-0.0
 0808059,-0.00985647,-0.01469978,0.00029779,0.00017528,-0.00009807,0.00
 058539,-0.00006021,0.00064866,-0.00172485,0.00086310,-0.00048468,0.001
 03927,0.00089402,-0.00137821,0.00027364,-0.00060563,-0.00119475,0.0019
 6365,-0.00110758,-0.00060776,-0.19905686,0.02082954,0.09718421,0.34325
 361,-0.01147307,0.00566045,0.00096157,0.00101422,0.00064094,0.00210926
 ,-0.00011010,-0.00014773,0.00012114,-0.00008627,0.00027135,-0.00022317
 ,0.00061672,-0.00065364,0.00077933,-0.00125523,0.00072318,0.00088080,-
 0.00007456,-0.00046934,-0.00015444,-0.00160233,-0.00153729,0.00082335,
 -0.01640993,-0.04508128,-0.00551864,0.18746449,0.30216614,0.00228059,0
 .00418889,-0.02584661,0.00533899,0.00518190,0.00648689,0.00012259,0.00
 016434,0.00003253,-0.00010533,-0.00029217,0.00006094,0.00033107,-0.001
 00509,0.00117594,-0.00004153,-0.00067498,0.00016475,0.00022969,0.00047
 773,0.00057436,-0.00020169,0.00032055,-0.00052316,0.08134171,-0.024310
 20,-0.07484398,0.00488569,0.18921213,0.24100911,-0.00127218,0.00074306
 ,-0.00153153,0.00090016,0.00096484,0.00041514,-0.00011307,-0.00011200,
 0.00008625,-0.00001549,0.00004118,-0.00008093,0.00016436,0.00041153,-0
 .00032255,-0.00005665,0.00010705,-0.00000754,-0.00017713,-0.00013591,0
 .00000859,0.00015576,-0.00019452,0.00023082,-0.03972294,-0.02432122,-0
 .00104759,-0.13943267,-0.15588549,-0.09445085,0.17953157,-0.00203079,0
 .00025478,-0.00649492,0.00118750,0.00087985,0.00220990,0.00020765,0.00
 012034,-0.00005485,0.00014678,-0.00025103,0.00039186,-0.00036643,-0.00
 034726,0.00053034,0.00009516,-0.00000445,0.00012509,0.00024576,0.00025
 325,0.00013104,-0.00012204,-0.00031464,-0.00027849,0.00639158,0.006566
 24,0.00734981,-0.18425111,-0.25725271,-0.17404756,0.17874550,0.2504341
 0,0.00249593,-0.00068428,0.00292729,-0.00044362,0.00026068,-0.00099990
 ,-0.00003548,-0.00003910,-0.00008962,-0.00023246,0.00027873,-0.0003868
 5,0.00023797,0.00030304,-0.00052815,-0.00020751,0.00002764,0.00019251,
 0.00007549,0.00002267,0.00000795,-0.00023588,0.00016082,0.00013437,0.0
 2799591,0.02166821,0.00624508,-0.12616553,-0.19248477,-0.14914015,0.09
 611245,0.16966119,0.14251889,-0.17411467,0.00935389,0.00381921,-0.0127
 7157,-0.00391015,-0.00704948,0.00045081,0.00125900,0.00188553,0.001996
 64,0.00104576,0.00174508,-0.01665978,0.00530636,0.00438538,0.00013931,
 -0.00047847,-0.00014180,-0.00004487,-0.00076293,-0.00167499,0.00037864
 ,0.00080652,-0.00040242,-0.01499853,-0.00857228,0.00560851,0.00313423,
 -0.00110027,-0.00124924,-0.00016144,-0.00059887,0.00029225,0.45721576,
 0.01061612,-0.07519042,-0.01386509,-0.00975262,0.00300252,0.00185945,-
 0.00190649,-0.00174878,0.00039399,0.00073385,0.00255439,-0.00359332,0.
 02676492,0.00444235,-0.00171468,-0.00027782,-0.00002159,0.00075974,-0.
 00031738,0.00039674,-0.00025028,0.00195397,-0.00414568,-0.00291905,-0.
 01684428,-0.00857412,0.00812732,-0.00080882,-0.00402255,0.00170360,-0.
 00023326,-0.00035903,0.00070685,0.00790465,0.60482298,-0.00005250,-0.0
 1302112,-0.07204095,-0.02855486,-0.00091730,-0.00242420,-0.00077918,0.
 00199958,-0.00075836,-0.00259025,-0.00439652,-0.00160336,0.01673627,0.
 00236019,0.00381118,-0.00015714,0.00023936,-0.00010856,0.00141689,-0.0
 0088763,-0.00204681,0.00160107,-0.00288720,-0.00285913,0.00541005,0.00
 241337,-0.00318020,0.00225197,0.00232835,-0.00413004,-0.00035180,-0.00
 017858,-0.00002122,-0.04504509,-0.01031041,0.51588244,-0.01658174,0.02
 916832,0.01568342,0.00010123,0.00037752,0.00071092,0.00017991,-0.00049
 299,-0.00096095,0.00035332,-0.00036728,-0.00014292,-0.00563414,-0.0026
 3236,-0.00109459,0.00010784,0.00010458,-0.00022931,0.00033209,-0.00013
 669,0.00001470,-0.00079174,0.00146899,0.00090088,0.00130298,0.00097299
 ,-0.00117903,0.00023511,0.00016919,-0.00007029,0.00003314,0.00007515,-
 0.00010588,-0.07972620,0.07075878,0.03567033,0.08838222,-0.00172736,-0
 .00198785,-0.00028352,-0.00051359,0.00068126,-0.00034141,0.00034836,0.
 00026317,0.00071620,0.00001603,0.00034117,0.00030356,0.00008334,0.0009
 5106,0.00016714,-0.00023173,0.00021532,0.00013392,-0.00018444,0.000080
 52,0.00016744,0.00001525,-0.00007258,-0.00005307,0.00000399,0.00100274
 ,0.00001982,0.00000414,-0.00008104,0.00015908,-0.00002411,0.00005980,-
 0.00004541,0.07445374,-0.22083688,-0.08006554,-0.07773088,0.23357002,0
 .00295387,-0.00061227,0.00072276,-0.00092548,0.00071718,0.00043619,-0.
 00010045,-0.00007391,0.00042477,0.00018435,0.00042565,-0.00002262,-0.0
 0093516,-0.00015925,0.00064614,0.00016932,-0.00018046,0.00000788,-0.00
 046555,0.00019104,0.00005366,-0.00005949,0.00009349,0.00025905,0.00029
 288,-0.00051133,0.00040269,-0.00029051,0.00018440,0.00028512,0.0000312
 5,0.00001667,-0.00003083,0.03687488,-0.07818814,-0.08694193,-0.0344318
 8,0.09627867,0.10883962,-0.01305479,-0.02616976,0.01174070,-0.00049821
 ,0.00091410,0.00089045,-0.00025338,-0.00060382,0.00016188,0.00012551,0
 .00072643,-0.00069041,0.00154515,0.00046106,-0.00037172,-0.00052925,0.
 00048063,0.00012338,-0.00016753,0.00000860,0.00020170,0.00020429,-0.00
 009710,-0.00028538,-0.00247250,0.00050728,0.00055238,-0.00072286,-0.00
 117707,0.00025516,-0.00003232,-0.00013534,0.00036177,-0.08502584,-0.07
 827494,0.04929944,0.00554716,0.01012445,-0.00532400,0.08947351,-0.0004
 3923,0.00011914,-0.00144272,-0.00002717,0.00092393,0.00002168,-0.00013
 333,-0.00025705,0.00022889,-0.00013252,0.00001691,-0.00006734,-0.00013
 319,0.00005389,0.00013562,-0.00003223,0.00018410,0.00001323,0.00003773
 ,-0.00001736,-0.00005014,-0.00018183,0.00011016,0.00006238,-0.00018648
 ,0.00110030,-0.00015193,0.00030293,0.00000703,-0.00035043,-0.00000962,
 0.00001252,0.00005315,-0.07448485,-0.21622347,0.09638763,-0.01021649,-
 0.02121047,0.01131955,0.08277074,0.22771355,0.00273255,-0.00105402,0.0
 0422417,-0.00138631,-0.00101474,-0.00172531,0.00001350,-0.00003080,-0.
 00007519,0.00015305,0.00002012,0.00014414,0.00001221,0.00008978,0.0000
 0876,0.00021759,-0.00014432,0.00005181,-0.00008757,0.00017553,-0.00010
 358,0.00004838,-0.00020139,-0.00000727,0.00073287,0.00165609,-0.000960
 20,-0.00099550,-0.00035408,0.00070904,0.00004026,0.00009524,0.00003304
 ,0.04104594,0.08744165,-0.09612833,-0.00467027,-0.00943287,0.00802428,
 -0.04432837,-0.10589098,0.12411218,-0.01664477,-0.00736839,-0.03832561
 ,-0.00816337,0.00154551,-0.00053826,0.00016680,-0.00013382,-0.00030154
 ,-0.00090122,-0.00149953,-0.00151096,0.00054614,0.00054338,0.00055307,
 -0.00051465,0.00014105,-0.00077509,-0.00124183,-0.00053200,-0.00174388
 ,-0.00005369,-0.00039895,-0.00091054,-0.00280349,-0.00165533,-0.004557
 22,-0.00130991,-0.00054974,-0.00048538,-0.00007866,0.00039576,0.000213
 16,-0.08681691,-0.02054574,-0.02523148,0.00643178,-0.00356718,0.002618
 08,0.00647430,0.00201658,0.01024959,0.23603390,-0.00079917,0.00074680,
 -0.00363001,0.00107988,0.00196050,0.00127569,0.00002988,0.00034509,0.0
 0056247,-0.00032419,0.00009821,0.00023631,0.00082919,0.00028108,-0.000
 50627,-0.00015814,-0.00001608,0.00016894,0.00007436,-0.00002148,0.0017
 3509,0.00031388,0.00034406,0.00103716,-0.00709875,-0.00154900,0.001024
 95,-0.00012340,-0.00069439,-0.00265057,-0.00044055,-0.00018863,0.00061
 519,-0.01252130,-0.08561213,0.00699091,-0.01153826,0.00654963,-0.02750
 737,0.01061951,0.00585680,0.02872374,0.20205345,0.34260987,-0.01453101
 ,-0.00255936,-0.01440317,-0.00589480,0.00047064,-0.00117694,0.00083482
 ,0.00031894,0.00054430,-0.00060779,-0.00040624,-0.00104833,0.00027971,
 -0.00278138,-0.00170015,0.00038975,-0.00013032,0.00020416,-0.00040551,
 0.00130753,0.00165207,0.00036223,0.00035470,0.00130387,0.00726300,0.00
 359407,-0.00253262,-0.00366012,0.00024061,0.00331677,0.00039631,0.0007
 6422,-0.00048013,-0.05706392,-0.02414857,-0.21351578,-0.01103313,-0.00
 785465,-0.03387829,-0.00994760,0.00142363,-0.03215040,-0.02215086,-0.1
 5066475,0.44021811,0.00211385,0.00204701,0.00016482,-0.00162899,-0.001
 08333,-0.00214455,0.00010174,0.00012486,0.00017283,-0.00002982,0.00018
 404,-0.00010270,-0.00107480,-0.00051924,-0.00018791,0.00033243,-0.0002
 1989,0.00013284,0.00005740,0.00093262,-0.00000224,-0.00007712,0.000122
 05,0.00008020,0.00221415,0.00112312,-0.00026932,-0.00160603,0.00045944
 ,0.00181883,0.00027758,0.00001375,-0.00035857,0.00700442,0.01022905,-0
 .00962371,-0.00027294,-0.00107001,-0.00059212,-0.00061324,0.00084895,-
 0.00377790,-0.13112441,-0.18199640,0.11576891,0.12432578,-0.00106189,0
 .00000715,0.00337589,-0.00172033,-0.00103858,-0.00159999,0.00006632,-0
 .00014170,-0.00010090,-0.00005669,0.00012045,-0.00039120,0.00031282,-0
 .00028965,0.00046751,-0.00016321,-0.00001737,-0.00047646,0.00104392,-0
 .00118379,-0.00042063,-0.00025215,0.00006567,-0.00029514,0.00099995,-0
 .00171016,-0.00315442,-0.00003503,0.00047087,0.00192278,0.00034351,0.0
 0013688,-0.00050460,0.00229920,0.00151567,-0.00005509,0.00001942,0.000
 47415,-0.00199392,-0.00015478,0.00161003,-0.00007896,-0.17044505,-0.27
 071033,0.18007094,0.16880399,0.27069070,-0.00032967,0.00154916,0.00147
 647,0.00054251,-0.00028904,-0.00057093,-0.00000820,0.00005555,-0.00012
 651,0.00016207,0.00003192,0.00022326,0.00007132,0.00033727,0.00024090,
 0.00000668,-0.00008777,-0.00012723,-0.00015051,-0.00023145,0.00023451,
 0.00005950,-0.00003617,-0.00002332,0.00001921,-0.00046074,-0.00172551,
 0.00206909,0.00109415,0.00066848,0.00047171,-0.00022097,-0.00038230,0.
 01697016,0.03399696,-0.03393476,0.00093800,0.00013063,0.00077151,-0.00
 263937,-0.00169223,-0.00615714,0.08289692,0.14258853,-0.14635347,-0.10
 107941,-0.17676582,0.18578605\\0.00000086,-0.00000017,0.00000137,0.000
 00245,-0.00000239,-0.00000071,0.00000567,0.00000073,-0.00000053,0.0000
 0248,-0.00000405,-0.00000226,-0.00000716,-0.00000293,-0.00000090,-0.00
 000501,-0.00000170,-0.00000044,-0.00000469,-0.00000098,-0.00000039,-0.
 00000231,-0.00000437,-0.00000192,0.00000181,0.00000012,-0.00000184,-0.
 00000043,-0.00000578,-0.00000225,0.00000536,-0.00000423,-0.00000230,0.
 00000061,0.00000441,0.00000376,0.00000201,0.00000573,0.00000172,-0.000
 00121,0.00000597,0.00000321,-0.00000169,0.00000560,0.00000237,0.000001
 24,0.00000403,0.00000111\\\@


 BLESSED ARE THOSE WHO NOUGHT EXPECT,
 FOR THEY SHALL NOT BE DISAPPOINTED..  WALCOT - ODE TO PITT
 Job cpu time:  0 days  1 hours  8 minutes 45.9 seconds.
 File lengths (MBytes):  RWF=    125 Int=      0 D2E=      0 Chk=      8 Scr=      1
 Normal termination of Gaussian 03 at Sun Jun  9 15:02:53 2013.
