 Entering Gaussian System, Link 0=g03
 Input=TS8cfreq.gjf
 Output=TS8cfreq.log
 Initial command:
 /opt/g03/l1.exe /scratch/goldmanm/Gau-18009.inp -scrdir=/scratch/goldmanm/
 Entering Link 1 = /opt/g03/l1.exe PID=     18011.
  
 Copyright (c) 1988,1990,1992,1993,1995,1998,2003,2004, Gaussian, Inc.
                  All Rights Reserved.
  
 This is the Gaussian(R) 03 program.  It is based on the
 the Gaussian(R) 98 system (copyright 1998, Gaussian, Inc.),
 the Gaussian(R) 94 system (copyright 1995, Gaussian, Inc.),
 the Gaussian 92(TM) system (copyright 1992, Gaussian, Inc.),
 the Gaussian 90(TM) system (copyright 1990, Gaussian, Inc.),
 the Gaussian 88(TM) system (copyright 1988, Gaussian, Inc.),
 the Gaussian 86(TM) system (copyright 1986, Carnegie Mellon
 University), and the Gaussian 82(TM) system (copyright 1983,
 Carnegie Mellon University). Gaussian is a federally registered
 trademark of Gaussian, Inc.
  
 This software contains proprietary and confidential information,
 including trade secrets, belonging to Gaussian, Inc.
  
 This software is provided under written license and may be
 used, copied, transmitted, or stored only in accord with that
 written license.
  
 The following legend is applicable only to US Government
 contracts under FAR:
  
                    RESTRICTED RIGHTS LEGEND
  
 Use, reproduction and disclosure by the US Government is
 subject to restrictions as set forth in subparagraphs (a)
 and (c) of the Commercial Computer Software - Restricted
 Rights clause in FAR 52.227-19.
  
 Gaussian, Inc.
 340 Quinnipiac St., Bldg. 40, Wallingford CT 06492
  
  
 ---------------------------------------------------------------
 Warning -- This program may not be used in any manner that
 competes with the business of Gaussian, Inc. or will provide
 assistance to any competitor of Gaussian, Inc.  The licensee
 of this program is prohibited from giving any competitor of
 Gaussian, Inc. access to this program.  By using this program,
 the user acknowledges that Gaussian, Inc. is engaged in the
 business of creating and licensing software in the field of
 computational chemistry and represents and warrants to the
 licensee that it is not a competitor of Gaussian, Inc. and that
 it will not use this program in any manner prohibited above.
 ---------------------------------------------------------------
  

 Cite this work as:
 Gaussian 03, Revision D.01,
 M. J. Frisch, G. W. Trucks, H. B. Schlegel, G. E. Scuseria, 
 M. A. Robb, J. R. Cheeseman, J. A. Montgomery, Jr., T. Vreven, 
 K. N. Kudin, J. C. Burant, J. M. Millam, S. S. Iyengar, J. Tomasi, 
 V. Barone, B. Mennucci, M. Cossi, G. Scalmani, N. Rega, 
 G. A. Petersson, H. Nakatsuji, M. Hada, M. Ehara, K. Toyota, 
 R. Fukuda, J. Hasegawa, M. Ishida, T. Nakajima, Y. Honda, O. Kitao, 
 H. Nakai, M. Klene, X. Li, J. E. Knox, H. P. Hratchian, J. B. Cross, 
 V. Bakken, C. Adamo, J. Jaramillo, R. Gomperts, R. E. Stratmann, 
 O. Yazyev, A. J. Austin, R. Cammi, C. Pomelli, J. W. Ochterski, 
 P. Y. Ayala, K. Morokuma, G. A. Voth, P. Salvador, J. J. Dannenberg, 
 V. G. Zakrzewski, S. Dapprich, A. D. Daniels, M. C. Strain, 
 O. Farkas, D. K. Malick, A. D. Rabuck, K. Raghavachari, 
 J. B. Foresman, J. V. Ortiz, Q. Cui, A. G. Baboul, S. Clifford, 
 J. Cioslowski, B. B. Stefanov, G. Liu, A. Liashenko, P. Piskorz, 
 I. Komaromi, R. L. Martin, D. J. Fox, T. Keith, M. A. Al-Laham, 
 C. Y. Peng, A. Nanayakkara, M. Challacombe, P. M. W. Gill, 
 B. Johnson, W. Chen, M. W. Wong, C. Gonzalez, and J. A. Pople, 
 Gaussian, Inc., Wallingford CT, 2004.
 
 ******************************************
 Gaussian 03:  AM64L-G03RevD.01 13-Oct-2005
                26-Jun-2019 
 ******************************************
 %chk=input.chk
 %mem=1500mb
 %nproc=8
 Will use up to    8 processors via shared memory.
 -------------------------------------
 # freq nosymm b3lyp/cbsb7 iop(7/33=1)
 -------------------------------------
 1/10=4,30=1,38=1/1,3;
 2/15=1,17=6,18=5,40=1/2;
 3/5=4,6=6,7=700,11=2,16=1,25=1,30=1,74=-5/1,2,3;
 4//1;
 5/5=2,38=5/2;
 8/6=4,10=90,11=11/1;
 11/6=1,8=1,9=11,15=111,16=1,31=1/1,2,10;
 10/6=1,31=1/2;
 6/7=2,8=2,9=2,10=2,18=1,28=1/1;
 7/8=1,10=1,25=1,30=1,33=1/1,2,3,16;
 1/10=4,30=1/3;
 99//99;
 -------
 NBO NRT
 -------
 Symbolic Z-matrix:
 Charge =  0 Multiplicity = 2
 C                    -0.002    -0.01045   0.00434 
 C                    -0.00747  -0.03387   1.50639 
 C                     1.30622  -0.0139    2.22877 
 C                    -0.71633  -1.99218   1.91828 
 O                     0.13378  -2.75862   1.44178 
 O                    -1.00778   0.80039   1.94052 
 O                    -1.00876   0.89807   3.39373 
 H                    -1.01871   0.01103  -0.39207 
 H                     0.49868  -0.9095   -0.35774 
 H                     0.53293   0.87221  -0.36615 
 H                     1.85537   0.9055    1.98629 
 H                     1.89292  -0.87496   1.90745 
 H                     1.17324  -0.06001   3.30808 
 H                    -1.67094  -1.79824   1.39 
 H                    -0.74616  -1.7734    3.00265 
 H                    -1.96411   0.95647   3.53341 
 

 GradGradGradGradGradGradGradGradGradGradGradGradGradGradGradGradGradGrad
 Berny optimization.
 Initialization pass.
 Trust Radius=3.00D-01 FncErr=1.00D-07 GrdErr=1.00D-07
 Number of steps in this run=   2 maximum allowed number of steps=   2.
 GradGradGradGradGradGradGradGradGradGradGradGradGradGradGradGradGradGrad

                          Input orientation:                          
 ---------------------------------------------------------------------
 Center     Atomic     Atomic              Coordinates (Angstroms)
 Number     Number      Type              X           Y           Z
 ---------------------------------------------------------------------
    1          6             0       -0.002000   -0.010450    0.004340
    2          6             0       -0.007470   -0.033870    1.506390
    3          6             0        1.306220   -0.013900    2.228770
    4          6             0       -0.716330   -1.992180    1.918280
    5          8             0        0.133780   -2.758620    1.441780
    6          8             0       -1.007780    0.800390    1.940520
    7          8             0       -1.008760    0.898070    3.393730
    8          1             0       -1.018710    0.011030   -0.392070
    9          1             0        0.498680   -0.909500   -0.357740
   10          1             0        0.532930    0.872210   -0.366150
   11          1             0        1.855370    0.905500    1.986290
   12          1             0        1.892920   -0.874960    1.907450
   13          1             0        1.173240   -0.060010    3.308080
   14          1             0       -1.670940   -1.798240    1.390000
   15          1             0       -0.746160   -1.773400    3.002650
   16          1             0       -1.964110    0.956470    3.533410
 ---------------------------------------------------------------------
                    Distance matrix (angstroms):
                    1          2          3          4          5
     1  C    0.000000
     2  C    1.502243   0.000000
     3  C    2.580609   1.499338   0.000000
     4  C    2.846171   2.122996   2.846174   0.000000
     5  O    3.104369   2.729174   3.086658   1.239826   0.000000
     6  O    2.327627   1.372982   2.469970   2.807826   3.770736
     7  O    3.650608   2.330911   2.747354   3.258222   4.299638
     8  H    1.091468   2.151458   3.503530   3.072784   3.515992
     9  H    1.090905   2.120824   2.853814   2.797984   2.605891
    10  H    1.096586   2.149283   2.848996   3.870917   4.075642
    11  H    2.866516   2.140769   1.098025   3.874896   4.084867
    12  H    2.821334   2.116545   1.090361   2.838395   2.619083
    13  H    3.506899   2.154262   1.088448   3.038964   3.441809
    14  H    2.810980   2.427690   3.570838   1.108139   2.045000
    15  H    3.556913   2.410482   2.811938   1.106622   2.044815
    16  H    4.152005   2.986306   3.652227   3.586103   4.751626
                    6          7          8          9         10
     6  O    0.000000
     7  O    1.456489   0.000000
     8  H    2.462557   3.888344   0.000000
     9  H    3.236533   4.428681   1.775113   0.000000
    10  H    2.774828   4.063764   1.774793   1.782059   0.000000
    11  H    2.865444   3.191267   3.836275   3.260262   2.698876
    12  H    3.349918   3.711120   3.814493   2.660110   3.173552
    13  H    2.714288   2.384613   4.301256   3.822944   3.844346
    14  H    2.737833   3.423960   2.621953   2.924330   3.882320
    15  H    2.796598   2.712684   3.844814   3.686214   4.470362
    16  H    1.864464   0.967272   4.146930   4.968725   4.631293
                   11         12         13         14         15
    11  H    0.000000
    12  H    1.782600   0.000000
    13  H    1.773313   1.773090   0.000000
    14  H    4.483373   3.717701   3.845755   0.000000
    15  H    3.870071   2.995230   2.590963   1.859160   0.000000
    16  H    4.121238   4.568869   3.305597   3.502654   3.036000
                   16
    16  H    0.000000
 Symmetry turned off by external request.
 Stoichiometry    C4H9O3(2)
 Framework group  C1[X(C4H9O3)]
 Deg. of freedom    42
 Full point group                 C1
 Rotational constants (GHZ):      3.2575168      1.8929575      1.6668738
 Standard basis: CBSB7 (5D, 7F)
 Integral buffers will be    131072 words long.
 Raffenetti 2 integral format.
 Two-electron integral symmetry is turned off.
   180 basis functions,   296 primitive gaussians,   187 cartesian basis functions
    29 alpha electrons       28 beta electrons
       nuclear repulsion energy       327.5052824238 Hartrees.
 NAtoms=   16 NActive=   16 NUniq=   16 SFac= 7.50D-01 NAtFMM=   80 NAOKFM=F Big=F
 One-electron integrals computed using PRISM.
 NBasis=   180 RedAO= T  NBF=   180
 NBsUse=   180 1.00D-06 NBFU=   180
 Harris functional with IExCor=  402 diagonalized for initial guess.
 ExpMin= 1.03D-01 ExpMax= 8.59D+03 ExpMxC= 1.30D+03 IAcc=1 IRadAn=         1 AccDes= 1.00D-06
 HarFok:  IExCor= 402 AccDes= 1.00D-06 IRadAn=         1 IDoV=1
 ScaDFX=  1.000000  1.000000  1.000000  1.000000
 <S**2> of initial guess= 0.7500
 Requested convergence on RMS density matrix=1.00D-08 within 128 cycles.
 Requested convergence on MAX density matrix=1.00D-06.
 Requested convergence on             energy=1.00D-06.
 No special actions if energy rises.
 Integral accuracy reduced to 1.0D-05 until final iterations.
 EnCoef did     2 forward-backward iterations
 EnCoef did     4 forward-backward iterations
 Initial convergence to 1.0D-05 achieved.  Increase integral accuracy.
 SCF Done:  E(UB+HF-LYP) =  -383.448916568     A.U. after   21 cycles
             Convg  =    0.8924D-08             -V/T =  2.0033
             S**2   =   0.7616
 Annihilation of the first spin contaminant:
 S**2 before annihilation     0.7616,   after     0.7500
 Range of M.O.s used for correlation:     1   180
 NBasis=   180 NAE=    29 NBE=    28 NFC=     0 NFV=     0
 NROrb=    180 NOA=    29 NOB=    28 NVA=   151 NVB=   152
 Symmetrizing basis deriv contribution to polar:
 IMax=3 JMax=2 DiffMx= 0.00D+00
 G2DrvN: will do   17 centers at a time, making    1 passes doing MaxLOS=2.
 FoFDir/FoFCou used for L=0 through L=2.
 DoAtom=TTTTTTTTTTTTTTTT
          Differentiating once with respect to electric field.
                with respect to dipole field.
          Differentiating once with respect to nuclear coordinates.
 Symmetry not used in FoFDir.
 MinBra= 0 MaxBra= 2 Meth= 1.
 IRaf=       0 NMat=  51 IRICut=      51 DoRegI=T DoRafI=T ISym2E= 0 JSym2E=0.
          There are  51 degrees of freedom in the 1st order CPHF.
    48 vectors were produced by pass  0.
 AX will form  48 AO Fock derivatives at one time.
    48 vectors were produced by pass  1.
    48 vectors were produced by pass  2.
    48 vectors were produced by pass  3.
    48 vectors were produced by pass  4.
    48 vectors were produced by pass  5.
    27 vectors were produced by pass  6.
     5 vectors were produced by pass  7.
     3 vectors were produced by pass  8.
 Inv2:  IOpt= 1 Iter= 1 AM= 2.93D-15 Conv= 1.00D-12.
 Inverted reduced A of dimension  323 with in-core refinement.
 Isotropic polarizability for W=    0.000000       65.94 Bohr**3.
 End of Minotr Frequency-dependent properties file   721 does not exist.

 **********************************************************************

            Population analysis using the SCF density.

 **********************************************************************

 Alpha  occ. eigenvalues --  -19.22786 -19.20415 -19.09059 -10.26766 -10.22935
 Alpha  occ. eigenvalues --  -10.18134 -10.17616  -1.16552  -1.01558  -0.96940
 Alpha  occ. eigenvalues --   -0.78870  -0.71959  -0.62816  -0.59568  -0.55189
 Alpha  occ. eigenvalues --   -0.50837  -0.49121  -0.46544  -0.44546  -0.42154
 Alpha  occ. eigenvalues --   -0.41438  -0.41007  -0.40502  -0.38907  -0.36934
 Alpha  occ. eigenvalues --   -0.36144  -0.32232  -0.23944  -0.20325
 Alpha virt. eigenvalues --   -0.02607   0.02652   0.02809   0.05645   0.07980
 Alpha virt. eigenvalues --    0.09142   0.10862   0.11418   0.11608   0.14641
 Alpha virt. eigenvalues --    0.15812   0.18051   0.20340   0.22328   0.24452
 Alpha virt. eigenvalues --    0.29241   0.29877   0.33211   0.36244   0.37816
 Alpha virt. eigenvalues --    0.39526   0.40892   0.41300   0.47655   0.48473
 Alpha virt. eigenvalues --    0.54022   0.55948   0.56119   0.56814   0.58216
 Alpha virt. eigenvalues --    0.58925   0.59916   0.60168   0.62749   0.63013
 Alpha virt. eigenvalues --    0.63670   0.66786   0.69253   0.74716   0.79729
 Alpha virt. eigenvalues --    0.82466   0.84875   0.85646   0.88402   0.93804
 Alpha virt. eigenvalues --    0.96632   0.98590   0.99543   1.02116   1.08051
 Alpha virt. eigenvalues --    1.11638   1.16713   1.18413   1.23211   1.28939
 Alpha virt. eigenvalues --    1.31089   1.35308   1.36902   1.40683   1.43080
 Alpha virt. eigenvalues --    1.45066   1.45800   1.47228   1.48257   1.49995
 Alpha virt. eigenvalues --    1.50930   1.52714   1.54545   1.56599   1.58854
 Alpha virt. eigenvalues --    1.60148   1.61381   1.64067   1.68491   1.70029
 Alpha virt. eigenvalues --    1.72291   1.83356   1.84695   1.85465   1.89168
 Alpha virt. eigenvalues --    1.91147   1.92289   1.93318   1.94847   2.05128
 Alpha virt. eigenvalues --    2.08513   2.15389   2.24582   2.26183   2.31979
 Alpha virt. eigenvalues --    2.32281   2.33694   2.38455   2.38994   2.41328
 Alpha virt. eigenvalues --    2.43763   2.44773   2.45880   2.47855   2.48558
 Alpha virt. eigenvalues --    2.50858   2.53654   2.54742   2.59251   2.59680
 Alpha virt. eigenvalues --    2.60594   2.61898   2.66949   2.82865   2.83945
 Alpha virt. eigenvalues --    2.87288   2.87528   2.89863   2.96347   3.01420
 Alpha virt. eigenvalues --    3.02369   3.06944   3.09878   3.14033   3.18034
 Alpha virt. eigenvalues --    3.30824   3.33061   3.35635   3.47307   3.56800
 Alpha virt. eigenvalues --    3.60956   3.69288   3.73945   3.75199   3.80654
 Alpha virt. eigenvalues --    3.81626   3.82208   3.89456   4.03598   4.25174
 Alpha virt. eigenvalues --    4.69164   4.75094   4.86477   4.95428   4.98976
 Alpha virt. eigenvalues --    5.18841   5.41304   5.55206   5.63196  23.66938
 Alpha virt. eigenvalues --   23.85581  23.89626  23.93813  49.73822  49.79964
 Alpha virt. eigenvalues --   49.95653
  Beta  occ. eigenvalues --  -19.22370 -19.20384 -19.08162 -10.25842 -10.23035
  Beta  occ. eigenvalues --  -10.18165 -10.17615  -1.16011  -0.99966  -0.96398
  Beta  occ. eigenvalues --   -0.78014  -0.71771  -0.61705  -0.58997  -0.54839
  Beta  occ. eigenvalues --   -0.49969  -0.47543  -0.46258  -0.43966  -0.41524
  Beta  occ. eigenvalues --   -0.40872  -0.40403  -0.40264  -0.38669  -0.35828
  Beta  occ. eigenvalues --   -0.34003  -0.30444  -0.23135
  Beta virt. eigenvalues --   -0.09728  -0.02297   0.02871   0.04861   0.06470
  Beta virt. eigenvalues --    0.08170   0.09229   0.11297   0.11657   0.11809
  Beta virt. eigenvalues --    0.14717   0.15882   0.18798   0.21147   0.22686
  Beta virt. eigenvalues --    0.25032   0.29591   0.30236   0.33370   0.36424
  Beta virt. eigenvalues --    0.38013   0.39676   0.41547   0.41855   0.47873
  Beta virt. eigenvalues --    0.49310   0.54553   0.56045   0.56394   0.57264
  Beta virt. eigenvalues --    0.58486   0.59404   0.60131   0.60402   0.62893
  Beta virt. eigenvalues --    0.63168   0.63829   0.67104   0.69566   0.75233
  Beta virt. eigenvalues --    0.79960   0.82790   0.85106   0.86124   0.89149
  Beta virt. eigenvalues --    0.94733   0.97062   0.99479   0.99780   1.02748
  Beta virt. eigenvalues --    1.08675   1.12367   1.16838   1.19068   1.23512
  Beta virt. eigenvalues --    1.29040   1.31757   1.35940   1.37233   1.41331
  Beta virt. eigenvalues --    1.43572   1.45293   1.46312   1.47588   1.48447
  Beta virt. eigenvalues --    1.50377   1.51085   1.53463   1.55120   1.56903
  Beta virt. eigenvalues --    1.59177   1.60818   1.61638   1.64366   1.69022
  Beta virt. eigenvalues --    1.70376   1.72900   1.83676   1.85655   1.85924
  Beta virt. eigenvalues --    1.89524   1.91638   1.92519   1.93725   1.95171
  Beta virt. eigenvalues --    2.05445   2.08771   2.16117   2.24749   2.26688
  Beta virt. eigenvalues --    2.32401   2.32811   2.33961   2.38738   2.39233
  Beta virt. eigenvalues --    2.41565   2.44010   2.45090   2.46089   2.48067
  Beta virt. eigenvalues --    2.48791   2.51085   2.54020   2.55171   2.59613
  Beta virt. eigenvalues --    2.60073   2.61073   2.62287   2.67498   2.83571
  Beta virt. eigenvalues --    2.84487   2.87856   2.88494   2.92427   2.97930
  Beta virt. eigenvalues --    3.01972   3.03650   3.07127   3.10271   3.14677
  Beta virt. eigenvalues --    3.19687   3.31512   3.33944   3.37434   3.47611
  Beta virt. eigenvalues --    3.57484   3.61384   3.69491   3.74058   3.75405
  Beta virt. eigenvalues --    3.80853   3.81920   3.82337   3.89941   4.04163
  Beta virt. eigenvalues --    4.25870   4.69409   4.75416   4.87910   4.99056
  Beta virt. eigenvalues --    4.99742   5.19267   5.41483   5.55901   5.63557
  Beta virt. eigenvalues --   23.67929  23.85520  23.89610  23.93806  49.73870
  Beta virt. eigenvalues --   49.80366  49.96545
          Condensed to atoms (all electrons):
              1          2          3          4          5          6
     1  C    4.879943   0.309628  -0.061849  -0.029967  -0.002945  -0.030841
     2  C    0.309628   5.464507   0.288470   0.109456  -0.047839   0.191529
     3  C   -0.061849   0.288470   4.927327  -0.040477   0.000450  -0.042126
     4  C   -0.029967   0.109456  -0.040477   4.716567   0.502006  -0.017747
     5  O   -0.002945  -0.047839   0.000450   0.502006   7.946270   0.000592
     6  O   -0.030841   0.191529  -0.042126  -0.017747   0.000592   8.032485
     7  O    0.005654  -0.074769  -0.008514  -0.000129   0.000049   0.075492
     8  H    0.393457  -0.031076   0.008484  -0.004592  -0.000282   0.003422
     9  H    0.406297  -0.046835  -0.004580  -0.005644   0.020250   0.004174
    10  H    0.395426  -0.034368  -0.006805   0.004379  -0.000370   0.000118
    11  H   -0.005892  -0.033648   0.387095   0.004507  -0.000339   0.001179
    12  H   -0.004945  -0.042974   0.403501  -0.004601   0.018850   0.003774
    13  H    0.006122  -0.024560   0.399986  -0.004195  -0.000446  -0.007135
    14  H   -0.017365  -0.019050   0.009669   0.353603  -0.048314   0.006194
    15  H    0.007972  -0.014959  -0.020391   0.364431  -0.047882  -0.001711
    16  H   -0.000746   0.003382   0.000647   0.000747  -0.000020  -0.020845
              7          8          9         10         11         12
     1  C    0.005654   0.393457   0.406297   0.395426  -0.005892  -0.004945
     2  C   -0.074769  -0.031076  -0.046835  -0.034368  -0.033648  -0.042974
     3  C   -0.008514   0.008484  -0.004580  -0.006805   0.387095   0.403501
     4  C   -0.000129  -0.004592  -0.005644   0.004379   0.004507  -0.004601
     5  O    0.000049  -0.000282   0.020250  -0.000370  -0.000339   0.018850
     6  O    0.075492   0.003422   0.004174   0.000118   0.001179   0.003774
     7  O    7.916068  -0.000232  -0.000136  -0.000348  -0.000285   0.000409
     8  H   -0.000232   0.548648  -0.019361  -0.027487  -0.000341   0.000122
     9  H   -0.000136  -0.019361   0.527810  -0.028721  -0.001271   0.001631
    10  H   -0.000348  -0.027487  -0.028721   0.574002   0.006201  -0.001230
    11  H   -0.000285  -0.000341  -0.001271   0.006201   0.580915  -0.028400
    12  H    0.000409   0.000122   0.001631  -0.001230  -0.028400   0.535335
    13  H    0.012303  -0.000340   0.000228  -0.000139  -0.026019  -0.021213
    14  H   -0.000111   0.005123  -0.005019  -0.000457  -0.000443   0.003014
    15  H    0.013166  -0.000375   0.003468  -0.000365  -0.000242  -0.003844
    16  H    0.289549  -0.000015   0.000044   0.000039  -0.000021  -0.000087
             13         14         15         16
     1  C    0.006122  -0.017365   0.007972  -0.000746
     2  C   -0.024560  -0.019050  -0.014959   0.003382
     3  C    0.399986   0.009669  -0.020391   0.000647
     4  C   -0.004195   0.353603   0.364431   0.000747
     5  O   -0.000446  -0.048314  -0.047882  -0.000020
     6  O   -0.007135   0.006194  -0.001711  -0.020845
     7  O    0.012303  -0.000111   0.013166   0.289549
     8  H   -0.000340   0.005123  -0.000375  -0.000015
     9  H    0.000228  -0.005019   0.003468   0.000044
    10  H   -0.000139  -0.000457  -0.000365   0.000039
    11  H   -0.026019  -0.000443  -0.000242  -0.000021
    12  H   -0.021213   0.003014  -0.003844  -0.000087
    13  H    0.523597  -0.000219   0.003737  -0.000810
    14  H   -0.000219   0.745032  -0.095388  -0.000159
    15  H    0.003737  -0.095388   0.719290   0.000046
    16  H   -0.000810  -0.000159   0.000046   0.451761
 Mulliken atomic charges:
              1
     1  C   -0.249951
     2  C    0.003105
     3  C   -0.240888
     4  C    0.051655
     5  O   -0.340029
     6  O   -0.198555
     7  O   -0.228164
     8  H    0.124844
     9  H    0.147666
    10  H    0.120124
    11  H    0.117004
    12  H    0.140655
    13  H    0.139106
    14  H    0.063890
    15  H    0.073047
    16  H    0.276488
 Sum of Mulliken charges=   0.00000
 Atomic charges with hydrogens summed into heavy atoms:
              1
     1  C    0.142683
     2  C    0.003105
     3  C    0.155879
     4  C    0.188592
     5  O   -0.340029
     6  O   -0.198555
     7  O    0.048325
     8  H    0.000000
     9  H    0.000000
    10  H    0.000000
    11  H    0.000000
    12  H    0.000000
    13  H    0.000000
    14  H    0.000000
    15  H    0.000000
    16  H    0.000000
 Sum of Mulliken charges=   0.00000
          Atomic-Atomic Spin Densities.
              1          2          3          4          5          6
     1  C   -0.019020  -0.031898   0.006568  -0.004731   0.003462   0.006030
     2  C   -0.031898   0.784711  -0.051316   0.089893  -0.040228  -0.116768
     3  C    0.006568  -0.051316   0.010090  -0.006422   0.005412   0.005047
     4  C   -0.004731   0.089893  -0.006422  -0.057470  -0.056981  -0.004652
     5  O    0.003462  -0.040228   0.005412  -0.056981   0.406571   0.000676
     6  O    0.006030  -0.116768   0.005047  -0.004652   0.000676   0.214052
     7  O    0.000127   0.000314   0.001840  -0.000339  -0.000005  -0.009920
     8  H    0.003147  -0.006077   0.000490  -0.000973   0.000534   0.001341
     9  H    0.003539  -0.010685   0.003114  -0.005883   0.005515   0.000959
    10  H    0.004620  -0.009833  -0.003392   0.001329  -0.000867   0.000786
    11  H   -0.001497  -0.009382  -0.002643   0.001168  -0.000841   0.001865
    12  H    0.001552  -0.008845   0.006445  -0.004026   0.004097   0.000346
    13  H    0.000129  -0.005103   0.005322  -0.000482   0.000421   0.000262
    14  H    0.003045  -0.031625   0.001710   0.001864   0.003137   0.005630
    15  H    0.000660  -0.023419   0.003831   0.003907   0.002105   0.003250
    16  H   -0.000025   0.000991  -0.000171  -0.000062  -0.000005  -0.000158
              7          8          9         10         11         12
     1  C    0.000127   0.003147   0.003539   0.004620  -0.001497   0.001552
     2  C    0.000314  -0.006077  -0.010685  -0.009833  -0.009382  -0.008845
     3  C    0.001840   0.000490   0.003114  -0.003392  -0.002643   0.006445
     4  C   -0.000339  -0.000973  -0.005883   0.001329   0.001168  -0.004026
     5  O   -0.000005   0.000534   0.005515  -0.000867  -0.000841   0.004097
     6  O   -0.009920   0.001341   0.000959   0.000786   0.001865   0.000346
     7  O    0.015918   0.000066   0.000030  -0.000205  -0.000905   0.000051
     8  H    0.000066   0.005827   0.002943  -0.005081  -0.000336   0.000182
     9  H    0.000030   0.002943   0.013838  -0.009550  -0.001828   0.001810
    10  H   -0.000205  -0.005081  -0.009550   0.049013   0.005875  -0.001597
    11  H   -0.000905  -0.000336  -0.001828   0.005875   0.056825  -0.008310
    12  H    0.000051   0.000182   0.001810  -0.001597  -0.008310   0.006953
    13  H    0.000153   0.000033   0.000154  -0.000227  -0.004239   0.001930
    14  H   -0.000042   0.001202   0.002201  -0.000759  -0.000293   0.000454
    15  H   -0.000647   0.000167   0.000342  -0.000182  -0.000514   0.001138
    16  H   -0.000239  -0.000015  -0.000009   0.000019   0.000053  -0.000011
             13         14         15         16
     1  C    0.000129   0.003045   0.000660  -0.000025
     2  C   -0.005103  -0.031625  -0.023419   0.000991
     3  C    0.005322   0.001710   0.003831  -0.000171
     4  C   -0.000482   0.001864   0.003907  -0.000062
     5  O    0.000421   0.003137   0.002105  -0.000005
     6  O    0.000262   0.005630   0.003250  -0.000158
     7  O    0.000153  -0.000042  -0.000647  -0.000239
     8  H    0.000033   0.001202   0.000167  -0.000015
     9  H    0.000154   0.002201   0.000342  -0.000009
    10  H   -0.000227  -0.000759  -0.000182   0.000019
    11  H   -0.004239  -0.000293  -0.000514   0.000053
    12  H    0.001930   0.000454   0.001138  -0.000011
    13  H    0.004035   0.000186   0.000613  -0.000031
    14  H    0.000186   0.016991   0.006701  -0.000084
    15  H    0.000613   0.006701   0.015296  -0.000195
    16  H   -0.000031  -0.000084  -0.000195  -0.000085
 Mulliken atomic spin densities:
              1
     1  C   -0.024294
     2  C    0.530731
     3  C   -0.014075
     4  C   -0.043860
     5  O    0.333004
     6  O    0.108746
     7  O    0.006198
     8  H    0.003449
     9  H    0.006490
    10  H    0.029949
    11  H    0.034997
    12  H    0.002170
    13  H    0.003154
    14  H    0.010318
    15  H    0.013053
    16  H   -0.000028
 Sum of Mulliken spin densities=   1.00000
 APT atomic charges:
              1
     1  C   -0.029669
     2  C    0.542837
     3  C   -0.075394
     4  C    0.643789
     5  O   -0.610230
     6  O   -0.366823
     7  O   -0.317367
     8  H    0.020855
     9  H    0.040333
    10  H   -0.022585
    11  H   -0.019627
    12  H    0.045409
    13  H    0.035298
    14  H   -0.098530
    15  H   -0.076657
    16  H    0.288362
 Sum of APT charges=   0.00000
 APT Atomic charges with hydrogens summed into heavy atoms:
              1
     1  C    0.008934
     2  C    0.542837
     3  C   -0.014314
     4  C    0.468602
     5  O   -0.610230
     6  O   -0.366823
     7  O   -0.029006
     8  H    0.000000
     9  H    0.000000
    10  H    0.000000
    11  H    0.000000
    12  H    0.000000
    13  H    0.000000
    14  H    0.000000
    15  H    0.000000
    16  H    0.000000
 Sum of APT charges=   0.00000
 Electronic spatial extent (au):  <R**2>=  1526.4556
 Charge=     0.0000 electrons
 Dipole moment (field-independent basis, Debye):
    X=    -1.5207    Y=     2.9126    Z=     0.6366  Tot=     3.3468
 Quadrupole moment (field-independent basis, Debye-Ang):
   XX=   -37.1747   YY=   -54.7698   ZZ=   -37.8820
   XY=     1.2398   XZ=    -6.1493   YZ=     3.5222
 Traceless Quadrupole moment (field-independent basis, Debye-Ang):
   XX=     6.1008   YY=   -11.4943   ZZ=     5.3935
   XY=     1.2398   XZ=    -6.1493   YZ=     3.5222
 Octapole moment (field-independent basis, Debye-Ang**2):
  XXX=     6.8233  YYY=    90.3642  ZZZ=  -201.5234  XYY=     0.1806
  XXY=    22.6302  XXZ=   -54.6485  XZZ=   -18.0856  YZZ=    24.0060
  YYZ=   -89.6436  XYZ=    -1.7906
 Hexadecapole moment (field-independent basis, Debye-Ang**3):
 XXXX=  -219.2514 YYYY=  -610.8359 ZZZZ= -1013.9219 XXXY=    -8.7466
 XXXZ=    10.8718 YYYX=    19.4006 YYYZ=   106.0062 ZZZX=   -37.1722
 ZZZY=    78.1751 XXYY=  -118.1677 XXZZ=  -151.4541 YYZZ=  -285.8254
 XXYZ=    39.8824 YYXZ=     2.5244 ZZXY=   -16.7910
 N-N= 3.275052824238D+02 E-N=-1.554449662621D+03  KE= 3.821897395875D+02
  Exact polarizability:  61.177   0.353  71.615  -5.247   3.302  65.041
 Approx polarizability:  85.586  -7.322 108.350  -8.527   6.960  91.343
                          Isotropic Fermi Contact Couplings
        Atom                 a.u.       MegaHertz       Gauss      10(-4) cm-1
     1  C(13)             -0.01014     -11.39792      -4.06706      -3.80194
     2  C(13)              0.11777     132.40050      47.24379      44.16405
     3  C(13)             -0.00043      -0.48112      -0.17168      -0.16048
     4  C(13)             -0.02586     -29.07451     -10.37451      -9.69821
     5  O(17)              0.02480     -15.03294      -5.36413      -5.01445
     6  O(17)              0.02103     -12.74589      -4.54805      -4.25157
     7  O(17)              0.01082      -6.55763      -2.33993      -2.18739
     8  H(1)               0.00180       8.05921       2.87573       2.68826
     9  H(1)               0.00238      10.61642       3.78820       3.54126
    10  H(1)               0.01180      52.74264      18.81989      17.59305
    11  H(1)               0.01367      61.09437      21.79999      20.37889
    12  H(1)               0.00089       3.98370       1.42148       1.32882
    13  H(1)               0.00239      10.69639       3.81674       3.56793
    14  H(1)               0.00464      20.75668       7.40650       6.92368
    15  H(1)               0.00773      34.54018      12.32479      11.52136
    16  H(1)               0.00006       0.27332       0.09753       0.09117
 --------------------------------------------------------
       Center         ----  Spin Dipole Couplings  ----
                      3XX-RR        3YY-RR        3ZZ-RR
 --------------------------------------------------------
     1   Atom       -0.012420     -0.011160      0.023580
     2   Atom       -0.192538      0.494940     -0.302402
     3   Atom        0.035979     -0.021042     -0.014938
     4   Atom        0.008065     -0.010345      0.002280
     5   Atom       -0.269613      0.741187     -0.471575
     6   Atom       -0.216577      0.559367     -0.342790
     7   Atom       -0.022946      0.033047     -0.010101
     8   Atom       -0.004827     -0.004670      0.009496
     9   Atom       -0.007847     -0.003036      0.010883
    10   Atom       -0.004905     -0.001528      0.006434
    11   Atom        0.005455      0.000059     -0.005513
    12   Atom        0.011359     -0.001891     -0.009468
    13   Atom       -0.000850     -0.005473      0.006324
    14   Atom        0.004733      0.002525     -0.007258
    15   Atom       -0.006311      0.003638      0.002673
    16   Atom        0.001087     -0.003683      0.002596
 --------------------------------------------------------
                        XY            XZ            YZ
 --------------------------------------------------------
     1   Atom       -0.000333     -0.005279     -0.007870
     2   Atom        0.379346     -0.092359     -0.208645
     3   Atom        0.008412      0.018363      0.004289
     4   Atom       -0.026233     -0.017561      0.004379
     5   Atom        0.778602     -0.298100     -0.557972
     6   Atom        0.366701      0.021616      0.055524
     7   Atom        0.018533     -0.028549     -0.085467
     8   Atom       -0.000872      0.006957     -0.002365
     9   Atom       -0.000230     -0.005528      0.001150
    10   Atom        0.002333     -0.002718     -0.004741
    11   Atom        0.005433      0.003808     -0.000396
    12   Atom       -0.001612      0.004212      0.000087
    13   Atom        0.001540      0.010152      0.001241
    14   Atom        0.006567      0.001888     -0.000485
    15   Atom        0.004033     -0.003326     -0.003161
    16   Atom       -0.003061     -0.006767      0.001801
 --------------------------------------------------------


 ---------------------------------------------------------------------------------
              Anisotropic Spin Dipole Couplings in Principal Axis System
 ---------------------------------------------------------------------------------

       Atom             a.u.   MegaHertz   Gauss  10(-4) cm-1        Axes

              Baa    -0.0144    -1.934    -0.690    -0.645  0.7296  0.6424  0.2345
     1 C(13)  Bbb    -0.0115    -1.549    -0.553    -0.517 -0.6711  0.7385  0.0646
              Bcc     0.0260     3.483     1.243     1.162 -0.1316 -0.2045  0.9700
 
              Baa    -0.3607   -48.405   -17.272   -16.146  0.9125 -0.4088 -0.0173
     2 C(13)  Bbb    -0.3536   -47.451   -16.932   -15.828  0.1049  0.1930  0.9756
              Bcc     0.7143    95.856    34.204    31.974  0.3954  0.8920 -0.2190
 
              Baa    -0.0233    -3.126    -1.115    -1.043  0.0451  0.8451 -0.5327
     3 C(13)  Bbb    -0.0200    -2.679    -0.956    -0.894 -0.3362  0.5149  0.7885
              Bcc     0.0433     5.806     2.072     1.937  0.9407  0.1436  0.3074
 
              Baa    -0.0305    -4.093    -1.460    -1.365  0.6168  0.7528  0.2298
     4 C(13)  Bbb    -0.0049    -0.660    -0.235    -0.220  0.2376 -0.4564  0.8575
              Bcc     0.0354     4.753     1.696     1.585  0.7504 -0.4742 -0.4604
 
              Baa    -0.6948    50.277    17.940    16.770  0.6853 -0.5549 -0.4716
     5 O(17)  Bbb    -0.6853    49.590    17.695    16.541  0.5717  0.0088  0.8204
              Bcc     1.3802   -99.867   -35.635   -33.312  0.4510  0.8319 -0.3233
 
              Baa    -0.3625    26.228     9.359     8.749  0.9283 -0.3709  0.0268
     6 O(17)  Bbb    -0.3462    25.048     8.938     8.355 -0.0458 -0.0426  0.9980
              Bcc     0.7086   -51.275   -18.296   -17.104  0.3690  0.9277  0.0566
 
              Baa    -0.0791     5.726     2.043     1.910  0.2155  0.5690  0.7936
     7 O(17)  Bbb    -0.0285     2.059     0.735     0.687  0.9464 -0.3218 -0.0263
              Bcc     0.1076    -7.785    -2.778    -2.597  0.2404  0.7568 -0.6079
 
              Baa    -0.0077    -4.083    -1.457    -1.362  0.9247 -0.0305 -0.3794
     8 H(1)   Bbb    -0.0050    -2.685    -0.958    -0.896  0.0825  0.9892  0.1215
              Bcc     0.0127     6.768     2.415     2.258  0.3716 -0.1437  0.9172
 
              Baa    -0.0094    -4.993    -1.782    -1.665  0.9644 -0.0129  0.2641
     9 H(1)   Bbb    -0.0031    -1.666    -0.595    -0.556  0.0323  0.9971 -0.0691
              Bcc     0.0125     6.659     2.376     2.221 -0.2624  0.0752  0.9620
 
              Baa    -0.0061    -3.258    -1.162    -1.087  0.9049 -0.4241  0.0358
    10 H(1)   Bbb    -0.0034    -1.797    -0.641    -0.599  0.3553  0.7991  0.4850
              Bcc     0.0095     5.055     1.804     1.686 -0.2343 -0.4261  0.8738
 
              Baa    -0.0074    -3.956    -1.412    -1.320 -0.3937  0.3317  0.8573
    11 H(1)   Bbb    -0.0020    -1.088    -0.388    -0.363 -0.3471  0.8100 -0.4727
              Bcc     0.0095     5.044     1.800     1.682  0.8512  0.4837  0.2037
 
              Baa    -0.0103    -5.499    -1.962    -1.834 -0.1940 -0.0473  0.9799
    12 H(1)   Bbb    -0.0020    -1.091    -0.389    -0.364  0.0982  0.9929  0.0674
              Bcc     0.0124     6.590     2.351     2.198  0.9761 -0.1093  0.1880
 
              Baa    -0.0081    -4.347    -1.551    -1.450  0.8086 -0.2110 -0.5492
    13 H(1)   Bbb    -0.0055    -2.959    -1.056    -0.987  0.1168  0.9725 -0.2016
              Bcc     0.0137     7.306     2.607     2.437  0.5766  0.0988  0.8110
 
              Baa    -0.0079    -4.190    -1.495    -1.398 -0.2469  0.2005  0.9481
    14 H(1)   Bbb    -0.0025    -1.338    -0.478    -0.446 -0.5925  0.7429 -0.3114
              Bcc     0.0104     5.528     1.973     1.844  0.7668  0.6386  0.0646
 
              Baa    -0.0082    -4.370    -1.559    -1.458  0.9410 -0.2644  0.2112
    15 H(1)   Bbb     0.0000    -0.022    -0.008    -0.007  0.0099  0.6454  0.7638
              Bcc     0.0082     4.392     1.567     1.465  0.3383  0.7166 -0.6099
 
              Baa    -0.0058    -3.110    -1.110    -1.037  0.6728  0.6169  0.4085
    16 H(1)   Bbb    -0.0037    -1.971    -0.703    -0.657 -0.3355  0.7464 -0.5747
              Bcc     0.0095     5.081     1.813     1.695 -0.6594  0.2496  0.7091
 

 ---------------------------------------------------------------------------------

 Use density number 0.
 Entering OneElI...
 Calculate overlap and kinetic energy integrals
    NBasis = 187  MinDer = 2  MaxDer = 2
 Requested accuracy = 0.1000D-12
 PrsmSu:  NPrtUS=   1 ThrOK=F
 PRISM was handed   196295232 working-precision words and  2548 shell-pairs
 Entering OneElI...
 Calculate potential energy integrals
    NBasis = 187  MinDer = 2  MaxDer = 2
 Requested accuracy = 0.1000D-12
 PrsmSu:  NPrtUS=   8 ThrOK=T
 PRISM was handed    24493327 working-precision words and  2403 shell-pairs
 PRISM was handed    24493327 working-precision words and  2403 shell-pairs
 PRISM was handed    24493327 working-precision words and  2403 shell-pairs
 PRISM was handed    24493327 working-precision words and  2403 shell-pairs
 PRISM was handed    24493327 working-precision words and  2403 shell-pairs
 PRISM was handed    24493327 working-precision words and  2403 shell-pairs
 PRISM was handed    24493327 working-precision words and  2403 shell-pairs
 PRISM was handed    24493327 working-precision words and  2403 shell-pairs
 Polarizability after L701:
                1             2             3
      1  0.611771D+02
      2  0.352515D+00  0.716148D+02
      3 -0.524660D+01  0.330235D+01  0.650414D+02
 Dipole Derivatives after L701:
               1            2            3            4            5
      1-0.134097D-01 0.489201D-01-0.314963D-01 0.535928D+00-0.248164D+00
      2 0.219324D-01-0.951205D-02-0.996107D-01-0.439623D+00 0.704428D+00
      3 0.638016D-01-0.851256D-02-0.660866D-01-0.108798D+00 0.224866D+00
               6            7            8            9           10
      1 0.345369D-01-0.832591D-01-0.375992D-01-0.443438D-01 0.599203D+00
      2 0.135565D+00 0.684513D-01-0.740851D-01 0.797396D-01-0.178085D+00
      3 0.388156D+00-0.662118D-01-0.720417D-01-0.688377D-01 0.564594D-01
              11           12           13           14           15
      1 0.165975D-01 0.334631D-01-0.500600D+00 0.647911D-01 0.377779D-01
      2 0.793956D+00 0.117379D+00 0.364438D+00-0.887727D+00-0.209949D+00
      3 0.254290D-01 0.538209D+00 0.317910D-01-0.528313D-01-0.442364D+00
              16           17           18           19           20
      1-0.450396D+00 0.169597D+00-0.122625D+00-0.153065D+00 0.485357D-01
      2 0.340292D+00-0.686423D+00 0.920438D-01 0.113812D+00-0.293810D+00
      3 0.350241D-02-0.143382D+00 0.363498D-01 0.185306D+00-0.397710D-01
              21           22           23           24           25
      1 0.234583D+00-0.796647D-01-0.779974D-02-0.316568D-01 0.532957D-01
      2-0.241449D+00 0.556489D-02 0.921565D-01 0.101103D-01 0.475201D-01
      3-0.505228D+00-0.828345D-01 0.855498D-02 0.500741D-01 0.165529D-01
              26           27           28           29           30
      1 0.573189D-01 0.112596D-01 0.252740D-01-0.915786D-01 0.336773D-01
      2 0.460976D-02 0.146258D-01-0.884814D-01-0.776108D-01 0.709908D-01
      3-0.526238D-01 0.630941D-01 0.444915D-01 0.794075D-01-0.154195D-01
              31           32           33           34           35
      1-0.321156D-01-0.106665D+00 0.693234D-03 0.613112D-01 0.871455D-01
      2-0.131295D+00-0.842113D-01 0.324143D-01 0.133865D-01 0.494511D-02
      3-0.580108D-02 0.426806D-01 0.574457D-01 0.232324D-01-0.338301D-01
              36           37           38           39           40
      1 0.285966D-01 0.737622D-01-0.146311D-01-0.140954D-01-0.242762D+00
      2-0.495447D-01-0.420011D-02 0.911688D-01 0.999063D-02-0.243466D-01
      3 0.699702D-01 0.341788D-01 0.153979D-01-0.590363D-01-0.108921D+00
              41           42           43           44           45
      1 0.425334D-01-0.115578D+00-0.246728D-01-0.100641D-03 0.191070D-01
      2 0.119244D-01 0.353270D-01-0.487765D-01 0.349895D-01-0.720366D-03
      3 0.559453D-02-0.647521D-01 0.643319D-02-0.241222D-01-0.240289D+00
              46           47           48
      1 0.231170D+00-0.289006D-01-0.738990D-01
      2-0.605907D-01 0.375201D+00 0.308687D-02
      3-0.931827D-01 0.251846D-01 0.258715D+00
 Hessian after L701:
                1             2             3             4             5
      1  0.164271D+02
      2  0.271367D+00  0.159403D+02
      3  0.372874D+00 -0.157315D+00  0.115046D+02
      4 -0.641252D+01  0.319951D-01 -0.603141D-01  0.121653D+02
      5  0.326246D-01 -0.657156D+01  0.115954D+00  0.358722D+01  0.166820D+02
      6 -0.162283D+00  0.355177D-01 -0.198409D+00  0.566162D+00 -0.162301D+01
      7  0.247684D-01  0.614472D-02 -0.330606D-01 -0.139049D+01 -0.108310D+00
      8 -0.182544D-01  0.322765D-01 -0.247086D-01 -0.725522D-02 -0.661155D+01
      9  0.760024D-01  0.175795D-01  0.111188D+00  0.256614D+01 -0.157860D+00
     10 -0.102755D+00  0.568831D-01  0.177720D-01 -0.144205D+01  0.644983D+00
     11  0.373676D-01  0.427189D-01 -0.497165D-01  0.694316D+00  0.116853D+01
     12 -0.138917D-01 -0.148971D+00 -0.751405D-01 -0.852712D-01 -0.376176D+00
     13 -0.254065D+00 -0.493527D-01  0.216863D-01 -0.102260D+00  0.252308D+00
     14 -0.430627D-01  0.353758D+00 -0.177117D+00  0.274710D+00  0.418594D-01
     15  0.219749D-01 -0.215360D+00 -0.181716D+00  0.929382D-01 -0.112425D+00
     16 -0.130684D+00 -0.113902D+00 -0.246464D+00 -0.329083D+01 -0.478551D+01
     17 -0.826333D-01 -0.179550D+00  0.224387D+00 -0.489165D+01 -0.558749D+01
     18 -0.260179D+00  0.273464D+00  0.132779D+00 -0.288346D+01  0.229495D+01
     19 -0.166460D+00 -0.286910D-01 -0.150530D+00  0.612991D-01  0.114720D+00
     20 -0.342367D-01 -0.159106D+00  0.131208D+00  0.107311D+00  0.159890D+00
     21 -0.153937D+00  0.140788D+00  0.404792D+00  0.352224D-01  0.699583D-02
     22 -0.189702D+01 -0.361961D-01  0.926245D+00  0.743247D-01  0.149185D-01
     23 -0.744731D-01 -0.440221D+01 -0.279321D-01  0.161758D-01  0.588056D-01
     24  0.120230D+01 -0.195831D-01 -0.398021D+01 -0.718366D-01  0.267458D-01
     25 -0.385255D+01 -0.117890D+01 -0.441582D+00  0.554882D-01  0.327110D-01
     26 -0.110775D+01 -0.246851D+01  0.780959D+00  0.387911D-01  0.140768D+00
     27 -0.575712D+00  0.107706D+01 -0.412260D+01  0.151395D+00 -0.699743D-01
     28 -0.357866D+01  0.109777D+01 -0.467648D+00  0.101170D+00  0.495345D-01
     29  0.109118D+01 -0.246255D+01 -0.765876D+00  0.520121D-01  0.129336D+00
     30 -0.570247D+00 -0.938422D+00 -0.387070D+01 -0.349147D-01 -0.175402D-01
     31 -0.955840D-02  0.116034D-01 -0.963482D-03  0.129783D+00  0.260607D-01
     32  0.235461D-01  0.724958D-02  0.181030D-01  0.827582D-01  0.122483D+00
     33 -0.546818D-02  0.428453D-02 -0.128256D-01 -0.318386D-01 -0.295495D-01
     34  0.113277D-01 -0.134705D-01  0.165504D-01 -0.844214D-01  0.767255D-01
     35 -0.363564D-01 -0.322947D-02 -0.267580D-01  0.389641D-02  0.118292D+00
     36  0.832977D-02 -0.582082D-02 -0.894370D-02 -0.410376D-02  0.142457D-01
     37 -0.298279D-01 -0.946222D-03  0.646101D-01  0.520439D-01 -0.126957D-01
     38 -0.129838D-02 -0.445807D-01 -0.537616D-02 -0.119909D-01  0.356600D-01
     39  0.660823D-01 -0.359013D-02  0.164593D+00  0.406008D-01 -0.232123D-01
     40  0.637359D-02 -0.696035D-01  0.284547D-01 -0.984261D-01  0.235010D-02
     41 -0.753646D-01 -0.939828D-01  0.716837D-01 -0.685305D-01  0.906957D-01
     42  0.235022D-01  0.583983D-01  0.163726D-01 -0.114345D+00 -0.107970D+00
     43 -0.425634D-01  0.243444D-01 -0.333571D-01  0.976435D-01  0.108127D+00
     44  0.176686D-01  0.157463D-01 -0.107659D+00  0.118615D+00  0.562273D-01
     45 -0.282870D-01 -0.118831D+00  0.120609D+00 -0.761175D-01  0.321514D-01
     46  0.705408D-02 -0.904115D-02 -0.142742D-01  0.839390D-01 -0.357696D-01
     47 -0.325637D-03 -0.679758D-02  0.164616D-03 -0.283698D-01 -0.339140D-01
     48 -0.106372D-02  0.804510D-03 -0.435601D-02 -0.902598D-01  0.266766D-01
                6             7             8             9            10
      6  0.138559D+02
      7  0.265705D+01  0.125147D+02
      8 -0.109519D+00  0.352192D+00  0.162098D+02
      9 -0.495139D+01 -0.160502D+01 -0.271537D+00  0.153810D+02
     10 -0.823665D-01 -0.102364D+00  0.697252D-01 -0.252701D-01  0.154453D+02
     11 -0.399309D+00 -0.412415D-01  0.151397D-02 -0.418225D-01  0.733633D+01
     12 -0.151068D+01  0.585615D-02 -0.517405D-02 -0.418079D-01  0.304737D+01
     13  0.862966D-01 -0.239607D+00  0.177067D+00  0.421166D-01 -0.719835D+01
     14 -0.110393D+00  0.143673D+00  0.419283D+00  0.137528D+00 -0.771994D+01
     15  0.147792D-01  0.385936D-01  0.156300D+00 -0.241357D+00 -0.407107D+01
     16 -0.284271D+01  0.632189D+00 -0.163049D+00  0.863469D-01 -0.252342D+00
     17  0.225489D+01 -0.569825D-01 -0.138069D+00 -0.304158D-01  0.605638D-01
     18 -0.731905D+01  0.701516D-01 -0.271855D-01 -0.163701D+00  0.807674D-02
     19  0.508011D-01  0.805347D-01 -0.261400D+00 -0.319584D+00 -0.230234D+00
     20  0.438704D-01 -0.247370D+00 -0.178384D+00  0.189085D+00 -0.547548D-01
     21 -0.117962D+00 -0.209703D+00  0.151587D+00 -0.104241D+00 -0.356858D-01
     22  0.231837D-01  0.703499D-01 -0.108356D-02  0.135854D+00 -0.700516D-02
     23  0.225175D-01 -0.833447D-03 -0.534231D-01 -0.216912D-02 -0.678094D-03
     24  0.389793D-01  0.137596D+00 -0.144351D-02  0.863380D-01  0.406100D-02
     25  0.823395D-01 -0.147239D-01  0.498797D-03 -0.378223D-02  0.946223D-02
     26  0.219536D-01  0.630347D-02 -0.664867D-03  0.466897D-01 -0.119673D-01
     27  0.581460D-02 -0.287500D-03  0.173221D-01  0.115665D-01 -0.132354D-01
     28 -0.673501D-01 -0.264178D-02  0.230070D-02 -0.444480D-02 -0.121934D-01
     29 -0.745145D-01 -0.278797D-02  0.693755D-02 -0.238811D-01  0.432718D-01
     30  0.946429D-01 -0.143372D-03 -0.661645D-02 -0.226378D-01 -0.322400D-01
     31 -0.123613D-01 -0.349652D+01  0.134450D+01 -0.348981D+00  0.450442D-01
     32 -0.799145D-02  0.117131D+01 -0.233023D+01 -0.507355D+00  0.886279D-01
     33  0.583770D-01 -0.273903D+00 -0.455159D+00 -0.416994D+01  0.320813D-04
     34  0.544684D-01 -0.360198D+01 -0.150964D+01 -0.551633D+00  0.212345D-01
     35 -0.245403D-01 -0.122466D+01 -0.266067D+01  0.677993D+00 -0.331334D-01
     36  0.122363D+00 -0.414585D+00  0.622548D+00 -0.432006D+01 -0.208365D-01
     37 -0.678598D-01 -0.462361D+01  0.150197D-01 -0.109553D+00 -0.147928D-01
     38 -0.199691D-01  0.256960D-01 -0.461131D+01 -0.121900D+00  0.804459D-02
     39  0.445118D-01 -0.448506D+00 -0.136038D+00 -0.157087D+01  0.249198D-01
     40 -0.160313D+00  0.125171D+00  0.129192D+00  0.639851D-01 -0.163972D+01
     41 -0.156750D+00  0.118096D+00  0.182456D-01  0.415503D-01 -0.472174D+00
     42  0.109830D-01  0.606462D-01  0.427233D-01 -0.333472D-01  0.133369D+01
     43 -0.200593D-01 -0.251213D-01 -0.104504D+00  0.263033D-01 -0.452520D+01
     44  0.125549D+00 -0.125654D+00 -0.917139D-01  0.409013D-01  0.411047D-02
     45 -0.176781D+00  0.332843D-01  0.384576D-01  0.411580D-01 -0.141747D+00
     46 -0.104996D+00  0.493704D-01 -0.253030D-01 -0.284768D-01  0.593520D-02
     47  0.216999D-01 -0.155837D-01 -0.120505D-01  0.561424D-02 -0.198970D-01
     48  0.279618D-01 -0.179624D-01  0.844317D-02 -0.119197D-01 -0.134663D-01
               11            12            13            14            15
     11  0.156907D+02
     12 -0.434311D+01  0.187997D+02
     13 -0.740085D+01 -0.405358D+01  0.814798D+01
     14 -0.896700D+01  0.432877D+01  0.679898D+01  0.739365D+01
     15  0.416315D+01 -0.121419D+02  0.327335D+01 -0.393586D+01  0.120837D+02
     16  0.112228D+00  0.135698D-01 -0.106200D+00 -0.200696D+00 -0.333675D-01
     17  0.361493D+00 -0.397437D-01 -0.217853D+00  0.360403D+00  0.998087D-01
     18 -0.456229D-01 -0.228670D+00 -0.370566D-01  0.953392D-01 -0.167098D+00
     19 -0.831072D-02 -0.156122D-01 -0.113188D+00 -0.596353D-01 -0.327299D-01
     20  0.185174D+00  0.289634D+00 -0.113178D+00  0.166647D+00  0.161669D+00
     21  0.209141D+00 -0.729373D-01 -0.493386D-01  0.134614D+00 -0.460908D-01
     22 -0.121052D-01  0.254984D-01  0.951403D-02 -0.596182D-01  0.307304D-01
     23 -0.710628D-02 -0.771089D-02 -0.248087D-01  0.197279D-01 -0.295746D-01
     24 -0.294423D-02 -0.147451D-02  0.277485D-01 -0.487498D-01  0.310895D-02
     25  0.795135D-03 -0.244187D-01 -0.134457D+00  0.813378D-01 -0.533697D-01
     26 -0.309571D-01  0.362028D-01  0.329804D-01  0.483112D-01 -0.122264D+00
     27  0.205910D-01 -0.732998D-02 -0.271506D-01 -0.226196D+00 -0.189325D-03
     28  0.440516D-01 -0.341469D-01 -0.160011D-01  0.204914D-01 -0.592113D-02
     29  0.593949D-01 -0.733481D-01 -0.216704D-02  0.459325D-01 -0.187272D-01
     30 -0.757068D-01  0.249493D-01  0.597289D-03 -0.282259D-01 -0.461393D-02
     31  0.911118D-01  0.294170D-02 -0.600355D-02  0.327492D-01  0.611490D-02
     32  0.641823D-01  0.172593D-02  0.142096D-01  0.471367D-01  0.109965D-01
     33  0.875241D-03 -0.326534D-01  0.519126D-03 -0.273720D-02 -0.153847D-01
     34 -0.157016D-01 -0.746306D-02  0.506640D-02  0.232409D+00  0.400787D-01
     35 -0.329658D-01 -0.460140D-02  0.119497D+00  0.491163D-01  0.233390D-01
     36 -0.844783D-02 -0.126675D-01  0.123000D-01  0.214270D-01 -0.135403D+00
     37  0.992371D-04  0.291835D-03 -0.204094D-01  0.144780D-01  0.115266D-01
     38 -0.446401D-02  0.459016D-02  0.139060D-01  0.159138D-01  0.323008D-01
     39  0.157207D-01  0.793313D-02  0.154384D-01  0.780613D-01  0.326091D-01
     40 -0.755239D+00  0.147704D+01  0.179697D+00  0.214695D+00  0.456912D+00
     41 -0.422495D+01 -0.292643D+00  0.160139D+00 -0.125189D-01 -0.198145D+00
     42 -0.417898D+00 -0.370646D+01  0.442428D+00 -0.229747D+00  0.240485D+00
     43 -0.390714D-01 -0.306764D+00 -0.169807D+00  0.307128D+00  0.246154D+00
     44 -0.433302D+01  0.603348D+00  0.251126D+00  0.764301D-02 -0.266737D-01
     45  0.946784D+00 -0.100060D+01  0.253288D+00 -0.503484D-01  0.559281D+00
     46 -0.437866D-01 -0.314196D-01  0.180919D-01 -0.377016D-01 -0.219160D-01
     47  0.267837D-01  0.272072D-01 -0.120073D-01  0.101429D-01  0.114675D-01
     48  0.283147D-01 -0.227389D-03 -0.864681D-02  0.136369D-01 -0.132391D-03
               16            17            18            19            20
     16  0.820304D+01
     17  0.505272D+01  0.981993D+01
     18  0.373363D+01 -0.345400D+01  0.466028D+01
     19 -0.534969D+01  0.216365D+00 -0.430177D+00  0.743709D+01
     20  0.213031D+00 -0.471328D+01  0.796526D+00  0.559770D+00  0.110347D+02
     21 -0.608354D+00  0.874297D+00  0.316610D+01  0.205195D+01 -0.174869D+01
     22 -0.847236D-01  0.128974D-01  0.433722D-01 -0.888023D-02  0.700862D-02
     23 -0.190170D-01 -0.567772D-01  0.604688D-01  0.171226D-02 -0.157325D-01
     24 -0.610366D-01  0.725232D-01  0.116991D+00  0.119253D-01  0.126851D-01
     25  0.851262D-02 -0.658600D-01 -0.828879D-01 -0.812574D-02 -0.802016D-02
     26 -0.786596D-01  0.356382D-01  0.108523D+00 -0.531612D-02  0.199718D-02
     27 -0.871871D-01  0.945184D-01  0.618082D-01 -0.466537D-02  0.117672D-01
     28  0.979485D-02 -0.577935D-02 -0.873050D-01 -0.929847D-02  0.144165D-02
     29  0.300610D-01 -0.450243D-01 -0.406551D-01  0.322738D-02 -0.139328D-01
     30 -0.696166D-01  0.121588D-01  0.627538D-01 -0.106083D-01 -0.178882D-02
     31  0.119220D+00 -0.159993D-01 -0.812154D-02  0.570791D-01  0.376745D-02
     32  0.425296D-01 -0.472546D-01 -0.454943D-02  0.306742D-01 -0.287664D-01
     33 -0.200051D-01 -0.502171D-03 -0.483751D-01 -0.453837D-01 -0.259780D-02
     34  0.114238D+00 -0.103883D+00 -0.128371D-01  0.318084D-01 -0.377978D-01
     35 -0.122781D+00  0.290790D-01  0.876329D-02 -0.425347D-01  0.883436D-02
     36 -0.175773D-01  0.779504D-02 -0.473001D-01 -0.262251D-01  0.196074D-01
     37  0.152495D-02  0.537277D-02  0.817368D-02  0.113057D+00 -0.102122D+00
     38 -0.780856D-02 -0.156304D-01 -0.394383D-02 -0.105671D+00 -0.819421D-01
     39  0.764043D-01 -0.235221D-01  0.255939D-01  0.737427D-01 -0.350536D-01
     40 -0.660698D-01  0.825526D-01  0.275716D-01 -0.885881D-02  0.359356D-01
     41  0.223675D-01  0.983027D-01  0.596954D-01  0.183718D-01  0.102619D-01
     42  0.135407D-01  0.810553D-01 -0.528035D-01  0.231404D-01  0.430975D-01
     43 -0.361933D-01 -0.277509D-02  0.581146D-02 -0.106497D+00 -0.290537D-01
     44 -0.344553D-02  0.347100D-01 -0.576799D-01 -0.355061D-01  0.148696D+00
     45  0.166622D-01 -0.101055D+00  0.724232D-02 -0.736017D-02 -0.153126D-01
     46  0.228215D+00  0.129487D-01 -0.947613D-01 -0.177964D+01 -0.301733D+00
     47  0.219282D-01  0.435228D-01 -0.640916D-01 -0.397775D+00 -0.652510D+01
     48  0.461679D-01 -0.721929D-01 -0.206545D+00 -0.116869D+01  0.104293D+00
               21            22            23            24            25
     21  0.290534D+01
     22  0.277975D-01  0.193401D+01
     23  0.982361D-02  0.102581D+00  0.437209D+01
     24  0.402283D-01 -0.123096D+01  0.436009D-02  0.353119D+01
     25 -0.146983D-01 -0.242577D-01  0.746034D-01  0.503768D-02  0.388435D+01
     26  0.250692D-01  0.250458D-01  0.307944D-01  0.515458D-02  0.109588D+01
     27  0.120571D-01 -0.153090D-02  0.101625D-01  0.595820D-01  0.547066D+00
     28 -0.223488D-01 -0.493215D-01 -0.929627D-01 -0.822573D-03  0.923479D-01
     29 -0.185045D-01 -0.585757D-01  0.447015D-01 -0.967270D-02 -0.210688D-01
     30  0.206871D-01  0.299394D-02 -0.817380D-02  0.865007D-01 -0.874109D-02
     31 -0.435334D-01  0.702746D-02  0.916698D-03  0.424748D-02 -0.289739D-02
     32 -0.139530D-01  0.895465D-02 -0.292745D-03  0.463934D-02 -0.390457D-02
     33 -0.957451D-02  0.330416D-03  0.115354D-03 -0.140913D-02 -0.246917D-02
     34 -0.279570D-01  0.117199D-01 -0.266839D-02  0.907843D-02 -0.268025D-02
     35  0.214820D-01 -0.105348D-01 -0.104476D-02 -0.607819D-02  0.206081D-03
     36 -0.888037D-02  0.354659D-02 -0.104080D-02  0.393282D-03  0.131566D-01
     37 -0.194761D-01 -0.107242D-02  0.163051D-03 -0.459004D-02 -0.250517D-02
     38  0.965385D-02 -0.293417D-03  0.191083D-03 -0.324675D-03  0.363649D-04
     39 -0.124978D+00  0.810515D-02 -0.101820D-03  0.993630D-03 -0.302399D-02
     40  0.236065D-01 -0.256342D-01  0.201516D-01 -0.251570D-01 -0.984717D-02
     41  0.301561D-01  0.623777D-02  0.131512D-01 -0.400241D-01 -0.125991D-01
     42  0.868662D-02 -0.761649D-02 -0.302221D-01  0.111079D-01  0.197087D-01
     43 -0.430427D-02 -0.638427D-03  0.273181D-04  0.821784D-04 -0.302140D-02
     44  0.575792D-01 -0.708016D-04 -0.182254D-02  0.157792D-02  0.549063D-02
     45 -0.103726D+00  0.951066D-02 -0.120448D-02  0.445989D-02 -0.294178D-01
     46 -0.949244D+00 -0.839494D-02 -0.890086D-03 -0.767356D-02  0.490414D-02
     47  0.109959D+00  0.833574D-03 -0.104942D-02  0.113418D-02 -0.120251D-02
     48 -0.596950D+01  0.294172D-02  0.681901D-03  0.322459D-02 -0.291784D-02
               26            27            28            29            30
     26  0.236255D+01
     27 -0.925703D+00  0.380401D+01
     28  0.127187D-01 -0.858504D-02  0.346608D+01
     29 -0.104101D+00 -0.404278D-02 -0.113301D+01  0.236556D+01
     30  0.359636D-02  0.919597D-01  0.682788D+00  0.104941D+01  0.347014D+01
     31  0.512220D-02  0.137945D-02 -0.665719D-02 -0.927926D-02  0.462878D-01
     32  0.920704D-02  0.384338D-02  0.888337D-03 -0.305657D-01  0.135674D-01
     33 -0.102616D-02 -0.322280D-02  0.267755D-01 -0.611874D-02  0.378957D-01
     34  0.963008D-02  0.278306D-01 -0.322697D-02 -0.630641D-02  0.250886D-02
     35 -0.197890D-01 -0.908637D-02  0.352567D-02  0.914043D-02 -0.493358D-02
     36  0.457760D-02  0.173761D-01 -0.186582D-02  0.126736D-02 -0.321068D-02
     37  0.465177D-03  0.204159D-02 -0.179950D-02  0.114947D-04  0.497665D-03
     38 -0.165981D-02  0.273235D-02  0.561119D-03 -0.232507D-03 -0.201245D-02
     39  0.130761D-01  0.162123D-01 -0.457421D-02 -0.110686D-01  0.100907D-01
     40 -0.196489D-01  0.194320D-01  0.414421D-02  0.711014D-02 -0.307637D-02
     41  0.574651D-02  0.118940D-01  0.160510D-03 -0.460759D-03  0.361686D-03
     42  0.779865D-02 -0.723173D-02  0.174658D-02  0.236132D-02 -0.237604D-02
     43  0.430167D-02 -0.242670D-01  0.145539D-03 -0.221249D-03  0.148559D-02
     44 -0.999768D-02 -0.163687D-01 -0.128981D-02 -0.266742D-02  0.382908D-02
     45 -0.812058D-02  0.583021D-01 -0.265135D-02 -0.440080D-02  0.534665D-03
     46 -0.789362D-02 -0.652362D-02  0.611660D-02  0.654026D-02 -0.757260D-02
     47  0.664159D-03  0.148492D-02 -0.399749D-03 -0.147395D-02  0.494083D-03
     48  0.351246D-02  0.188187D-02 -0.364713D-02 -0.223078D-02  0.339084D-02
               31            32            33            34            35
     31  0.299404D+01
     32 -0.145669D+01  0.227036D+01
     33  0.316409D+00  0.427964D+00  0.411402D+01
     34  0.102168D+00  0.234526D-02 -0.477462D-02  0.330180D+01
     35  0.905570D-02 -0.113022D+00 -0.233347D-01  0.133813D+01  0.257899D+01
     36 -0.569771D-02  0.660364D-02  0.873712D-01  0.396142D+00 -0.617019D+00
     37  0.562170D-01 -0.196320D-01  0.479490D-01  0.438793D-01  0.818896D-02
     38 -0.389797D-01  0.335134D-01  0.894918D-01  0.284765D-01  0.414003D-01
     39  0.498939D-01  0.544394D-01 -0.560265D-02  0.414288D-01 -0.282644D-01
     40 -0.418443D-03  0.277061D-02 -0.212256D-02  0.588736D-01  0.875926D-02
     41 -0.470890D-02 -0.298156D-02 -0.883825D-03  0.154564D-01 -0.849015D-02
     42  0.157189D-02  0.229703D-02 -0.332871D-04  0.132236D-01  0.146615D-03
     43  0.757334D-03  0.331242D-02 -0.122753D-02 -0.170649D-01 -0.128799D-01
     44  0.128170D-02  0.725065D-03 -0.872141D-03 -0.127169D-01  0.379957D-02
     45 -0.623915D-02 -0.839432D-02  0.136760D-02  0.517019D-02  0.111674D-01
     46  0.107190D-01  0.829121D-02 -0.482258D-02  0.726195D-02 -0.838395D-02
     47 -0.512116D-03 -0.174375D-02  0.498706D-04 -0.985434D-03  0.564271D-03
     48 -0.294922D-02 -0.193669D-02 -0.892708D-05 -0.181493D-02  0.172507D-02
               36            37            38            39            40
     36  0.432407D+01
     37  0.461561D-01  0.441513D+01
     38 -0.731681D-01  0.552334D-01  0.462645D+01
     39 -0.114294D-01  0.185709D-01  0.898677D-01  0.143459D+01
     40  0.641006D-02  0.405324D-03  0.138855D-02  0.106084D-01  0.135345D+01
     41  0.268165D-02 -0.424346D-03 -0.169248D-02  0.143256D-03  0.322241D+00
     42 -0.104843D-01  0.995962D-03  0.793365D-03  0.518347D-02 -0.137378D+01
     43  0.823696D-02  0.177696D-01  0.313240D-01  0.155159D-01  0.129317D+00
     44  0.425873D-02  0.339624D-01  0.900313D-02  0.118055D-01  0.153999D-01
     45  0.648255D-02 -0.105776D-02 -0.208442D-02 -0.285158D-01 -0.551673D+00
     46 -0.338728D-02 -0.601743D-02  0.137565D-02  0.147932D-01 -0.846192D-02
     47  0.484796D-03  0.282627D-02 -0.615069D-03 -0.226296D-02  0.194409D-02
     48  0.322380D-03  0.172372D-02 -0.650795D-03 -0.919500D-03  0.210144D-02
               41            42            43            44            45
     41  0.370153D+01
     42  0.516332D+00  0.396232D+01
     43 -0.261269D-01 -0.431147D+00  0.467990D+01
     44  0.406122D+00  0.267432D-01 -0.262352D+00  0.375638D+01
     45 -0.488973D-01 -0.444536D+00  0.518052D+00 -0.666941D+00  0.959610D+00
     46 -0.314250D-02 -0.730632D-02  0.576610D-03 -0.661909D-02  0.858366D-02
     47  0.102932D-02  0.408990D-02 -0.158177D-02  0.171686D-03 -0.297099D-02
     48  0.284474D-02  0.213499D-02 -0.515867D-03  0.602742D-03 -0.489015D-02
               46            47            48
     46  0.138033D+01
     47  0.451108D+00  0.649986D+01
     48  0.125900D+01 -0.114524D+00  0.615958D+01
 ReadGW:  IGet=0 IStart=         114 Next=        7213 LGW=        7099.
 ICntrl=12127.
 Symmetry not used in FoFDir.
 MinBra= 0 MaxBra= 2 Meth= 1.
 IRaf=       0 NMat=   1 IRICut=       1 DoRegI=T DoRafI=F ISym2E= 0 JSym2E=0.
 PrsmSu:  NPrtUS=   8 ThrOK=T
 PRISM was handed    24479363 working-precision words and  2491 shell-pairs
 PRISM was handed    24479363 working-precision words and  2491 shell-pairs
 PRISM was handed    24479363 working-precision words and  2491 shell-pairs
 PRISM was handed    24479363 working-precision words and  2491 shell-pairs
 PRISM was handed    24479363 working-precision words and  2491 shell-pairs
 PRISM was handed    24479363 working-precision words and  2491 shell-pairs
 PRISM was handed    24479363 working-precision words and  2491 shell-pairs
 PRISM was handed    24479363 working-precision words and  2491 shell-pairs
 Pruned (  75, 302) grid will be used in CalDFT.
 CkSvGd:  ISavGI=        -1 IRadAn=       4 IRASav=       4 ISavGd=        -1.
 CalDSu:  NPrtUS=   8 ThrOK=T
 IPart= 6 IRanGd=          0 ScrnBf=T ScrnGd=T RCrit=4.00D+00 DoMicB=T.
 IPart= 4 IRanGd=          0 ScrnBf=T ScrnGd=T RCrit=4.00D+00 DoMicB=T.
 IPart= 1 IRanGd=          0 ScrnBf=T ScrnGd=T RCrit=4.00D+00 DoMicB=T.
 IPart= 0 IRanGd=          0 ScrnBf=T ScrnGd=T RCrit=4.00D+00 DoMicB=T.
 CutRad = 1000.00    CtRdIn =    0.00    XCrit =  15.00   ICut = 0
 CutRad = 1000.00    CtRdIn =    0.00    XCrit =  15.00   ICut = 0
 IPart= 2 IRanGd=          0 ScrnBf=T ScrnGd=T RCrit=4.00D+00 DoMicB=T.
 IPart= 5 IRanGd=          0 ScrnBf=T ScrnGd=T RCrit=4.00D+00 DoMicB=T.
 IPart= 7 IRanGd=          0 ScrnBf=T ScrnGd=T RCrit=4.00D+00 DoMicB=T.
 IPart= 3 IRanGd=          0 ScrnBf=T ScrnGd=T RCrit=4.00D+00 DoMicB=T.
 CutRad = 1000.00    CtRdIn =    0.00    XCrit =  15.00   ICut = 0
 CutRad = 1000.00    CtRdIn =    0.00    XCrit =  15.00   ICut = 0
 CutRad = 1000.00    CtRdIn =    0.00    XCrit =  15.00   ICut = 0
 CutRad = 1000.00    CtRdIn =    0.00    XCrit =  15.00   ICut = 0
 CutRad = 1000.00    CtRdIn =    0.00    XCrit =  15.00   ICut = 0
 CutRad = 1000.00    CtRdIn =    0.00    XCrit =  15.00   ICut = 0
 IPart= 3        13272 of        15142 points in      32 batches and      100 microbatches, Max-NSigAt=      16 Max-NSgAt2=      16
 IPart= 7        14106 of        16320 points in      33 batches and      104 microbatches, Max-NSigAt=      16 Max-NSgAt2=      16
 IPart= 4        14798 of        17040 points in      36 batches and      102 microbatches, Max-NSigAt=      16 Max-NSgAt2=      16
 IPart= 2        14017 of        16248 points in      33 batches and       89 microbatches, Max-NSigAt=      16 Max-NSgAt2=      16
 IPart= 1        13387 of        15204 points in      31 batches and       97 microbatches, Max-NSigAt=      16 Max-NSgAt2=      16
 IPart= 0        14144 of        15704 points in      31 batches and       98 microbatches, Max-NSigAt=      16 Max-NSgAt2=      16
 IPart= 5        13923 of        15732 points in      32 batches and       95 microbatches, Max-NSigAt=      16 Max-NSgAt2=      16
 IPart= 6        14569 of        16400 points in      34 batches and       90 microbatches, Max-NSigAt=      16 Max-NSgAt2=      16
 Polarizability after L703:
                1             2             3
      1  0.611771D+02
      2  0.352515D+00  0.716148D+02
      3 -0.524660D+01  0.330235D+01  0.650414D+02
 Dipole Derivatives after L703:
               1            2            3            4            5
      1-0.134097D-01 0.489201D-01-0.314963D-01 0.535928D+00-0.248164D+00
      2 0.219324D-01-0.951205D-02-0.996107D-01-0.439623D+00 0.704428D+00
      3 0.638016D-01-0.851256D-02-0.660866D-01-0.108798D+00 0.224866D+00
               6            7            8            9           10
      1 0.345369D-01-0.832591D-01-0.375992D-01-0.443438D-01 0.599203D+00
      2 0.135565D+00 0.684513D-01-0.740851D-01 0.797396D-01-0.178085D+00
      3 0.388156D+00-0.662118D-01-0.720417D-01-0.688377D-01 0.564594D-01
              11           12           13           14           15
      1 0.165975D-01 0.334631D-01-0.500600D+00 0.647911D-01 0.377779D-01
      2 0.793956D+00 0.117379D+00 0.364438D+00-0.887727D+00-0.209949D+00
      3 0.254290D-01 0.538209D+00 0.317910D-01-0.528313D-01-0.442364D+00
              16           17           18           19           20
      1-0.450396D+00 0.169597D+00-0.122625D+00-0.153065D+00 0.485357D-01
      2 0.340292D+00-0.686423D+00 0.920438D-01 0.113812D+00-0.293810D+00
      3 0.350241D-02-0.143382D+00 0.363498D-01 0.185306D+00-0.397710D-01
              21           22           23           24           25
      1 0.234583D+00-0.796647D-01-0.779974D-02-0.316568D-01 0.532957D-01
      2-0.241449D+00 0.556489D-02 0.921565D-01 0.101103D-01 0.475201D-01
      3-0.505228D+00-0.828345D-01 0.855498D-02 0.500741D-01 0.165529D-01
              26           27           28           29           30
      1 0.573189D-01 0.112596D-01 0.252740D-01-0.915786D-01 0.336773D-01
      2 0.460976D-02 0.146258D-01-0.884814D-01-0.776108D-01 0.709908D-01
      3-0.526238D-01 0.630941D-01 0.444915D-01 0.794075D-01-0.154195D-01
              31           32           33           34           35
      1-0.321156D-01-0.106665D+00 0.693234D-03 0.613112D-01 0.871455D-01
      2-0.131295D+00-0.842113D-01 0.324143D-01 0.133865D-01 0.494511D-02
      3-0.580108D-02 0.426806D-01 0.574457D-01 0.232324D-01-0.338301D-01
              36           37           38           39           40
      1 0.285966D-01 0.737622D-01-0.146311D-01-0.140954D-01-0.242762D+00
      2-0.495447D-01-0.420011D-02 0.911688D-01 0.999063D-02-0.243466D-01
      3 0.699702D-01 0.341788D-01 0.153979D-01-0.590363D-01-0.108921D+00
              41           42           43           44           45
      1 0.425334D-01-0.115578D+00-0.246728D-01-0.100641D-03 0.191070D-01
      2 0.119244D-01 0.353270D-01-0.487765D-01 0.349895D-01-0.720366D-03
      3 0.559453D-02-0.647521D-01 0.643319D-02-0.241222D-01-0.240289D+00
              46           47           48
      1 0.231170D+00-0.289006D-01-0.738990D-01
      2-0.605907D-01 0.375201D+00 0.308687D-02
      3-0.931827D-01 0.251846D-01 0.258715D+00
 Hessian after L703:
                1             2             3             4             5
      1  0.574966D+00
      2 -0.169125D-01  0.552583D+00
      3  0.806984D-02  0.129197D-01  0.468026D+00
      4 -0.803911D-01  0.554605D-02 -0.114814D-01  0.464152D+00
      5  0.853642D-02 -0.604255D-01 -0.609257D-02 -0.114431D+00  0.236769D+00
      6 -0.896770D-02  0.145800D-01 -0.198142D+00  0.499028D-01  0.482113D-01
      7  0.320483D-02 -0.256024D-02 -0.205299D-02 -0.160269D+00  0.941169D-02
      8  0.123816D-02  0.282825D-02  0.343141D-02 -0.879245D-02 -0.651429D-01
      9 -0.314028D-01 -0.234005D-02 -0.159390D-01 -0.547882D-01 -0.268611D-02
     10  0.133229D-02 -0.121030D-02  0.197098D-03 -0.186636D-01 -0.210737D-01
     11 -0.608039D-02 -0.903935D-02  0.116267D-01  0.302806D-01  0.831011D-01
     12  0.343277D-02  0.779362D-02 -0.427846D-02  0.382097D-02  0.830030D-02
     13 -0.124792D-02 -0.108970D-02  0.400506D-02  0.113405D-01  0.333423D-01
     14  0.103261D-02  0.501431D-03 -0.333296D-02 -0.516701D-02 -0.420214D-01
     15  0.185118D-02  0.174836D-02 -0.230909D-02 -0.774336D-02 -0.179399D-01
     16  0.724022D-03  0.246933D-02  0.135473D-01 -0.170669D+00  0.989123D-01
     17  0.743683D-03 -0.892078D-03 -0.826499D-02  0.114241D+00 -0.127084D+00
     18  0.269107D-01 -0.289700D-01 -0.299466D-01  0.232641D-01 -0.278301D-01
     19 -0.527818D-02  0.702660D-02  0.654253D-03  0.352479D-02 -0.297732D-02
     20  0.352060D-02 -0.671468D-03  0.642981D-03 -0.616494D-02  0.148706D-02
     21  0.664912D-02 -0.276548D-02  0.624215D-02  0.747890D-02 -0.127768D-01
     22 -0.279446D+00  0.484826D-02 -0.888535D-01  0.137628D-02 -0.237697D-05
     23  0.478164D-02 -0.456741D-01  0.158203D-02  0.863122D-03 -0.273318D-02
     24 -0.849168D-01  0.160288D-02 -0.800580D-01 -0.338290D-01  0.191747D-02
     25 -0.103325D+00  0.102240D+00  0.391630D-01 -0.181973D-02 -0.112734D-02
     26  0.103887D+00 -0.229194D+00 -0.754060D-01 -0.993843D-03  0.228383D-02
     27  0.380465D-01 -0.720805D-01 -0.736825D-01  0.187622D-01 -0.272130D-01
     28 -0.106652D+00 -0.100478D+00  0.376938D-01 -0.134855D-02 -0.737364D-04
     29 -0.100562D+00 -0.210135D+00  0.642218D-01  0.126690D-02 -0.123073D-02
     30  0.404324D-01  0.679556D-01 -0.712136D-01  0.170250D-01  0.277344D-01
     31  0.991567D-03  0.625309D-03  0.158806D-02 -0.216942D-01 -0.273108D-01
     32  0.219932D-03  0.400153D-03  0.272644D-03 -0.223012D-02 -0.153537D-02
     33  0.379049D-03 -0.239966D-03  0.992694D-03 -0.827421D-02 -0.139593D-01
     34  0.829073D-03 -0.193695D-03  0.433115D-03 -0.186244D-01  0.229503D-01
     35 -0.460726D-03 -0.116833D-03 -0.325405D-03  0.444060D-03  0.662170D-03
     36  0.324528D-03  0.172813D-03 -0.710049D-05 -0.662175D-02  0.136564D-01
     37 -0.575340D-02  0.274988D-03 -0.147685D-02  0.614207D-02  0.927425D-04
     38 -0.412538D-04  0.611715D-03  0.378262D-05 -0.779729D-03 -0.250393D-02
     39 -0.314263D-02  0.283494D-03  0.108976D-03  0.308583D-03  0.423832D-03
     40 -0.273315D-03  0.382355D-03 -0.846152D-03 -0.754150D-02 -0.351959D-02
     41  0.283661D-04  0.567193D-03 -0.847737D-03 -0.106989D-01 -0.115319D-01
     42  0.517736D-03  0.667611D-03  0.409943D-03  0.140873D-02  0.451981D-02
     43 -0.608730D-03 -0.399864D-03 -0.519200D-03 -0.234424D-02 -0.448972D-02
     44 -0.183637D-03 -0.955839D-03 -0.295789D-03 -0.548677D-02 -0.910434D-02
     45  0.266661D-03  0.786125D-03  0.665334D-04  0.121608D-02  0.194570D-02
     46  0.928025D-03 -0.568394D-03 -0.121536D-03 -0.317041D-02  0.175978D-02
     47  0.252405D-03 -0.387444D-03 -0.135669D-03  0.210335D-02 -0.989582D-03
     48  0.154939D-02 -0.211419D-02 -0.269717D-03 -0.449472D-03  0.178854D-02
                6             7             8             9            10
      6  0.515260D+00
      7 -0.589872D-01  0.478715D+00
      8 -0.139232D-01 -0.227932D-01  0.553039D+00
      9 -0.119261D+00 -0.386046D-01  0.943118D-02  0.569226D+00
     10  0.483352D-02 -0.447027D-02 -0.774227D-02 -0.664612D-03  0.600144D+00
     11 -0.183738D-01 -0.117152D-01 -0.825378D-02 -0.171021D-03 -0.221564D+00
     12 -0.129143D-01 -0.313531D-02 -0.298597D-02  0.123832D-02 -0.152116D-01
     13 -0.764779D-02 -0.390387D-02 -0.135714D-02  0.192628D-03 -0.316890D+00
     14  0.224633D-02  0.227218D-02 -0.338538D-03  0.111446D-02  0.221325D+00
     15  0.174641D-02  0.169429D-02 -0.266330D-03  0.102956D-02  0.122253D+00
     16 -0.109785D-01 -0.343082D-01  0.344969D-01  0.138551D-01 -0.302794D-02
     17 -0.911392D-02  0.727019D-02  0.107596D-02 -0.474493D-02  0.136638D-01
     18 -0.883619D-01 -0.107319D-02  0.860092D-02  0.929469D-02 -0.546411D-03
     19  0.418323D-01 -0.181172D-02  0.107851D-03  0.300776D-03 -0.187404D-03
     20 -0.293250D-01  0.823322D-03 -0.338880D-03  0.217494D-02 -0.985058D-03
     21 -0.328058D-01 -0.271003D-02 -0.842626D-04  0.355452D-02 -0.179194D-03
     22 -0.420820D-03  0.756721D-03  0.734459D-04 -0.361503D-05 -0.409823D-03
     23  0.866199D-03 -0.646616D-04  0.465336D-03 -0.151127D-03  0.935965D-03
     24 -0.125749D-01  0.235245D-02 -0.136076D-03 -0.613914D-02 -0.128134D-02
     25  0.250545D-02 -0.301658D-03 -0.330412D-03 -0.109730D-03 -0.537139D-03
     26 -0.101273D-02  0.751891D-04 -0.429298D-03  0.527415D-03 -0.579296D-03
     27 -0.111407D-01 -0.161809D-03  0.417871D-03  0.798291D-03  0.189104D-02
     28  0.319244D-02  0.245217D-03  0.478660D-03 -0.205284D-03 -0.518969D-03
     29  0.257017D-02  0.300202D-04  0.633191D-03 -0.473737D-03  0.847428D-03
     30 -0.179950D-01  0.974565D-03 -0.516418D-03  0.222254D-02 -0.142658D-03
     31  0.326406D-02 -0.103928D+00 -0.104400D+00  0.296128D-01 -0.142495D-02
     32 -0.210140D-02 -0.100004D+00 -0.220885D+00  0.494465D-01  0.153456D-03
     33  0.224289D-02  0.267021D-01  0.476897D-01 -0.587374D-01 -0.644794D-03
     34  0.114702D-01 -0.122094D+00  0.112695D+00  0.419477D-01 -0.191810D-02
     35  0.103075D-02  0.117499D+00 -0.214808D+00 -0.641636D-01 -0.107358D-02
     36  0.544896D-02  0.434099D-01 -0.644866D-01 -0.718577D-01  0.399657D-04
     37 -0.317163D-01 -0.516625D-01 -0.168891D-02  0.380166D-01  0.173185D-03
     38 -0.112523D-02 -0.991666D-03 -0.463241D-01  0.112756D-01 -0.292865D-04
     39 -0.153889D-01  0.334330D-01  0.121022D-01 -0.314234D+00  0.494512D-04
     40 -0.139968D-02 -0.217571D-03 -0.128367D-02  0.894606D-03 -0.192853D+00
     41 -0.704573D-03 -0.619261D-04 -0.998144D-03  0.131129D-03  0.181663D-01
     42 -0.110033D-02 -0.827791D-04 -0.288356D-04 -0.364322D-03 -0.906484D-01
     43  0.366725D-02  0.890865D-04 -0.922804D-03  0.123621D-02 -0.610569D-01
     44  0.888430D-02  0.623608D-03 -0.498511D-04  0.751597D-03 -0.133084D-02
     45 -0.524747D-02 -0.437897D-03 -0.509825D-03 -0.204072D-03 -0.201904D-01
     46 -0.550115D-03 -0.438982D-04  0.220218D-03 -0.277592D-03  0.308471D-03
     47 -0.270919D-02  0.185515D-03 -0.472697D-03 -0.122246D-03  0.496346D-03
     48 -0.976539D-02 -0.132052D-02  0.126417D-02 -0.626410D-03  0.244911D-03
               11            12            13            14            15
     11  0.212504D+00
     12  0.134186D+00  0.573921D+00
     13  0.168319D+00  0.123048D+00  0.332108D+00
     14 -0.200475D+00 -0.126435D+00 -0.256830D+00  0.269403D+00
     15 -0.963216D-01 -0.165158D+00 -0.147722D+00  0.144988D+00  0.149993D+00
     16 -0.557568D-02 -0.623395D-03 -0.138445D-02  0.481028D-02  0.212040D-02
     17 -0.433660D-02 -0.832318D-02  0.106531D-02 -0.990970D-02  0.169822D-03
     18 -0.395572D-03  0.202395D-02  0.635754D-03 -0.410302D-03 -0.370892D-03
     19 -0.223145D-02  0.196400D-03 -0.511844D-03  0.103652D-02  0.140057D-03
     20 -0.129502D-02  0.328554D-02  0.357173D-03  0.303066D-03 -0.127567D-02
     21  0.427011D-02 -0.190477D-02  0.100715D-02 -0.144836D-02  0.433760D-03
     22 -0.558971D-03 -0.101363D-03  0.247177D-04  0.524971D-03  0.572346D-04
     23  0.404534D-03  0.361231D-03 -0.447992D-03 -0.315680D-03 -0.198880D-03
     24 -0.127908D-02 -0.358576D-03  0.124577D-03  0.310107D-03  0.198830D-03
     25  0.144454D-02  0.880378D-03  0.379298D-03 -0.403800D-03 -0.135963D-02
     26 -0.961087D-03  0.141791D-02 -0.397055D-03  0.167308D-03  0.268133D-03
     27 -0.268608D-02 -0.144258D-02 -0.210961D-02  0.496892D-03  0.150305D-02
     28  0.172784D-02 -0.144873D-03  0.760065D-03 -0.351311D-03 -0.611052D-03
     29  0.151207D-03  0.451906D-03 -0.506309D-03  0.444500D-03  0.565876D-03
     30 -0.222825D-02 -0.195149D-02 -0.107530D-02  0.862367D-03  0.111809D-02
     31  0.294535D-02 -0.610344D-03  0.199789D-02 -0.111102D-02 -0.621310D-03
     32  0.376803D-03 -0.910671D-03 -0.760526D-03  0.481221D-03  0.155705D-03
     33 -0.356203D-03 -0.853604D-03 -0.142805D-04 -0.175516D-03  0.913092D-04
     34  0.293400D-02  0.103060D-02  0.269860D-02 -0.538237D-03 -0.884007D-03
     35 -0.129508D-03  0.761780D-04 -0.273126D-03 -0.287837D-03 -0.868998D-04
     36 -0.266445D-04  0.244636D-03 -0.308095D-03  0.163801D-04 -0.746113D-03
     37  0.890623D-03 -0.102745D-02  0.376125D-05  0.447537D-04  0.172573D-03
     38  0.375046D-03 -0.903642D-03  0.119939D-03 -0.246747D-03  0.488513D-03
     39  0.108201D-02 -0.667721D-03  0.264072D-03 -0.587418D-03  0.103005D-03
     40  0.288141D-01 -0.100610D+00 -0.311961D-01  0.225324D-01  0.128153D-03
     41 -0.360228D-01  0.111654D-01  0.402444D-01 -0.857944D-02  0.269076D-02
     42  0.435482D-02 -0.126219D+00  0.955503D-02  0.108512D-02  0.236023D-01
     43  0.959972D-02 -0.111893D-01  0.549657D-02  0.114399D-01  0.308099D-01
     44 -0.367224D-01 -0.264406D-01  0.187066D-01 -0.930346D-02 -0.355419D-01
     45 -0.339509D-01 -0.261991D+00  0.200928D-01 -0.188380D-01 -0.112073D-01
     46  0.769678D-03  0.244668D-03  0.325450D-03 -0.617206D-03 -0.285865D-03
     47  0.322808D-03 -0.103943D-02 -0.492911D-03  0.177684D-03  0.555908D-03
     48  0.269508D-03  0.311093D-03 -0.477892D-04  0.107440D-03 -0.287333D-04
               16            17            18            19            20
     16  0.270796D+00
     17 -0.159519D+00  0.161419D+00
     18 -0.302611D-01  0.462984D-01  0.338521D+00
     19 -0.719169D-01  0.252889D-01 -0.493426D-02  0.586130D+00
     20  0.220213D-01 -0.212112D-01  0.888566D-03 -0.531226D-01  0.232874D-01
     21 -0.290661D-01 -0.112886D-01 -0.201113D+00 -0.589851D-01  0.323148D-01
     22 -0.584923D-04  0.303306D-03  0.979699D-03  0.574573D-03 -0.962503D-04
     23 -0.387342D-03 -0.139805D-03 -0.785377D-03  0.282897D-04 -0.214884D-03
     24 -0.561721D-03  0.777355D-04  0.843669D-03  0.201824D-03  0.388670D-03
     25  0.694177D-04  0.972957D-04  0.233508D-03  0.606256D-03  0.386779D-03
     26  0.337334D-03 -0.106009D-02 -0.655509D-03 -0.510627D-03  0.571446D-03
     27 -0.253617D-02  0.129400D-02 -0.564057D-02  0.224081D-02 -0.109524D-02
     28  0.383962D-03 -0.381265D-03 -0.547444D-03  0.251786D-04  0.471339D-03
     29  0.116467D-03  0.992610D-03 -0.341936D-03 -0.301752D-03 -0.292763D-03
     30 -0.111093D-02  0.429032D-03  0.227972D-02 -0.214538D-03 -0.102025D-02
     31  0.194541D-02  0.274885D-02 -0.819951D-03 -0.355812D-03 -0.143337D-03
     32 -0.656835D-03  0.571854D-03  0.169077D-03 -0.123917D-03  0.154722D-03
     33  0.922916D-03  0.953911D-03 -0.265321D-04  0.165374D-03 -0.548318D-03
     34 -0.649179D-02  0.400450D-03 -0.299236D-02  0.889446D-03 -0.150941D-03
     35 -0.178609D-02  0.613357D-03  0.549741D-04 -0.110597D-03  0.710909D-05
     36 -0.513555D-02 -0.248144D-03 -0.177421D-02  0.129282D-02 -0.175755D-03
     37  0.220905D-02 -0.972869D-03 -0.540216D-04 -0.298692D-02  0.165480D-02
     38  0.156648D-03 -0.195608D-03  0.526924D-03  0.103460D-02 -0.570233D-03
     39  0.838619D-03 -0.662851D-03 -0.170982D-02  0.264741D-02 -0.118673D-02
     40  0.283764D-02 -0.141472D-02  0.100605D-03  0.284288D-03 -0.175249D-03
     41 -0.149436D-04  0.802217D-03  0.504343D-03  0.266375D-03  0.184616D-05
     42  0.718493D-03  0.514817D-03 -0.451315D-03 -0.219426D-04 -0.696897D-03
     43  0.106675D-02 -0.110841D-02 -0.532645D-04 -0.823341D-05  0.304154D-03
     44  0.139101D-02 -0.213259D-04  0.356539D-03  0.124937D-03  0.312219D-04
     45 -0.760337D-03  0.213017D-02 -0.103074D-02 -0.340507D-03 -0.249799D-02
     46  0.782398D-02 -0.242624D-02 -0.108424D-01 -0.508978D+00  0.312989D-01
     47  0.322820D-02 -0.624151D-03  0.198895D-02  0.244642D-01 -0.124941D-02
     48  0.490310D-01 -0.922131D-02 -0.225375D-01  0.148244D-01 -0.187359D-02
               21            22            23            24            25
     21  0.267754D+00
     22 -0.133808D-03  0.302044D+00
     23  0.267376D-03 -0.482870D-02  0.449962D-01
     24  0.143756D-02  0.971093D-01 -0.303751D-02  0.887613D-01
     25  0.190573D-03 -0.121311D-01  0.240882D-01  0.108647D-01  0.109085D+00
     26  0.178298D-02 -0.117493D-02  0.134389D-02  0.127096D-02 -0.112292D+00
     27 -0.180745D-02 -0.462931D-02  0.110114D-01  0.411982D-02 -0.449733D-01
     28  0.674071D-03 -0.136792D-01 -0.245054D-01  0.101579D-01  0.787162D-02
     29 -0.172039D-03  0.889180D-03  0.925265D-03 -0.124567D-02 -0.139921D-01
     30 -0.160025D-02 -0.475446D-02 -0.101270D-01  0.385835D-02 -0.670054D-02
     31  0.589709D-03  0.117565D-03  0.345814D-03  0.183033D-03  0.512203D-04
     32  0.175648D-03  0.495925D-04  0.214356D-03 -0.148316D-03 -0.212983D-04
     33 -0.138961D-03  0.225956D-03  0.208098D-03  0.133313D-03 -0.146420D-03
     34 -0.104749D-02  0.932259D-04 -0.291975D-03  0.267375D-03  0.197904D-03
[...]
    X7       -1.90628  -0.00001   0.00000   0.00007  -0.00001  -1.90629
    Y7        1.69711   0.00001   0.00000   0.00021   0.00011   1.69721
    Z7        6.41322  -0.00001   0.00000   0.00005   0.00004   6.41326
    X8       -1.92508   0.00000   0.00000  -0.00006  -0.00010  -1.92518
    Y8        0.02084   0.00000   0.00000  -0.00024  -0.00034   0.02050
    Z8       -0.74090   0.00000   0.00000   0.00005   0.00004  -0.74086
    X9        0.94237   0.00000   0.00000   0.00011   0.00012   0.94249
    Y9       -1.71871   0.00000   0.00000   0.00005   0.00003  -1.71868
    Z9       -0.67603   0.00000   0.00000   0.00014   0.00012  -0.67591
   X10        1.00709   0.00000   0.00000  -0.00018  -0.00027   1.00682
   Y10        1.64824   0.00000   0.00000   0.00003   0.00001   1.64825
   Z10       -0.69192   0.00000   0.00000  -0.00009  -0.00010  -0.69202
   X11        3.50614   0.00000   0.00000   0.00030   0.00022   3.50636
   Y11        1.71115   0.00000   0.00000  -0.00025  -0.00019   1.71096
   Z11        3.75354   0.00000   0.00000  -0.00007  -0.00009   3.75346
   X12        3.57710   0.00000   0.00000  -0.00029  -0.00027   3.57683
   Y12       -1.65343   0.00000   0.00000  -0.00027  -0.00021  -1.65365
   Z12        3.60456   0.00000   0.00000   0.00031   0.00029   3.60485
   X13        2.21710   0.00000   0.00000  -0.00010  -0.00012   2.21698
   Y13       -0.11340   0.00000   0.00000   0.00029   0.00031  -0.11309
   Z13        6.25137   0.00000   0.00000   0.00010   0.00009   6.25145
   X14       -3.15762   0.00000   0.00000   0.00023   0.00030  -3.15732
   Y14       -3.39818   0.00001   0.00000   0.00013  -0.00001  -3.39819
   Z14        2.62672   0.00000   0.00000  -0.00027  -0.00028   2.62644
   X15       -1.41004   0.00000   0.00000   0.00006   0.00014  -1.40990
   Y15       -3.35124   0.00000   0.00000  -0.00033  -0.00042  -3.35166
   Z15        5.67419   0.00000   0.00000  -0.00016  -0.00017   5.67402
   X16       -3.71163   0.00000   0.00000   0.00019   0.00011  -3.71152
   Y16        1.80747   0.00000   0.00000   0.00178   0.00162   1.80909
   Z16        6.67718   0.00001   0.00000   0.00028   0.00027   6.67745
         Item               Value     Threshold  Converged?
 Maximum Force            0.000030     0.000450     YES
 RMS     Force            0.000009     0.000300     YES
 Maximum Displacement     0.001624     0.001800     YES
 RMS     Displacement     0.000316     0.001200     YES
 Predicted change in Energy=-1.748369D-08
 Optimization completed.
    -- Stationary point found.
 GradGradGradGradGradGradGradGradGradGradGradGradGradGradGradGradGradGrad


 Test job not archived.
 1\1\GINC-NODE49\Freq\UB3LYP\CBSB7\C4H9O3(2)\GOLDMANM\26-Jun-2019\0\\# 
 freq nosymm b3lyp/cbsb7 iop(7/33=1)\\NBO NRT\\0,2\C,-0.002,-0.01045,0.
 00434\C,-0.00747,-0.03387,1.50639\C,1.30622,-0.0139,2.22877\C,-0.71633
 ,-1.99218,1.91828\O,0.13378,-2.75862,1.44178\O,-1.00778,0.80039,1.9405
 2\O,-1.00876,0.89807,3.39373\H,-1.01871,0.01103,-0.39207\H,0.49868,-0.
 9095,-0.35774\H,0.53293,0.87221,-0.36615\H,1.85537,0.9055,1.98629\H,1.
 89292,-0.87496,1.90745\H,1.17324,-0.06001,3.30808\H,-1.67094,-1.79824,
 1.39\H,-0.74616,-1.7734,3.00265\H,-1.96411,0.95647,3.53341\\Version=AM
 64L-G03RevD.01\HF=-383.4489166\S2=0.7616\S2-1=0.\S2A=0.750045\RMSD=8.9
 24e-09\RMSF=9.194e-06\ZeroPoint=0.1268717\Thermal=0.1361849\Dipole=-0.
 5982845,1.145923,0.2504714\DipoleDeriv=-0.0134097,0.0219324,0.0638016,
 0.0489201,-0.0095121,-0.0085126,-0.0314963,-0.0996107,-0.0660866,0.535
 928,-0.4396229,-0.1087985,-0.2481642,0.7044285,0.2248657,0.0345369,0.1
 355653,0.3881559,-0.0832591,0.0684513,-0.0662118,-0.0375992,-0.0740851
 ,-0.0720417,-0.0443438,0.0797396,-0.0688377,0.5992026,-0.1780846,0.056
 4594,0.0165975,0.7939558,0.025429,0.0334631,0.1173792,0.5382089,-0.500
 5998,0.3644378,0.031791,0.0647911,-0.8877274,-0.0528313,0.0377779,-0.2
 099489,-0.4423643,-0.4503959,0.3402924,0.0035024,0.1695965,-0.6864229,
 -0.1433823,-0.1226246,0.0920438,0.0363498,-0.1530648,0.1138124,0.18530
 61,0.0485357,-0.2938099,-0.039771,0.2345828,-0.2414488,-0.5052278,-0.0
 796647,0.0055649,-0.0828345,-0.0077997,0.0921565,0.008555,-0.0316568,0
 .0101103,0.0500741,0.0532957,0.0475201,0.0165529,0.0573189,0.0046098,-
 0.0526238,0.0112596,0.0146258,0.0630941,0.025274,-0.0884814,0.0444915,
 -0.0915786,-0.0776108,0.0794075,0.0336773,0.0709908,-0.0154195,-0.0321
 156,-0.1312951,-0.0058011,-0.1066648,-0.0842113,0.0426806,0.0006932,0.
 0324143,0.0574457,0.0613112,0.0133865,0.0232324,0.0871455,0.0049451,-0
 .0338301,0.0285966,-0.0495447,0.0699702,0.0737622,-0.0042001,0.0341788
 ,-0.0146311,0.0911688,0.0153979,-0.0140954,0.0099906,-0.0590363,-0.242
 7617,-0.0243466,-0.1089207,0.0425334,0.0119244,0.0055945,-0.1155785,0.
 035327,-0.0647521,-0.0246728,-0.0487765,0.0064332,-0.0001006,0.0349895
 ,-0.0241222,0.019107,-0.0007204,-0.240289,0.2311703,-0.0605907,-0.0931
 827,-0.0289006,0.3752011,0.0251846,-0.073899,0.0030869,0.2587146\Polar
 =61.1770854,0.3525155,71.6147523,-5.2465986,3.302354,65.041392\PG=C01 
 [X(C4H9O3)]\NImag=1\\0.57496557,-0.01691250,0.55258268,0.00806984,0.01
 291971,0.46802590,-0.08039110,0.00554605,-0.01148138,0.46415226,0.0085
 3642,-0.06042552,-0.00609257,-0.11443098,0.23676924,-0.00896770,0.0145
 7996,-0.19814225,0.04990284,0.04821129,0.51525984,0.00320483,-0.002560
 24,-0.00205299,-0.16026939,0.00941169,-0.05898721,0.47871462,0.0012381
 6,0.00282825,0.00343141,-0.00879245,-0.06514291,-0.01392315,-0.0227931
 8,0.55303888,-0.03140284,-0.00234005,-0.01593899,-0.05478822,-0.002686
 11,-0.11926126,-0.03860460,0.00943118,0.56922573,0.00133229,-0.0012103
 0,0.00019710,-0.01866359,-0.02107371,0.00483352,-0.00447027,-0.0077422
 7,-0.00066461,0.60014444,-0.00608039,-0.00903935,0.01162668,0.03028065
 ,0.08310113,-0.01837379,-0.01171516,-0.00825378,-0.00017102,-0.2215641
 3,0.21250432,0.00343277,0.00779362,-0.00427846,0.00382097,0.00830030,-
 0.01291428,-0.00313531,-0.00298597,0.00123832,-0.01521161,0.13418603,0
 .57392088,-0.00124792,-0.00108970,0.00400506,0.01134053,0.03334230,-0.
 00764779,-0.00390387,-0.00135714,0.00019263,-0.31689026,0.16831926,0.1
 2304771,0.33210755,0.00103261,0.00050143,-0.00333296,-0.00516701,-0.04
 202145,0.00224633,0.00227218,-0.00033854,0.00111446,0.22132522,-0.2004
 7528,-0.12643458,-0.25683026,0.26940293,0.00185118,0.00174836,-0.00230
 909,-0.00774336,-0.01793987,0.00174641,0.00169429,-0.00026633,0.001029
 56,0.12225335,-0.09632159,-0.16515756,-0.14772187,0.14498807,0.1499934
 2,0.00072402,0.00246933,0.01354727,-0.17066878,0.09891233,-0.01097853,
 -0.03430825,0.03449688,0.01385509,-0.00302794,-0.00557568,-0.00062339,
 -0.00138445,0.00481028,0.00212040,0.27079634,0.00074368,-0.00089208,-0
 .00826499,0.11424063,-0.12708448,-0.00911392,0.00727019,0.00107596,-0.
 00474493,0.01366375,-0.00433660,-0.00832318,0.00106531,-0.00990970,0.0
 0016982,-0.15951890,0.16141909,0.02691073,-0.02896995,-0.02994659,0.02
 326411,-0.02783008,-0.08836186,-0.00107319,0.00860092,0.00929469,-0.00
 054641,-0.00039557,0.00202395,0.00063575,-0.00041030,-0.00037089,-0.03
 026110,0.04629844,0.33852068,-0.00527818,0.00702660,0.00065425,0.00352
 479,-0.00297732,0.04183230,-0.00181172,0.00010785,0.00030078,-0.000187
 40,-0.00223145,0.00019640,-0.00051184,0.00103652,0.00014006,-0.0719168
 7,0.02528895,-0.00493426,0.58613021,0.00352060,-0.00067147,0.00064298,
 -0.00616494,0.00148706,-0.02932502,0.00082332,-0.00033888,0.00217494,-
 0.00098506,-0.00129502,0.00328554,0.00035717,0.00030307,-0.00127567,0.
 02202130,-0.02121125,0.00088857,-0.05312263,0.02328743,0.00664912,-0.0
 0276548,0.00624215,0.00747890,-0.01277681,-0.03280581,-0.00271003,-0.0
 0008426,0.00355452,-0.00017919,0.00427011,-0.00190477,0.00100715,-0.00
 144836,0.00043376,-0.02906609,-0.01128859,-0.20111266,-0.05898514,0.03
 231477,0.26775351,-0.27944635,0.00484826,-0.08885348,0.00137628,-0.000
 00238,-0.00042082,0.00075672,0.00007345,-0.00000362,-0.00040982,-0.000
 55897,-0.00010136,0.00002472,0.00052497,0.00005723,-0.00005849,0.00030
 331,0.00097970,0.00057457,-0.00009625,-0.00013381,0.30204359,0.0047816
 4,-0.04567410,0.00158203,0.00086312,-0.00273318,0.00086620,-0.00006466
 ,0.00046534,-0.00015113,0.00093597,0.00040453,0.00036123,-0.00044799,-
 0.00031568,-0.00019888,-0.00038734,-0.00013981,-0.00078538,0.00002829,
 -0.00021488,0.00026738,-0.00482870,0.04499618,-0.08491676,0.00160288,-
 0.08005798,-0.03382903,0.00191747,-0.01257489,0.00235245,-0.00013608,-
 0.00613914,-0.00128134,-0.00127908,-0.00035858,0.00012458,0.00031011,0
 .00019883,-0.00056172,0.00007774,0.00084367,0.00020182,0.00038867,0.00
 143756,0.09710931,-0.00303751,0.08876130,-0.10332485,0.10224007,0.0391
 6304,-0.00181973,-0.00112734,0.00250545,-0.00030166,-0.00033041,-0.000
 10973,-0.00053714,0.00144454,0.00088038,0.00037930,-0.00040380,-0.0013
 5963,0.00006942,0.00009730,0.00023351,0.00060626,0.00038678,0.00019057
 ,-0.01213108,0.02408822,0.01086466,0.10908479,0.10388660,-0.22919393,-
 0.07540596,-0.00099384,0.00228383,-0.00101273,0.00007519,-0.00042930,0
 .00052741,-0.00057930,-0.00096109,0.00141791,-0.00039705,0.00016731,0.
 00026813,0.00033733,-0.00106009,-0.00065551,-0.00051063,0.00057145,0.0
 0178298,-0.00117493,0.00134389,0.00127096,-0.11229155,0.24605987,0.038
 04647,-0.07208055,-0.07368245,0.01876219,-0.02721304,-0.01114067,-0.00
 016181,0.00041787,0.00079829,0.00189104,-0.00268608,-0.00144258,-0.002
 10961,0.00049689,0.00150305,-0.00253617,0.00129400,-0.00564057,0.00224
 081,-0.00109524,-0.00180745,-0.00462931,0.01101144,0.00411982,-0.04497
 331,0.08034498,0.08434210,-0.10665152,-0.10047827,0.03769383,-0.001348
 55,-0.00007374,0.00319244,0.00024522,0.00047866,-0.00020528,-0.0005189
 7,0.00172784,-0.00014487,0.00076007,-0.00035131,-0.00061105,0.00038396
 ,-0.00038127,-0.00054744,0.00002518,0.00047134,0.00067407,-0.01367922,
 -0.02450537,0.01015792,0.00787162,0.01147095,-0.00608837,0.11195062,-0
 .10056191,-0.21013487,0.06422185,0.00126690,-0.00123073,0.00257017,0.0
 0003002,0.00063319,-0.00047374,0.00084743,0.00015121,0.00045191,-0.000
 50631,0.00044450,0.00056588,0.00011647,0.00099261,-0.00034194,-0.00030
 175,-0.00029276,-0.00017204,0.00088918,0.00092527,-0.00124567,-0.01399
 207,-0.01947990,0.00879053,0.11172310,0.22779869,0.04043245,0.06795562
 ,-0.07121355,0.01702502,0.02773442,-0.01799500,0.00097456,-0.00051642,
 0.00222254,-0.00014266,-0.00222825,-0.00195149,-0.00107530,0.00086237,
 0.00111809,-0.00111093,0.00042903,0.00227972,-0.00021454,-0.00102025,-
 0.00160025,-0.00475446,-0.01012699,0.00385835,-0.00670054,-0.00797064,
 0.00348229,-0.04438476,-0.07484410,0.08003448,0.00099157,0.00062531,0.
 00158806,-0.02169421,-0.02731083,0.00326406,-0.10392777,-0.10439983,0.
 02961284,-0.00142495,0.00294535,-0.00061034,0.00199789,-0.00111102,-0.
 00062131,0.00194541,0.00274885,-0.00081995,-0.00035581,-0.00014334,0.0
 0058971,0.00011756,0.00034581,0.00018303,0.00005122,-0.00005302,0.0001
 5233,0.00038284,0.00051065,-0.00102447,0.11509510,0.00021993,0.0004001
 5,0.00027264,-0.00223012,-0.00153537,-0.00210140,-0.10000401,-0.220885
 27,0.04944652,0.00015346,0.00037680,-0.00091067,-0.00076053,0.00048122
 ,0.00015571,-0.00065683,0.00057185,0.00016908,-0.00012392,0.00015472,0
 .00017565,0.00004959,0.00021436,-0.00014832,-0.00002130,-0.00011020,0.
 00013303,-0.00003638,0.00027019,-0.00058825,0.11602589,0.24032801,0.00
 037905,-0.00023997,0.00099269,-0.00827421,-0.01395933,0.00224289,0.026
 70211,0.04768968,-0.05873737,-0.00064479,-0.00035620,-0.00085360,-0.00
 001428,-0.00017552,0.00009131,0.00092292,0.00095391,-0.00002653,0.0001
 6537,-0.00054832,-0.00013896,0.00022596,0.00020810,0.00013331,-0.00014
 642,-0.00011936,0.00007070,0.00005259,0.00043127,-0.00033361,-0.028531
 16,-0.05350324,0.05990130,0.00082907,-0.00019370,0.00043311,-0.0186244
 2,0.02295034,0.01147024,-0.12209358,0.11269545,0.04194775,-0.00191810,
 0.00293400,0.00103060,0.00269860,-0.00053824,-0.00088401,-0.00649179,0
 .00040045,-0.00299236,0.00088945,-0.00015094,-0.00104749,0.00009323,-0
 .00029198,0.00026737,0.00019790,-0.00013189,-0.00065838,0.00006318,-0.
 00014207,0.00002236,0.00989749,-0.01301202,-0.00561714,0.13651307,-0.0
 0046073,-0.00011683,-0.00032540,0.00044406,0.00066217,0.00103075,0.117
 49911,-0.21480813,-0.06416364,-0.00107358,-0.00012951,0.00007618,-0.00
 027313,-0.00028784,-0.00008690,-0.00178609,0.00061336,0.00005497,-0.00
 011060,0.00000711,0.00006760,-0.00009369,0.00016333,0.00003786,0.00000
 964,0.00045758,0.00005709,0.00013350,-0.00017433,0.00009459,0.01382777
 ,-0.01926241,-0.00769148,-0.12596551,0.23016340,0.00032453,0.00017281,
 -0.00000710,-0.00662175,0.01365644,0.00544896,0.04340991,-0.06448655,-
 0.07185773,0.00003997,-0.00002664,0.00024464,-0.00030809,0.00001638,-0
 .00074611,-0.00513555,-0.00024814,-0.00177421,0.00129282,-0.00017575,-
 0.00033299,0.00018376,-0.00004781,0.00022044,-0.00037165,-0.00011132,-
 0.00035567,-0.00009763,0.00002915,-0.00000653,-0.00518548,0.00664469,0
 .00141003,-0.04483584,0.07028161,0.07439663,-0.00575340,0.00027499,-0.
 00147685,0.00614207,0.00009274,-0.03171626,-0.05166249,-0.00168891,0.0
 3801660,0.00017318,0.00089062,-0.00102745,0.00000376,0.00004475,0.0001
 7257,0.00220905,-0.00097287,-0.00005402,-0.00298692,0.00165480,0.00191
 712,0.00000605,0.00007285,-0.00179242,0.00001380,-0.00009159,0.0002554
 7,-0.00004754,0.00013711,0.00020371,-0.00233960,0.00031983,0.01523493,
 -0.00220362,-0.00257274,0.01686435,0.05642254,-0.00004125,0.00061172,0
 .00000378,-0.00077973,-0.00250393,-0.00112523,-0.00099167,-0.04632413,
 0.01127563,-0.00002929,0.00037505,-0.00090364,0.00011994,-0.00024675,0
 .00048851,0.00015665,-0.00019561,0.00052692,0.00103460,-0.00057023,-0.
 00016724,0.00006358,0.00055497,-0.00009089,-0.00004360,0.00021058,0.00
 028072,0.00005152,0.00016625,-0.00043807,-0.00315104,-0.00100056,0.027
 58066,0.00168250,0.00263333,-0.02549519,0.00252668,0.04640810,-0.00314
 263,0.00028349,0.00010898,0.00030858,0.00042383,-0.01538886,0.03343301
 ,0.01210220,-0.31423435,0.00004945,0.00108201,-0.00066772,0.00026407,-
 0.00058742,0.00010300,0.00083862,-0.00066285,-0.00170982,0.00264741,-0
 .00118673,0.00052319,0.00016647,0.00000451,-0.00076512,0.00012138,0.00
 004566,0.00027910,0.00011388,0.00001855,0.00025856,0.00112677,0.000258
 98,-0.00551905,0.00089992,0.00070781,-0.00680510,-0.03727102,-0.012171
 95,0.34212811,-0.00027332,0.00038236,-0.00084615,-0.00754150,-0.003519
 59,-0.00139968,-0.00021757,-0.00128367,0.00089461,-0.19285300,0.028814
 11,-0.10060991,-0.03119608,0.02253239,0.00012815,0.00283764,-0.0014147
 2,0.00010061,0.00028429,-0.00017525,-0.00057127,0.00048290,-0.00046810
 ,0.00064713,-0.00010823,0.00032981,-0.00010227,0.00033483,0.00007171,0
 .00034559,-0.00055958,-0.00022048,-0.00017109,0.00015690,0.00029308,-0
 .00007679,0.00006508,0.00006295,0.00007106,0.22539398,0.00002837,0.000
 56719,-0.00084774,-0.01069891,-0.01153195,-0.00070457,-0.00006193,-0.0
 0099814,0.00013113,0.01816630,-0.03602285,0.01116539,0.04024443,-0.008
 57944,0.00269076,-0.00001494,0.00080222,0.00050434,0.00026637,0.000001
 85,-0.00080774,-0.00000082,-0.00015673,0.00022626,0.00003535,0.0002674
 2,0.00002946,0.00007113,0.00024919,-0.00010204,-0.00063647,-0.00021857
 ,-0.00010909,-0.00038375,-0.00020171,-0.00001319,-0.00009177,0.0000142
 9,-0.00000706,-0.04755104,0.04696505,0.00051774,0.00066761,0.00040994,
 0.00140873,0.00451981,-0.00110033,-0.00008278,-0.00002884,-0.00036432,
 -0.09064836,0.00435482,-0.12621897,0.00955503,0.00108512,0.02360226,0.
 00071849,0.00051482,-0.00045131,-0.00002194,-0.00069690,0.00038837,0.0
 0013707,0.00022076,0.00018720,0.00008921,-0.00025065,-0.00000199,0.000
 02497,-0.00025070,-0.00004533,0.00012120,-0.00000811,0.00038311,0.0002
 7469,0.00003840,-0.00003858,0.00020453,0.00018371,0.00037713,0.1034669
 2,-0.01002978,0.11529538,-0.00060873,-0.00039986,-0.00051920,-0.002344
 24,-0.00448972,0.00366725,0.00008909,-0.00092280,0.00123621,-0.0610569
 2,0.00959972,-0.01118925,0.00549657,0.01143992,0.03080987,0.00106675,-
 0.00110841,-0.00005326,-0.00000823,0.00030415,-0.00019140,0.00025433,-
 0.00016311,0.00027921,-0.00012125,0.00013953,0.00019767,0.00019146,-0.
 00009892,0.00050722,-0.00026005,0.00029286,-0.00027546,-0.00002208,0.0
 0027651,0.00012568,-0.00016315,-0.00051638,-0.00023116,0.00342001,0.00
 068972,-0.02572655,0.05422096,-0.00018364,-0.00095584,-0.00029579,-0.0
 0548677,-0.00910434,0.00888430,0.00062361,-0.00004985,0.00075160,-0.00
 133084,-0.03672237,-0.02644064,0.01870660,-0.00930346,-0.03554192,0.00
 139101,-0.00002133,0.00035654,0.00012494,0.00003122,-0.00064732,0.0000
 2592,0.00006217,0.00011649,-0.00015741,-0.00022517,0.00036485,-0.00021
 514,-0.00027040,0.00064391,-0.00009973,0.00027678,-0.00005363,-0.00001
 242,0.00017576,-0.00005864,-0.00041880,-0.00023256,-0.00011079,0.00226
 631,0.00891899,-0.00018079,-0.01536467,0.04770576,0.00026666,0.0007861
 2,0.00006653,0.00121608,0.00194570,-0.00524747,-0.00043790,-0.00050983
 ,-0.00020407,-0.02019037,-0.03395094,-0.26199088,0.02009275,-0.0188380
 3,-0.01120731,-0.00076034,0.00213017,-0.00103074,-0.00034051,-0.002497
 99,0.00146613,0.00014089,-0.00012862,0.00017229,-0.00020924,-0.0003112
 2,0.00018796,0.00019987,0.00017345,-0.00019073,0.00004573,0.00007458,0
 .00034907,-0.00009981,-0.00011795,-0.00003737,0.00041894,0.00028722,0.
 00064541,-0.00170941,-0.00201616,-0.01229686,0.00141534,0.05243444,0.2
 8928990,0.00092802,-0.00056839,-0.00012154,-0.00317041,0.00175978,-0.0
 0055011,-0.00004390,0.00022022,-0.00027759,0.00030847,0.00076968,0.000
 24467,0.00032545,-0.00061721,-0.00028587,0.00782398,-0.00242624,-0.010
 84240,-0.50897774,0.03129893,0.07437778,-0.00000498,0.00004134,0.00019
 378,0.00006964,-0.00001561,-0.00028676,0.00003684,0.00001046,-0.000103
 25,0.00008289,0.00000402,-0.00000837,0.00001471,-0.00014762,0.00039178
 ,0.00012119,-0.00014545,0.00060419,-0.00022634,-0.00006204,-0.00003895
 ,-0.00015451,0.00013103,-0.00004868,0.50286669,0.00025241,-0.00038744,
 -0.00013567,0.00210335,-0.00098958,-0.00270919,0.00018552,-0.00047270,
 -0.00012225,0.00049635,0.00032281,-0.00103943,-0.00049291,0.00017768,0
 .00055591,0.00322820,-0.00062415,0.00198895,0.02446417,-0.00124941,-0.
 00872064,-0.00002252,0.00010434,-0.00001089,0.00006557,0.00009774,-0.0
 0014594,-0.00008657,-0.00004811,0.00011507,-0.00012436,-0.00006173,-0.
 00010749,0.00015978,0.00010471,-0.00013783,-0.00017769,0.00009948,-0.0
 0020024,-0.00011986,-0.00007681,-0.00013927,0.00032147,-0.00028538,0.0
 0053905,-0.03025289,0.00328854,0.00154939,-0.00211419,-0.00026972,-0.0
 0044947,0.00178854,-0.00976539,-0.00132052,0.00126417,-0.00062641,0.00
 024491,0.00026951,0.00031109,-0.00004779,0.00010744,-0.00002873,0.0490
 3104,-0.00922131,-0.02253751,0.01482437,-0.00187359,-0.04209631,-0.000
 10353,-0.00004533,-0.00003705,-0.00017768,0.00017936,-0.00071193,-0.00
 003015,0.00007543,0.00008246,0.00010898,-0.00007088,0.00003472,-0.0002
 1100,-0.00006148,0.00024070,0.00004980,-0.00023495,0.00066655,-0.00016
 748,-0.00010997,-0.00012570,-0.00005215,-0.00022260,0.00002813,-0.0632
 4870,0.01026986,0.07483511\\-0.00000294,0.00001129,0.00000242,-0.00001
 141,-0.00002957,0.00000897,-0.00000006,0.00001963,-0.00000501,-0.00001
 250,0.00001503,0.00000778,0.00001194,-0.00001729,-0.00000902,0.0000010
 9,0.00002712,-0.00001189,0.00000789,-0.00000891,0.00001479,0.00000056,
 0.00000090,0.00000237,-0.00000055,-0.00000305,-0.00000106,-0.00000261,
 0.00000244,-0.00000193,0.00000060,-0.00000068,-0.00000032,0.00000016,0
 .00000038,-0.00000213,-0.00000032,-0.00000229,-0.00000012,0.00000292,-
 0.00000894,0.00000288,0.00000140,-0.00000197,-0.00000199,0.00000383,-0
 .00000408,-0.00000575\\\@


 IT IS THE BEHAVIOR AND DISTRIBUTION OF THE ELECTRONS 
 AROUND THE NUCLEUS THAT GIVES THE FUNDAMENTAL 
 CHARACTER OF AN ATOM:  IT MUST BE THE SAME FOR MOLECULES.

                               -- C. A. COULSON, 1951
 Job cpu time:  0 days  1 hours  8 minutes 15.9 seconds.
 File lengths (MBytes):  RWF=    125 Int=      0 D2E=      0 Chk=      8 Scr=      1
 Normal termination of Gaussian 03 at Wed Jun 26 11:49:18 2019.
