 Entering Gaussian System, Link 0=g03
 Input=p5freq.gjf
 Output=p5freq.log
 Initial command:
 /opt/g03/l1.exe /scratch/nyee/Gau-6469.inp -scrdir=/scratch/nyee/
 Entering Link 1 = /opt/g03/l1.exe PID=      6471.
  
 Copyright (c) 1988,1990,1992,1993,1995,1998,2003,2004, Gaussian, Inc.
                  All Rights Reserved.
  
 This is the Gaussian(R) 03 program.  It is based on the
 the Gaussian(R) 98 system (copyright 1998, Gaussian, Inc.),
 the Gaussian(R) 94 system (copyright 1995, Gaussian, Inc.),
 the Gaussian 92(TM) system (copyright 1992, Gaussian, Inc.),
 the Gaussian 90(TM) system (copyright 1990, Gaussian, Inc.),
 the Gaussian 88(TM) system (copyright 1988, Gaussian, Inc.),
 the Gaussian 86(TM) system (copyright 1986, Carnegie Mellon
 University), and the Gaussian 82(TM) system (copyright 1983,
 Carnegie Mellon University). Gaussian is a federally registered
 trademark of Gaussian, Inc.
  
 This software contains proprietary and confidential information,
 including trade secrets, belonging to Gaussian, Inc.
  
 This software is provided under written license and may be
 used, copied, transmitted, or stored only in accord with that
 written license.
  
 The following legend is applicable only to US Government
 contracts under FAR:
  
                    RESTRICTED RIGHTS LEGEND
  
 Use, reproduction and disclosure by the US Government is
 subject to restrictions as set forth in subparagraphs (a)
 and (c) of the Commercial Computer Software - Restricted
 Rights clause in FAR 52.227-19.
  
 Gaussian, Inc.
 340 Quinnipiac St., Bldg. 40, Wallingford CT 06492
  
  
 ---------------------------------------------------------------
 Warning -- This program may not be used in any manner that
 competes with the business of Gaussian, Inc. or will provide
 assistance to any competitor of Gaussian, Inc.  The licensee
 of this program is prohibited from giving any competitor of
 Gaussian, Inc. access to this program.  By using this program,
 the user acknowledges that Gaussian, Inc. is engaged in the
 business of creating and licensing software in the field of
 computational chemistry and represents and warrants to the
 licensee that it is not a competitor of Gaussian, Inc. and that
 it will not use this program in any manner prohibited above.
 ---------------------------------------------------------------
  

 Cite this work as:
 Gaussian 03, Revision D.01,
 M. J. Frisch, G. W. Trucks, H. B. Schlegel, G. E. Scuseria, 
 M. A. Robb, J. R. Cheeseman, J. A. Montgomery, Jr., T. Vreven, 
 K. N. Kudin, J. C. Burant, J. M. Millam, S. S. Iyengar, J. Tomasi, 
 V. Barone, B. Mennucci, M. Cossi, G. Scalmani, N. Rega, 
 G. A. Petersson, H. Nakatsuji, M. Hada, M. Ehara, K. Toyota, 
 R. Fukuda, J. Hasegawa, M. Ishida, T. Nakajima, Y. Honda, O. Kitao, 
 H. Nakai, M. Klene, X. Li, J. E. Knox, H. P. Hratchian, J. B. Cross, 
 V. Bakken, C. Adamo, J. Jaramillo, R. Gomperts, R. E. Stratmann, 
 O. Yazyev, A. J. Austin, R. Cammi, C. Pomelli, J. W. Ochterski, 
 P. Y. Ayala, K. Morokuma, G. A. Voth, P. Salvador, J. J. Dannenberg, 
 V. G. Zakrzewski, S. Dapprich, A. D. Daniels, M. C. Strain, 
 O. Farkas, D. K. Malick, A. D. Rabuck, K. Raghavachari, 
 J. B. Foresman, J. V. Ortiz, Q. Cui, A. G. Baboul, S. Clifford, 
 J. Cioslowski, B. B. Stefanov, G. Liu, A. Liashenko, P. Piskorz, 
 I. Komaromi, R. L. Martin, D. J. Fox, T. Keith, M. A. Al-Laham, 
 C. Y. Peng, A. Nanayakkara, M. Challacombe, P. M. W. Gill, 
 B. Johnson, W. Chen, M. W. Wong, C. Gonzalez, and J. A. Pople, 
 Gaussian, Inc., Wallingford CT, 2004.
 
 ******************************************
 Gaussian 03:  AM64L-G03RevD.01 13-Oct-2005
                10-Jun-2013 
 ******************************************
 %chk=p5freq.chk
 %mem=1000mb
 %nproc=8
 Will use up to    8 processors via shared memory.
 -------------------------------------
 # freq nosymm b3lyp/cbsb7 iop(7/33=1)
 -------------------------------------
 1/10=4,30=1,38=1/1,3;
 2/15=1,17=6,18=5,40=1/2;
 3/5=4,6=6,7=700,11=2,16=1,25=1,30=1,74=-5/1,2,3;
 4//1;
 5/5=2,38=5/2;
 8/6=4,10=90,11=11/1;
 11/6=1,8=1,9=11,15=111,16=1,31=1/1,2,10;
 10/6=1,31=1/2;
 6/7=2,8=2,9=2,10=2,18=1,28=1/1;
 7/8=1,10=1,25=1,30=1,33=1/1,2,3,16;
 1/10=4,30=1/3;
 99//99;
 -------------------
 Title Card Required
 -------------------
 Symbolic Z-matrix:
 Charge =  0 Multiplicity = 2
 C                    -3.76815   2.02132  -0.33128 
 H                    -3.06318   1.40438  -0.89682 
 H                    -4.24418   2.72197  -1.02586 
 H                    -4.56918   1.34804   0.0205 
 C                    -3.10444   2.73632   0.80032 
 C                    -3.82741   3.8571    1.47609 
 H                    -4.69521   3.48721   2.04928 
 H                    -3.1742    4.3805    2.17628 
 H                    -4.22142   4.5801    0.75347 
 C                    -1.97392   2.07168   1.52311 
 H                    -2.34132   1.47655   2.3739 
 H                    -1.45932   1.37156   0.84877 
 O                    -1.04743   2.9903    2.11147 
 H                    -0.73416   3.56292   1.40283 
 

 GradGradGradGradGradGradGradGradGradGradGradGradGradGradGradGradGradGrad
 Berny optimization.
 Initialization pass.
 Trust Radius=3.00D-01 FncErr=1.00D-07 GrdErr=1.00D-07
 Number of steps in this run=   2 maximum allowed number of steps=   2.
 GradGradGradGradGradGradGradGradGradGradGradGradGradGradGradGradGradGrad

                          Input orientation:                          
 ---------------------------------------------------------------------
 Center     Atomic     Atomic              Coordinates (Angstroms)
 Number     Number      Type              X           Y           Z
 ---------------------------------------------------------------------
    1          6             0       -3.768148    2.021324   -0.331278
    2          1             0       -3.063176    1.404375   -0.896823
    3          1             0       -4.244179    2.721973   -1.025858
    4          1             0       -4.569179    1.348038    0.020497
    5          6             0       -3.104439    2.736318    0.800321
    6          6             0       -3.827412    3.857101    1.476091
    7          1             0       -4.695212    3.487205    2.049280
    8          1             0       -3.174198    4.380496    2.176278
    9          1             0       -4.221424    4.580101    0.753467
   10          6             0       -1.973920    2.071682    1.523105
   11          1             0       -2.341324    1.476549    2.373896
   12          1             0       -1.459322    1.371556    0.848765
   13          8             0       -1.047426    2.990297    2.111473
   14          1             0       -0.734161    3.562921    1.402825
 ---------------------------------------------------------------------
                    Distance matrix (angstroms):
                    1          2          3          4          5
     1  C    0.000000
     2  H    1.094282   0.000000
     3  H    1.095425   1.774115   0.000000
     4  H    1.103952   1.764283   1.757322   0.000000
     5  C    1.494069   2.157793   2.152706   2.163541   0.000000
     6  C    2.576853   3.497234   2.778841   2.994056   1.495162
     7  H    2.945388   3.959955   3.200857   2.950912   2.157380
     8  H    3.493752   4.279436   3.761547   3.973558   2.145098
     9  H    2.815932   3.761679   2.572772   3.332328   2.156244
    10  C    2.580800   2.736390   3.474790   3.084941   1.497408
    11  H    3.106537   3.350206   4.090265   3.243199   2.155342
    12  H    2.673084   2.370760   3.618462   3.218352   2.138067
    13  O    3.782627   3.953257   4.487101   4.412702   2.452535
    14  H    3.819517   3.920716   4.350393   4.639386   2.581570
                    6          7          8          9         10
     6  C    0.000000
     7  H    1.103832   0.000000
     8  H    1.091280   1.768497   0.000000
     9  H    1.095518   1.760122   1.777896   0.000000
    10  C    2.573978   3.112233   2.682895   3.454820   0.000000
    11  H    2.946445   3.112700   3.027481   3.973991   1.101369
    12  H    3.489889   4.048233   3.709017   4.234743   1.099874
    13  O    2.980500   3.682001   2.541655   3.800779   1.431231
    14  H    3.108072   4.014170   2.687087   3.690166   1.943004
                   11         12         13         14
    11  H    0.000000
    12  H    1.764929   0.000000
    13  O    2.008599   2.093899   0.000000
    14  H    2.806938   2.373799   0.963439   0.000000
 Symmetry turned off by external request.
 Stoichiometry    C4H9O(2)
 Framework group  C1[X(C4H9O)]
 Deg. of freedom    36
 Full point group                 C1
 Rotational constants (GHZ):      7.5329268      3.5455683      2.6334346
 Standard basis: CBSB7 (5D, 7F)
 Integral buffers will be    131072 words long.
 Raffenetti 2 integral format.
 Two-electron integral symmetry is turned off.
   144 basis functions,   232 primitive gaussians,   149 cartesian basis functions
    21 alpha electrons       20 beta electrons
       nuclear repulsion energy       182.0416491223 Hartrees.
 NAtoms=   14 NActive=   14 NUniq=   14 SFac= 7.50D-01 NAtFMM=   80 NAOKFM=F Big=F
 One-electron integrals computed using PRISM.
 NBasis=   144 RedAO= T  NBF=   144
 NBsUse=   144 1.00D-06 NBFU=   144
 Harris functional with IExCor=  402 diagonalized for initial guess.
 ExpMin= 1.03D-01 ExpMax= 8.59D+03 ExpMxC= 1.30D+03 IAcc=1 IRadAn=         1 AccDes= 1.00D-06
 HarFok:  IExCor= 402 AccDes= 1.00D-06 IRadAn=         1 IDoV=1
 ScaDFX=  1.000000  1.000000  1.000000  1.000000
 <S**2> of initial guess= 0.7500
 Requested convergence on RMS density matrix=1.00D-08 within 128 cycles.
 Requested convergence on MAX density matrix=1.00D-06.
 Requested convergence on             energy=1.00D-06.
 No special actions if energy rises.
 Keep R1 and R2 integrals in memory in canonical form, NReq=   127613844.
 PrsmSu:  requested number of processors reduced to:   6 ShMem   1 Linda.
 Integral accuracy reduced to 1.0D-05 until final iterations.
 CalDSu:  requested number of processors reduced to:   5 ShMem   1 Linda.
 CalDSu:  requested number of processors reduced to:   5 ShMem   1 Linda.
 CalDSu:  requested number of processors reduced to:   5 ShMem   1 Linda.
 CalDSu:  requested number of processors reduced to:   5 ShMem   1 Linda.
 CalDSu:  requested number of processors reduced to:   5 ShMem   1 Linda.
 CalDSu:  requested number of processors reduced to:   5 ShMem   1 Linda.
 CalDSu:  requested number of processors reduced to:   5 ShMem   1 Linda.
 Initial convergence to 1.0D-05 achieved.  Increase integral accuracy.
 CalDSu:  requested number of processors reduced to:   5 ShMem   1 Linda.
 CalDSu:  requested number of processors reduced to:   5 ShMem   1 Linda.
 CalDSu:  requested number of processors reduced to:   5 ShMem   1 Linda.
 CalDSu:  requested number of processors reduced to:   5 ShMem   1 Linda.
 CalDSu:  requested number of processors reduced to:   5 ShMem   1 Linda.
 CalDSu:  requested number of processors reduced to:   5 ShMem   1 Linda.
 CalDSu:  requested number of processors reduced to:   5 ShMem   1 Linda.
 SCF Done:  E(UB+HF-LYP) =  -233.077365465     A.U. after   14 cycles
             Convg  =    0.8806D-08             -V/T =  2.0041
             S**2   =   0.7539
 Annihilation of the first spin contaminant:
 S**2 before annihilation     0.7539,   after     0.7500
 Range of M.O.s used for correlation:     1   144
 NBasis=   144 NAE=    21 NBE=    20 NFC=     0 NFV=     0
 NROrb=    144 NOA=    21 NOB=    20 NVA=   123 NVB=   124
 Symmetrizing basis deriv contribution to polar:
 IMax=3 JMax=2 DiffMx= 0.00D+00
 G2DrvN: will do   15 centers at a time, making    1 passes doing MaxLOS=2.
 FoFDir/FoFCou used for L=0 through L=2.
 DoAtom=TTTTTTTTTTTTTT
          Differentiating once with respect to electric field.
                with respect to dipole field.
          Differentiating once with respect to nuclear coordinates.
          Store integrals in memory, NReq=   125716025.
 PrsmSu:  requested number of processors reduced to:   7 ShMem   1 Linda.
 CalDSu:  requested number of processors reduced to:   2 ShMem   1 Linda.
          There are  45 degrees of freedom in the 1st order CPHF.
    42 vectors were produced by pass  0.
 AX will form  42 AO Fock derivatives at one time.
 CalDSu:  requested number of processors reduced to:   2 ShMem   1 Linda.
    42 vectors were produced by pass  1.
 CalDSu:  requested number of processors reduced to:   2 ShMem   1 Linda.
    42 vectors were produced by pass  2.
 CalDSu:  requested number of processors reduced to:   2 ShMem   1 Linda.
    42 vectors were produced by pass  3.
 CalDSu:  requested number of processors reduced to:   2 ShMem   1 Linda.
    42 vectors were produced by pass  4.
 CalDSu:  requested number of processors reduced to:   2 ShMem   1 Linda.
    42 vectors were produced by pass  5.
 CalDSu:  requested number of processors reduced to:   2 ShMem   1 Linda.
    17 vectors were produced by pass  6.
 CalDSu:  requested number of processors reduced to:   3 ShMem   1 Linda.
     3 vectors were produced by pass  7.
 CalDSu:  requested number of processors reduced to:   3 ShMem   1 Linda.
     1 vectors were produced by pass  8.
 CalDSu:  requested number of processors reduced to:   4 ShMem   1 Linda.
 Inv2:  IOpt= 1 Iter= 1 AM= 3.22D-15 Conv= 1.00D-12.
 Inverted reduced A of dimension  273 with in-core refinement.
 CalDSu:  requested number of processors reduced to:   2 ShMem   1 Linda.
 Isotropic polarizability for W=    0.000000       51.56 Bohr**3.
 End of Minotr Frequency-dependent properties file   721 does not exist.

 **********************************************************************

            Population analysis using the SCF density.

 **********************************************************************

 Alpha  occ. eigenvalues --  -19.11018 -10.21457 -10.18085 -10.16838 -10.16127
 Alpha  occ. eigenvalues --   -1.01651  -0.80383  -0.69775  -0.68358  -0.55859
 Alpha  occ. eigenvalues --   -0.49569  -0.45839  -0.45477  -0.41547  -0.41320
 Alpha  occ. eigenvalues --   -0.39208  -0.37454  -0.36032  -0.32755  -0.27647
 Alpha  occ. eigenvalues --   -0.18645
 Alpha virt. eigenvalues --    0.03547   0.05664   0.07925   0.09151   0.10416
 Alpha virt. eigenvalues --    0.10793   0.12427   0.13630   0.15828   0.18341
 Alpha virt. eigenvalues --    0.18841   0.25264   0.26250   0.28316   0.31410
 Alpha virt. eigenvalues --    0.33364   0.35904   0.39257   0.40791   0.42547
 Alpha virt. eigenvalues --    0.43691   0.48041   0.49664   0.50253   0.54627
 Alpha virt. eigenvalues --    0.56513   0.57818   0.57886   0.59174   0.59966
 Alpha virt. eigenvalues --    0.62187   0.62732   0.62922   0.65655   0.67927
 Alpha virt. eigenvalues --    0.77955   0.84202   0.86908   0.90768   0.93747
 Alpha virt. eigenvalues --    0.98900   1.01203   1.10095   1.17944   1.26346
 Alpha virt. eigenvalues --    1.29199   1.32132   1.36377   1.37057   1.41174
 Alpha virt. eigenvalues --    1.44783   1.45564   1.46408   1.47839   1.48588
 Alpha virt. eigenvalues --    1.51133   1.53509   1.55822   1.56919   1.58430
 Alpha virt. eigenvalues --    1.61304   1.63181   1.66908   1.69200   1.69812
 Alpha virt. eigenvalues --    1.73298   1.79504   1.84271   1.89326   1.91554
 Alpha virt. eigenvalues --    1.93878   1.99366   2.02276   2.04303   2.08059
 Alpha virt. eigenvalues --    2.13816   2.17338   2.24487   2.26410   2.30662
 Alpha virt. eigenvalues --    2.32784   2.36473   2.38446   2.42323   2.45902
 Alpha virt. eigenvalues --    2.46906   2.48305   2.49579   2.50442   2.52007
 Alpha virt. eigenvalues --    2.54197   2.57168   2.61978   2.67883   2.75232
 Alpha virt. eigenvalues --    2.76246   2.84948   2.86039   2.90826   2.92428
 Alpha virt. eigenvalues --    3.10068   3.12418   3.13948   3.20765   3.33651
 Alpha virt. eigenvalues --    3.54973   3.66755   3.73213   3.80046   3.80417
 Alpha virt. eigenvalues --    3.82584   3.90358   3.92606   4.25862   4.27285
 Alpha virt. eigenvalues --    4.89817   5.25736   5.62000  23.71060  23.80593
 Alpha virt. eigenvalues --   23.91417  23.94661  49.88930
  Beta  occ. eigenvalues --  -19.10947 -10.21540 -10.16923 -10.16721 -10.16198
  Beta  occ. eigenvalues --   -1.01449  -0.78681  -0.69539  -0.68101  -0.54392
  Beta  occ. eigenvalues --   -0.49151  -0.45382  -0.43874  -0.41152  -0.40690
  Beta  occ. eigenvalues --   -0.38610  -0.37228  -0.35607  -0.32298  -0.27375
  Beta virt. eigenvalues --   -0.05245   0.03779   0.05903   0.07978   0.09356
  Beta virt. eigenvalues --    0.10611   0.11165   0.12626   0.13921   0.15976
  Beta virt. eigenvalues --    0.18667   0.20111   0.25801   0.26719   0.28711
  Beta virt. eigenvalues --    0.31836   0.34170   0.36362   0.39432   0.41150
  Beta virt. eigenvalues --    0.42999   0.45145   0.48764   0.50207   0.53111
  Beta virt. eigenvalues --    0.56153   0.56883   0.58114   0.58562   0.59323
  Beta virt. eigenvalues --    0.60198   0.62287   0.62967   0.63285   0.66237
  Beta virt. eigenvalues --    0.68583   0.79545   0.84570   0.87209   0.90971
  Beta virt. eigenvalues --    0.94071   0.99532   1.01767   1.10814   1.17998
  Beta virt. eigenvalues --    1.26636   1.29843   1.32514   1.37912   1.38065
  Beta virt. eigenvalues --    1.41604   1.45334   1.45983   1.47064   1.48480
  Beta virt. eigenvalues --    1.49030   1.51532   1.53879   1.56443   1.57670
  Beta virt. eigenvalues --    1.59295   1.62418   1.63526   1.67233   1.69756
  Beta virt. eigenvalues --    1.70624   1.73633   1.80483   1.86421   1.90162
  Beta virt. eigenvalues --    1.92821   1.94664   1.99745   2.02676   2.04734
  Beta virt. eigenvalues --    2.08459   2.14707   2.18044   2.25594   2.27390
  Beta virt. eigenvalues --    2.30987   2.33177   2.36945   2.38891   2.42838
  Beta virt. eigenvalues --    2.46483   2.47384   2.48800   2.49920   2.50687
  Beta virt. eigenvalues --    2.52592   2.54699   2.57575   2.62403   2.68571
  Beta virt. eigenvalues --    2.75855   2.76657   2.85648   2.87610   2.91751
  Beta virt. eigenvalues --    2.95664   3.10529   3.12809   3.14477   3.21166
  Beta virt. eigenvalues --    3.33980   3.55293   3.66961   3.73539   3.80449
  Beta virt. eigenvalues --    3.80585   3.82718   3.90617   3.92774   4.27137
  Beta virt. eigenvalues --    4.28609   4.89886   5.25918   5.62093  23.72118
  Beta virt. eigenvalues --   23.80992  23.91344  23.94587  49.89004
          Condensed to atoms (all electrons):
              1          2          3          4          5          6
     1  C    4.873823   0.408768   0.399722   0.384351   0.307566  -0.056149
     2  H    0.408768   0.581073  -0.025716  -0.033949  -0.045246   0.007873
     3  H    0.399722  -0.025716   0.584871  -0.038795  -0.037594  -0.004279
     4  H    0.384351  -0.033949  -0.038795   0.619667  -0.042614  -0.002654
     5  C    0.307566  -0.045246  -0.037594  -0.042614   5.598965   0.324794
     6  C   -0.056149   0.007873  -0.004279  -0.002654   0.324794   4.870646
     7  H   -0.002638  -0.000485  -0.001887   0.006436  -0.047814   0.388146
     8  H    0.010032  -0.000161   0.000059  -0.000637  -0.045762   0.401638
     9  H   -0.006857   0.000035   0.004925  -0.001256  -0.039599   0.404860
    10  C   -0.052776  -0.005806   0.006988  -0.004001   0.374163  -0.058404
    11  H    0.002392  -0.000704  -0.000935   0.003742  -0.045884  -0.007437
    12  H   -0.002708   0.007900   0.000396  -0.001580  -0.057380   0.009802
    13  O    0.005283   0.000164  -0.000148  -0.000230  -0.044778  -0.011639
    14  H   -0.000214  -0.000271  -0.000219   0.000249   0.013331  -0.002938
              7          8          9         10         11         12
     1  C   -0.002638   0.010032  -0.006857  -0.052776   0.002392  -0.002708
     2  H   -0.000485  -0.000161   0.000035  -0.005806  -0.000704   0.007900
     3  H   -0.001887   0.000059   0.004925   0.006988  -0.000935   0.000396
     4  H    0.006436  -0.000637  -0.001256  -0.004001   0.003742  -0.001580
     5  C   -0.047814  -0.045762  -0.039599   0.374163  -0.045884  -0.057380
     6  C    0.388146   0.401638   0.404860  -0.058404  -0.007437   0.009802
     7  H    0.617127  -0.030606  -0.037575  -0.002034   0.005047  -0.000744
     8  H   -0.030606   0.563553  -0.026805  -0.014901  -0.002614   0.002180
     9  H   -0.037575  -0.026805   0.586350   0.007584  -0.000566  -0.000407
    10  C   -0.002034  -0.014901   0.007584   4.691249   0.376102   0.401648
    11  H    0.005047  -0.002614  -0.000566   0.376102   0.636301  -0.048930
    12  H   -0.000744   0.002180  -0.000407   0.401648  -0.048930   0.633432
    13  O   -0.000661   0.029595  -0.000323   0.288423  -0.036970  -0.027365
    14  H    0.000655  -0.002710  -0.000478  -0.055569   0.013927  -0.010118
             13         14
     1  C    0.005283  -0.000214
     2  H    0.000164  -0.000271
     3  H   -0.000148  -0.000219
     4  H   -0.000230   0.000249
     5  C   -0.044778   0.013331
     6  C   -0.011639  -0.002938
     7  H   -0.000661   0.000655
     8  H    0.029595  -0.002710
     9  H   -0.000323  -0.000478
    10  C    0.288423  -0.055569
    11  H   -0.036970   0.013927
    12  H   -0.027365  -0.010118
    13  O    7.888220   0.302332
    14  H    0.302332   0.515551
 Mulliken atomic charges:
              1
     1  C   -0.270593
     2  H    0.106525
     3  H    0.112614
     4  H    0.111271
     5  C   -0.212149
     6  C   -0.264260
     7  H    0.107033
     8  H    0.117139
     9  H    0.110111
    10  C    0.047336
    11  H    0.106529
    12  H    0.093874
    13  O   -0.391903
    14  H    0.226472
 Sum of Mulliken charges=   0.00000
 Atomic charges with hydrogens summed into heavy atoms:
              1
     1  C    0.059817
     2  H    0.000000
     3  H    0.000000
     4  H    0.000000
     5  C   -0.212149
     6  C    0.070023
     7  H    0.000000
     8  H    0.000000
     9  H    0.000000
    10  C    0.247739
    11  H    0.000000
    12  H    0.000000
    13  O   -0.165430
    14  H    0.000000
 Sum of Mulliken charges=   0.00000
          Atomic-Atomic Spin Densities.
              1          2          3          4          5          6
     1  C   -0.066204   0.006794   0.009864   0.001559  -0.033892   0.003884
     2  H    0.006794   0.012689   0.004966  -0.010752  -0.008899   0.000286
     3  H    0.009864   0.004966   0.034970  -0.018645  -0.016767   0.002353
     4  H    0.001559  -0.010752  -0.018645   0.117158  -0.028377  -0.001394
     5  C   -0.033892  -0.008899  -0.016767  -0.028377   1.186269  -0.040273
     6  C    0.003884   0.000286   0.002353  -0.001394  -0.040273  -0.057126
     7  H   -0.001545  -0.000511  -0.003005   0.008181  -0.030974   0.004179
     8  H    0.000202   0.000083   0.000375  -0.000499  -0.006538   0.006724
     9  H    0.001781   0.000327   0.003118  -0.002215  -0.014602   0.010333
    10  C    0.005135   0.002766   0.001487  -0.004616  -0.032547   0.002944
    11  H   -0.001771  -0.001222  -0.000674   0.004993  -0.023349  -0.001139
    12  H    0.002411   0.001720   0.000601  -0.002168  -0.011659   0.000448
    13  O    0.000369   0.000159   0.000099  -0.000217  -0.019239   0.001908
    14  H   -0.000521  -0.000257  -0.000222   0.000265   0.016331  -0.001364
              7          8          9         10         11         12
     1  C   -0.001545   0.000202   0.001781   0.005135  -0.001771   0.002411
     2  H   -0.000511   0.000083   0.000327   0.002766  -0.001222   0.001720
     3  H   -0.003005   0.000375   0.003118   0.001487  -0.000674   0.000601
     4  H    0.008181  -0.000499  -0.002215  -0.004616   0.004993  -0.002168
     5  C   -0.030974  -0.006538  -0.014602  -0.032547  -0.023349  -0.011659
     6  C    0.004179   0.006724   0.010333   0.002944  -0.001139   0.000448
     7  H    0.110687  -0.010002  -0.016300  -0.003091   0.005891  -0.000576
     8  H   -0.010002   0.009739   0.004246   0.002442  -0.002012   0.000279
     9  H   -0.016300   0.004246   0.030422   0.001042  -0.000711   0.000189
    10  C   -0.003091   0.002442   0.001042  -0.047997  -0.003432   0.010036
    11  H    0.005891  -0.002012  -0.000711  -0.003432   0.095404  -0.012241
    12  H   -0.000576   0.000279   0.000189   0.010036  -0.012241   0.016901
    13  O   -0.000834   0.001157   0.000317   0.009871  -0.009133   0.004003
    14  H    0.000763  -0.001492  -0.000577  -0.002836   0.003925  -0.002703
             13         14
     1  C    0.000369  -0.000521
     2  H    0.000159  -0.000257
     3  H    0.000099  -0.000222
     4  H   -0.000217   0.000265
     5  C   -0.019239   0.016331
     6  C    0.001908  -0.001364
     7  H   -0.000834   0.000763
     8  H    0.001157  -0.001492
     9  H    0.000317  -0.000577
    10  C    0.009871  -0.002836
    11  H   -0.009133   0.003925
    12  H    0.004003  -0.002703
    13  O    0.035393  -0.008497
    14  H   -0.008497   0.008673
 Mulliken atomic spin densities:
              1
     1  C   -0.071933
     2  H    0.008148
     3  H    0.018517
     4  H    0.063274
     5  C    0.935483
     6  C   -0.068239
     7  H    0.062861
     8  H    0.004704
     9  H    0.017370
    10  C   -0.058796
    11  H    0.054529
    12  H    0.007239
    13  O    0.015353
    14  H    0.011488
 Sum of Mulliken spin densities=   1.00000
 APT atomic charges:
              1
     1  C    0.074439
     2  H   -0.019160
     3  H   -0.020538
     4  H   -0.045597
     5  C   -0.009992
     6  C    0.041437
     7  H   -0.039575
     8  H    0.017509
     9  H   -0.023298
    10  C    0.512568
    11  H   -0.060993
    12  H   -0.073340
    13  O   -0.593079
    14  H    0.239620
 Sum of APT charges=   0.00000
 APT Atomic charges with hydrogens summed into heavy atoms:
              1
     1  C   -0.010856
     2  H    0.000000
     3  H    0.000000
     4  H    0.000000
     5  C   -0.009992
     6  C   -0.003927
     7  H    0.000000
     8  H    0.000000
     9  H    0.000000
    10  C    0.378235
    11  H    0.000000
    12  H    0.000000
    13  O   -0.353459
    14  H    0.000000
 Sum of APT charges=   0.00000
 Electronic spatial extent (au):  <R**2>=  2904.4400
 Charge=     0.0000 electrons
 Dipole moment (field-independent basis, Debye):
    X=    -0.7056    Y=    -0.0838    Z=    -1.5146  Tot=     1.6730
 Quadrupole moment (field-independent basis, Debye-Ang):
   XX=   -29.5047   YY=   -31.9125   ZZ=   -38.3864
   XY=    -0.7907   XZ=     0.1542   YZ=    -4.9381
 Traceless Quadrupole moment (field-independent basis, Debye-Ang):
   XX=     3.7632   YY=     1.3553   ZZ=    -5.1185
   XY=    -0.7907   XZ=     0.1542   YZ=    -4.9381
 Octapole moment (field-independent basis, Debye-Ang**2):
  XXX=   267.5950  YYY=  -258.5919  ZZZ=  -120.3493  XYY=    92.8539
  XXY=   -82.7811  XXZ=   -31.8517  XZZ=    95.4513  YZZ=  -107.8676
  YYZ=   -49.0357  XYZ=     3.9357
 Hexadecapole moment (field-independent basis, Debye-Ang**3):
 XXXX= -1845.5724 YYYY= -1576.9327 ZZZZ=  -472.4504 XXXY=   750.6814
 XXXZ=   224.0524 YYYX=   778.6944 YYYZ=  -356.1103 ZZZX=   243.4475
 ZZZY=  -373.3817 XXYY=  -572.6511 XXZZ=  -380.8673 YYZZ=  -400.4305
 XXYZ=  -109.8161 YYXZ=    98.1050 ZZXY=   272.6578
 N-N= 1.820416491223D+02 E-N=-9.075524971142D+02  KE= 2.321293923434D+02
  Exact polarizability:  53.543  -1.534  51.107   3.946   3.608  50.023
 Approx polarizability:  69.662   0.133  67.686   2.944   1.915  67.014
                          Isotropic Fermi Contact Couplings
        Atom                 a.u.       MegaHertz       Gauss      10(-4) cm-1
     1  C(13)             -0.02714     -30.50850     -10.88619     -10.17654
     2  H(1)               0.00415      18.56118       6.62309       6.19134
     3  H(1)               0.00933      41.68266      14.87341      13.90384
     4  H(1)               0.02710     121.14878      43.22889      40.41088
     5  C(13)              0.09031     101.52572      36.22690      33.86533
     6  C(13)             -0.02180     -24.50406      -8.74366      -8.17367
     7  H(1)               0.02660     118.89808      42.42579      39.66013
     8  H(1)               0.00317      14.17874       5.05933       4.72952
     9  H(1)               0.00942      42.11308      15.02699      14.04741
    10  C(13)             -0.02977     -33.46877     -11.94249     -11.16398
    11  H(1)               0.02250     100.57863      35.88895      33.54942
    12  H(1)               0.00472      21.10917       7.53228       7.04126
    13  O(17)              0.02749     -16.66244      -5.94557      -5.55799
    14  H(1)              -0.00028      -1.25714      -0.44858      -0.41934
 --------------------------------------------------------
       Center         ----  Spin Dipole Couplings  ----
                      3XX-RR        3YY-RR        3ZZ-RR
 --------------------------------------------------------
     1   Atom       -0.003425     -0.000026      0.003452
     2   Atom       -0.008576      0.002755      0.005822
     3   Atom        0.000696     -0.008556      0.007860
     4   Atom        0.001599      0.000085     -0.001684
     5   Atom        0.006990     -0.005209     -0.001781
     6   Atom        0.000392      0.002303     -0.002695
     7   Atom        0.003262     -0.001717     -0.001545
     8   Atom       -0.008505      0.005139      0.003366
     9   Atom        0.000598      0.008095     -0.008692
    10   Atom        0.001981     -0.011904      0.009923
    11   Atom        0.000187     -0.001182      0.000995
    12   Atom        0.007380      0.002267     -0.009647
    13   Atom        0.023921     -0.046730      0.022809
    14   Atom        0.010545     -0.006351     -0.004193
 --------------------------------------------------------
                        XY            XZ            YZ
 --------------------------------------------------------
     1   Atom        0.011744      0.009891      0.009902
     2   Atom        0.001640      0.001132      0.011620
     3   Atom        0.001460      0.011401      0.001804
     4   Atom        0.008988      0.005285      0.005681
     5   Atom        0.549373     -0.551009     -0.545024
     6   Atom       -0.011507     -0.013718      0.009866
     7   Atom       -0.005565     -0.008722      0.005071
     8   Atom       -0.001474     -0.002270      0.012023
     9   Atom       -0.011782     -0.000783      0.001033
    10   Atom       -0.008991      0.022536     -0.005347
    11   Atom       -0.003414      0.006545     -0.009595
    12   Atom       -0.013007      0.000757     -0.002551
    13   Atom        0.022194      0.083573      0.015232
    14   Atom        0.008071      0.005878     -0.001422
 --------------------------------------------------------


 ---------------------------------------------------------------------------------
              Anisotropic Spin Dipole Couplings in Principal Axis System
 ---------------------------------------------------------------------------------

       Atom             a.u.   MegaHertz   Gauss  10(-4) cm-1        Axes

              Baa    -0.0137    -1.839    -0.656    -0.613  0.7921 -0.6004 -0.1102
     1 C(13)  Bbb    -0.0075    -1.001    -0.357    -0.334 -0.3079 -0.5488  0.7772
              Bcc     0.0212     2.840     1.013     0.947  0.5271  0.5817  0.6196
 
              Baa    -0.0089    -4.743    -1.692    -1.582  0.9459 -0.2862  0.1532
     2 H(1)   Bbb    -0.0073    -3.880    -1.384    -1.294  0.3151  0.6961 -0.6451
              Bcc     0.0162     8.622     3.077     2.876  0.0779  0.6584  0.7486
 
              Baa    -0.0088    -4.685    -1.672    -1.563 -0.1332  0.9910 -0.0162
     3 H(1)   Bbb    -0.0077    -4.088    -1.459    -1.364  0.7967  0.0973 -0.5965
              Bcc     0.0164     8.773     3.131     2.927  0.5895  0.0923  0.8025
 
              Baa    -0.0083    -4.423    -1.578    -1.475 -0.6074  0.7738 -0.1796
     4 H(1)   Bbb    -0.0055    -2.911    -1.039    -0.971 -0.4574 -0.1558  0.8755
              Bcc     0.0137     7.333     2.617     2.446  0.6495  0.6140  0.4486
 
              Baa    -0.5486   -73.610   -26.266   -24.554 -0.3892  0.8181  0.4233
     5 C(13)  Bbb    -0.5484   -73.593   -26.260   -24.548  0.7148 -0.0216  0.6990
              Bcc     1.0970   147.203    52.526    49.102  0.5810  0.5746 -0.5764
 
              Baa    -0.0150    -2.008    -0.717    -0.670  0.6801  0.0348  0.7323
     6 C(13)  Bbb    -0.0085    -1.144    -0.408    -0.382  0.4073  0.8126 -0.4169
              Bcc     0.0235     3.152     1.125     1.052  0.6096 -0.5818 -0.5385
 
              Baa    -0.0083    -4.436    -1.583    -1.480  0.5332 -0.1848  0.8256
     7 H(1)   Bbb    -0.0053    -2.813    -1.004    -0.938  0.4661  0.8785 -0.1044
              Bcc     0.0136     7.249     2.587     2.418  0.7060 -0.4405 -0.5546
 
              Baa    -0.0091    -4.860    -1.734    -1.621  0.8888 -0.2384  0.3915
     8 H(1)   Bbb    -0.0075    -3.988    -1.423    -1.330  0.4464  0.6442 -0.6211
              Bcc     0.0166     8.848     3.157     2.951 -0.1042  0.7267  0.6790
 
              Baa    -0.0088    -4.673    -1.668    -1.559  0.0547 -0.0229  0.9982
     9 H(1)   Bbb    -0.0080    -4.278    -1.526    -1.427  0.8059  0.5913 -0.0306
              Bcc     0.0168     8.951     3.194     2.986 -0.5895  0.8061  0.0508
 
              Baa    -0.0192    -2.576    -0.919    -0.859  0.7085  0.5451 -0.4483
    10 C(13)  Bbb    -0.0119    -1.600    -0.571    -0.534 -0.3003  0.8077  0.5075
              Bcc     0.0311     4.175     1.490     1.393  0.6386 -0.2249  0.7359
 
              Baa    -0.0102    -5.428    -1.937    -1.811 -0.2266  0.6692  0.7077
    11 H(1)   Bbb    -0.0033    -1.755    -0.626    -0.585  0.8486  0.4923 -0.1938
              Bcc     0.0135     7.183     2.563     2.396  0.4781 -0.5566  0.6794
 
              Baa    -0.0108    -5.744    -2.050    -1.916  0.2914  0.4554  0.8412
    12 H(1)   Bbb    -0.0075    -3.995    -1.426    -1.333  0.5716  0.6223 -0.5349
              Bcc     0.0183     9.739     3.475     3.249  0.7671 -0.6367  0.0790
 
              Baa    -0.0623     4.505     1.608     1.503  0.6908 -0.3901 -0.6088
    13 O(17)  Bbb    -0.0491     3.554     1.268     1.185  0.1692  0.9058 -0.3884
              Bcc     0.1114    -8.059    -2.876    -2.688  0.7030  0.1653  0.6917
 
              Baa    -0.0115    -6.146    -2.193    -2.050 -0.4113  0.7746  0.4804
    14 H(1)   Bbb    -0.0036    -1.896    -0.677    -0.633 -0.0398 -0.5418  0.8395
              Bcc     0.0151     8.042     2.870     2.683  0.9106  0.3262  0.2537
 

 ---------------------------------------------------------------------------------

 Use density number 0.
 Entering OneElI...
 Calculate overlap and kinetic energy integrals
    NBasis = 149  MinDer = 2  MaxDer = 2
 Requested accuracy = 0.1000D-12
 PrsmSu:  NPrtUS=   1 ThrOK=F
 PRISM was handed   130857982 working-precision words and  1891 shell-pairs
 Entering OneElI...
 Calculate potential energy integrals
    NBasis = 149  MinDer = 2  MaxDer = 2
 Requested accuracy = 0.1000D-12
 PrsmSu:  NPrtUS=   8 ThrOK=T
 PRISM was handed    16323941 working-precision words and  1821 shell-pairs
 PRISM was handed    16323941 working-precision words and  1821 shell-pairs
 PRISM was handed    16323941 working-precision words and  1821 shell-pairs
 PRISM was handed    16323941 working-precision words and  1821 shell-pairs
 PRISM was handed    16323941 working-precision words and  1821 shell-pairs
 PRISM was handed    16323941 working-precision words and  1821 shell-pairs
 PRISM was handed    16323941 working-precision words and  1821 shell-pairs
 PRISM was handed    16323941 working-precision words and  1821 shell-pairs
 Polarizability after L701:
                1             2             3
      1  0.535427D+02
      2 -0.153429D+01  0.511075D+02
      3  0.394627D+01  0.360770D+01  0.500232D+02
 Dipole Derivatives after L701:
               1            2            3            4            5
      1 0.764748D-01 0.532305D-01-0.262039D-01-0.362133D-01 0.651250D-01
      2 0.279104D-01 0.761098D-01-0.454197D-01 0.950085D-01-0.154528D-01
      3-0.867358D-01-0.756578D-01 0.707318D-01 0.951695D-01-0.904531D-01
               6            7            8            9           10
      1 0.455024D-01 0.177106D-01 0.665294D-01-0.816851D-01-0.858071D-01
      2-0.770113D-01 0.466126D-01-0.359998D-01 0.560163D-01-0.131596D+00
      3-0.581387D-02-0.792471D-01 0.110696D+00-0.433254D-01 0.396739D-02
              11           12           13           14           15
      1-0.128125D+00 0.674232D-01-0.847880D-01-0.662919D-01 0.950589D-01
      2-0.445510D-01 0.490332D-01-0.145165D+00 0.954722D-02 0.130497D+00
      3-0.861149D-02-0.643235D-02 0.841657D-01 0.186827D+00 0.452639D-01
              16           17           18           19           20
      1 0.548868D-01 0.275921D-01-0.894961D-01-0.104872D+00-0.747964D-01
      2 0.951803D-01 0.348602D-01-0.109065D+00-0.531769D-02-0.417609D-02
      3-0.456401D-01-0.798210D-01 0.345639D-01 0.121232D+00 0.539661D-01
              21           22           23           24           25
      1 0.115601D+00 0.357728D-01-0.454543D-01-0.414867D-01 0.240302D-01
      2 0.138602D-02-0.860210D-01 0.210608D-01-0.682589D-01 0.674715D-01
      3-0.967706D-02-0.707835D-01-0.623665D-01-0.430789D-02-0.383300D-01
              26           27           28           29           30
      1 0.823251D-01-0.564700D-01 0.635034D+00 0.175387D+00 0.966235D-01
      2-0.477451D-01 0.114015D+00 0.172407D+00 0.498961D+00 0.471597D-01
      3 0.719369D-01-0.461778D-01 0.144042D+00 0.591621D-01 0.403711D+00
              31           32           33           34           35
      1-0.312440D-01-0.416276D-01-0.159531D-01-0.418914D-01 0.539092D-01
      2-0.572238D-01-0.315096D-01 0.127632D+00 0.662268D-01-0.106247D+00
      3 0.401714D-01 0.770596D-01-0.120225D+00 0.535035D-01-0.102720D+00
              36           37           38           39           40
      1 0.538826D-01-0.821615D+00-0.108943D+00-0.217178D+00 0.362522D+00
      2-0.149711D+00-0.129603D+00-0.583138D+00-0.161013D+00-0.158905D-01
      3-0.718832D-01-0.224653D+00-0.179986D+00-0.374485D+00 0.313813D-02
              41           42
      1-0.588603D-01 0.543820D-01
      2 0.228280D+00 0.847388D-01
      3 0.399679D-01 0.128057D+00
 Hessian after L701:
                1             2             3             4             5
      1  0.120249D+02
      2 -0.701554D+00  0.119814D+02
      3 -0.155749D+01 -0.169199D+01  0.104201D+02
      4 -0.261599D+01 -0.825003D+00 -0.767765D+00  0.262010D+01
      5 -0.912637D+00 -0.271777D+01  0.730102D+00  0.897689D+00  0.259241D+01
      6 -0.906404D+00  0.780732D+00 -0.283365D+01  0.807887D+00 -0.891726D+00
      7 -0.297008D+01 -0.694668D+00  0.686242D+00  0.614085D-02  0.580050D-01
      8 -0.630178D+00 -0.256234D+01 -0.914044D+00  0.371130D-01 -0.487929D-02
      9  0.710459D+00 -0.103955D+01 -0.245720D+01  0.314864D-02 -0.564387D-02
     10 -0.209050D+01  0.107917D+01 -0.562211D+00 -0.385993D-01 -0.150016D-01
     11  0.108327D+01 -0.245280D+01 -0.481760D+00  0.932189D-02  0.855217D-01
     12 -0.470542D+00 -0.401687D+00 -0.317735D+01  0.584222D-01  0.141876D-01
     13 -0.438981D+01  0.109698D+01  0.173672D+01  0.973020D-01 -0.200007D-01
     14  0.110875D+01 -0.413674D+01  0.202094D+01 -0.565589D-01  0.212764D-01
     15  0.176975D+01  0.202340D+01 -0.224514D+01 -0.655272D-01 -0.965937D-02
     16 -0.893142D-01  0.136954D-01  0.249870D-01 -0.302111D-01 -0.377711D-01
     17 -0.372702D-01  0.772754D-01  0.146136D+00 -0.408580D-01  0.571794D-01
     18 -0.271441D-01  0.194186D+00  0.697783D-01 -0.420755D-01  0.964446D-01
     19 -0.728079D-02 -0.151195D-01 -0.315610D-01  0.409534D-02 -0.430296D-02
     20 -0.181997D-02 -0.233805D-01  0.827170D-02  0.101023D-02 -0.230514D-02
     21 -0.264975D-01  0.271038D-01  0.329220D-01 -0.402125D-02  0.326389D-02
     22 -0.423944D-01  0.381043D-01  0.367038D-01 -0.279638D-02  0.371615D-02
     23  0.359898D-01  0.624188D-01  0.119491D+00 -0.397248D-02  0.233516D-02
     24  0.339823D-01  0.116273D+00  0.742988D-01 -0.439666D-02  0.417047D-02
     25 -0.128022D-01 -0.694475D-02  0.212353D-02  0.128803D-02 -0.580712D-02
     26 -0.110680D-01  0.263659D-01  0.621864D-02 -0.794435D-02  0.106476D-01
     27  0.646000D-02 -0.159946D-01 -0.199758D-01  0.170140D-02 -0.108171D-02
     28  0.421937D-01 -0.831937D-01  0.107426D+00 -0.276251D-01  0.431066D-02
     29 -0.132867D-01 -0.761579D-01 -0.149902D-01 -0.126074D-01 -0.940782D-02
     30  0.138014D+00 -0.818815D-01  0.326611D-01 -0.179587D-01  0.146924D-01
     31 -0.254015D-01 -0.748751D-02  0.307672D-01 -0.605637D-03 -0.141727D-02
     32 -0.187277D-01 -0.271925D-01 -0.390455D-01  0.233015D-02 -0.418124D-02
     33  0.507297D-01 -0.301665D-01  0.825344D-01 -0.564493D-02  0.583939D-02
     34  0.526002D-01 -0.241228D-01  0.186816D-01  0.604135D-02  0.880746D-02
     35 -0.363129D-01 -0.197027D-01 -0.694502D-02 -0.368908D-02 -0.315078D-01
     36 -0.346150D-02  0.483515D-02 -0.419505D-01  0.327161D-01  0.196039D-02
     37  0.101104D+00  0.112648D+00  0.257044D+00 -0.160876D-01  0.199945D-01
     38  0.107523D+00 -0.130098D+00  0.104360D+00  0.539665D-02 -0.363917D-02
     39  0.281832D+00  0.112790D+00  0.735224D-01  0.227065D-02  0.408150D-01
     40  0.227823D-01  0.174967D-01  0.183294D-01 -0.305448D-02  0.441500D-02
     41  0.273227D-01 -0.127019D-02  0.132603D-01 -0.222751D-02  0.431802D-02
     42  0.310506D-03  0.194874D-02 -0.105512D-01  0.124273D-02 -0.336564D-02
                6             7             8             9            10
      6  0.254123D+01
      7 -0.176634D-01  0.287700D+01
      8  0.153830D-01  0.730475D+00  0.257641D+01
      9  0.648443D-01 -0.831138D+00  0.987709D+00  0.211352D+01
     10  0.774471D-01  0.885496D-01 -0.132225D-01  0.188420D-01  0.180547D+01
     11 -0.102556D-03 -0.348105D-01 -0.211765D-01  0.884276D-01 -0.123019D+01
     12  0.313114D-01  0.304783D-01  0.685040D-01  0.237498D-01  0.443245D+00
     13 -0.173173D-01 -0.271758D-01 -0.673696D-01 -0.509352D-01  0.191769D+00
     14 -0.420146D-01 -0.452428D-01  0.708007D-01 -0.705232D-01  0.110156D+00
     15  0.679771D-01 -0.127656D-01 -0.112296D+00  0.116607D+00 -0.728877D-01
     16 -0.395865D-01 -0.187558D-01 -0.538565D-02  0.124819D-01 -0.104228D-01
     17  0.101532D+00  0.200851D-02 -0.218023D-01  0.218933D-01  0.244192D-01
     18  0.527697D-01  0.133344D-01 -0.572853D-02  0.347812D-01  0.121518D-01
     19 -0.479557D-02 -0.195844D-02  0.422897D-02 -0.544299D-02 -0.228108D-01
     20 -0.169282D-02 -0.461217D-03  0.398373D-03 -0.522022D-02  0.182957D-02
     21  0.256059D-02  0.353314D-02 -0.702574D-02  0.753011D-03  0.709128D-02
     22  0.374086D-02  0.103649D-02 -0.141143D-02  0.706689D-02  0.304209D-02
     23  0.257469D-02  0.405397D-02 -0.329692D-02  0.830351D-02  0.312079D-02
     24  0.316474D-02  0.667457D-02 -0.119239D-02  0.114308D-01  0.369368D-02
     25 -0.382000D-02 -0.189710D-01 -0.666429D-03 -0.553260D-02 -0.205598D-02
     26  0.832819D-02  0.752076D-02  0.870491D-02  0.464695D-01  0.564401D-02
     27 -0.344210D-02  0.818040D-03  0.234300D-01  0.567945D-02 -0.335700D-02
     28  0.132772D-01  0.452344D-01 -0.331073D-01  0.107712D+00  0.340919D-01
     29  0.145099D-01 -0.189522D-01 -0.374240D-01 -0.255671D-01  0.255431D-01
     30  0.180532D-01  0.950338D-01 -0.392435D-01  0.745569D-01  0.232080D-01
     31 -0.287144D-02 -0.349622D-02  0.262807D-02 -0.651112D-02  0.108672D-01
     32 -0.427563D-02 -0.538428D-03  0.308383D-02 -0.500565D-03 -0.564078D-02
     33  0.100018D-01 -0.113081D-02 -0.244524D-02 -0.175087D-02  0.367225D-01
     34  0.567326D-01  0.937414D-02 -0.891978D-02  0.107152D-01  0.207689D-02
     35 -0.135819D-01 -0.940128D-02  0.378140D-02 -0.817580D-02 -0.523399D-02
     36  0.128300D-01  0.221430D-02 -0.130126D-03 -0.228503D-02 -0.650979D-02
     37  0.291936D-01  0.108382D-01 -0.112348D-01  0.254474D-01  0.200029D-01
     38  0.249938D-01 -0.177687D-02 -0.882286D-02 -0.179353D-02  0.110553D-01
     39  0.369081D-01  0.280303D-01 -0.147795D-01  0.198774D-01  0.250849D-01
     40  0.417969D-02  0.226441D-02 -0.294976D-02  0.368812D-02  0.852187D-02
     41  0.533961D-02  0.378746D-02 -0.343962D-02  0.417295D-02  0.834738D-02
     42 -0.456351D-02 -0.366065D-02  0.185898D-02 -0.457001D-02 -0.252103D-02
               11            12            13            14            15
     11  0.219922D+01
     12  0.365066D+00  0.315568D+01
     13  0.106854D+00 -0.820836D-01  0.100809D+02
     14  0.155977D+00 -0.807669D-01  0.224924D+01  0.115188D+02
     15 -0.716804D-01 -0.131494D-01 -0.283955D+01 -0.239044D+01  0.107665D+02
     16  0.225012D-01  0.180342D-02 -0.430644D+01 -0.197044D+01 -0.119076D+01
     17  0.307273D-01  0.665587D-02 -0.188542D+01 -0.231151D+01  0.190943D+01
     18  0.254744D-01 -0.202168D-01 -0.112864D+01  0.188147D+01 -0.445128D+01
     19 -0.135397D-01 -0.568896D-02  0.192894D+00  0.815935D-01 -0.930624D-01
     20  0.190624D-01  0.318685D-01  0.937567D-01  0.113226D-01 -0.713828D-01
     21  0.459780D-01  0.149896D-01 -0.818962D-01 -0.611836D-01  0.146065D+00
     22  0.339287D-02 -0.122873D-02  0.943861D-01  0.669291D-01  0.701334D-01
     23  0.158994D-02 -0.300920D-02  0.639317D-02  0.569061D-01 -0.627150D-01
     24  0.285187D-02 -0.293935D-02  0.165229D-01 -0.170975D-01  0.132077D-01
     25 -0.252653D-02  0.485215D-03 -0.226145D-01  0.329199D-01  0.202196D-01
     26  0.487863D-02 -0.395718D-02  0.578135D-01  0.104044D+00 -0.388636D-01
     27 -0.614954D-02 -0.578374D-04  0.403816D-01 -0.848992D-01  0.833233D-01
     28  0.230166D-01  0.326774D-02 -0.228537D+01 -0.175762D+01  0.233831D+01
     29 -0.458870D-02  0.337695D-03 -0.180068D+01 -0.527282D+01 -0.108774D+01
     30  0.108752D-01 -0.164608D-01  0.234066D+01 -0.107434D+01 -0.452426D+01
     31  0.258516D-02  0.216252D-01  0.254542D-01  0.531259D-01 -0.119371D+00
     32 -0.142921D-01 -0.855887D-03  0.370736D-01  0.220146D+00 -0.614970D-01
     33  0.916285D-02  0.147138D-01 -0.935869D-01 -0.806888D-01  0.963308D-01
     34  0.371877D-02 -0.443479D-02 -0.427578D-01  0.189375D+00 -0.122174D-02
     35 -0.261265D-02  0.116782D-02  0.173381D+00 -0.417329D-01  0.123893D-01
     36 -0.233151D-02 -0.338623D-04 -0.293504D-01  0.309098D-01  0.151974D+00
     37  0.194893D-01  0.339318D-02  0.272677D+00 -0.382520D-01  0.128351D+00
     38 -0.567390D-02  0.243766D-02 -0.791921D-01 -0.301249D+00 -0.511399D-01
     39  0.162797D-01 -0.102842D-01  0.198964D+00 -0.109965D-01 -0.136951D+00
     40  0.691213D-02  0.125741D-02  0.118743D+00 -0.239675D-01  0.683793D-01
     41  0.416710D-02  0.505804D-04  0.311819D-01 -0.952297D-01  0.121982D-01
     42 -0.209194D-02  0.465427D-04 -0.989610D-02 -0.203582D-01 -0.711732D-01
               16            17            18            19            20
     16  0.119358D+02
     17  0.161299D+01  0.109536D+02
     18  0.495395D+00 -0.157271D+01  0.125212D+02
     19 -0.192205D+01  0.631733D+00 -0.103284D+01  0.155399D+01
     20  0.536834D+00 -0.323557D+01 -0.366485D+00 -0.518561D+00  0.321781D+01
     21 -0.102023D+01 -0.426678D+00 -0.275928D+01  0.114498D+01  0.332680D+00
     22 -0.289297D+01  0.682060D+00  0.898265D+00 -0.307466D-01 -0.499182D-01
     23  0.873379D+00 -0.307050D+01  0.895991D+00 -0.674674D-01  0.306203D-01
     24  0.103747D+01  0.799442D+00 -0.259452D+01  0.519922D-02  0.869596D-02
     25 -0.318056D+01 -0.622710D+00  0.602573D+00  0.827175D-01 -0.394488D-01
     26 -0.618066D+00 -0.240081D+01 -0.111329D+01 -0.301809D-01  0.168751D-01
     27  0.541481D+00 -0.100822D+01 -0.257082D+01  0.259724D-01  0.696218D-01
     28  0.149623D+00 -0.208906D+00  0.120963D-01  0.519943D-01 -0.725829D-02
     29 -0.149689D+00  0.946041D-01 -0.181803D-01 -0.147593D-01 -0.207723D-01
     30 -0.527566D-02 -0.640760D-02 -0.559902D-01 -0.154925D-01  0.140573D-02
     31 -0.223857D-01  0.190156D-01 -0.141370D-01  0.210611D-01 -0.275457D-01
     32  0.433904D-02 -0.527049D-02  0.704820D-02 -0.449531D-01  0.115428D-01
     33 -0.706188D-02  0.711725D-02 -0.692850D-02  0.167304D-01 -0.607443D-02
     34  0.772503D-01 -0.125123D+00 -0.334418D-01  0.278614D-03  0.428152D-02
     35 -0.132065D+00  0.766922D-01  0.280876D-01 -0.188998D-02 -0.346331D-02
     36 -0.422990D-01  0.368886D-01 -0.452371D-01 -0.335120D-02 -0.155624D-02
     37  0.306590D+00 -0.536209D-01  0.248869D+00  0.592208D-01  0.541141D-02
     38 -0.163456D+00 -0.235528D+00 -0.552048D-01 -0.137614D-01 -0.206575D-01
     39  0.227277D+00 -0.123819D-01 -0.157931D+00  0.896415D-02  0.209959D-02
     40  0.386405D-02  0.168723D-02 -0.440764D-02  0.185914D-01  0.188944D-02
     41  0.131319D-01 -0.910165D-02  0.289641D-02  0.697901D-02 -0.148796D-02
     42 -0.356854D-01 -0.269216D-02 -0.162879D-01 -0.961309D-02 -0.223188D-02
               21            22            23            24            25
     21  0.255312D+01
     22 -0.244530D-01  0.278680D+01
     23 -0.107762D-01 -0.639072D+00  0.287994D+01
     24  0.780033D-01 -0.981476D+00 -0.959127D+00  0.259171D+01
     25  0.445736D-01  0.168709D-01  0.190997D-01 -0.632130D-01  0.306679D+01
     26  0.876758D-01  0.335081D-03  0.695220D-01 -0.802272D-03  0.744848D+00
     27 -0.122002D-01 -0.405338D-01  0.211935D-01 -0.182622D-01 -0.653370D+00
     28 -0.236870D-01 -0.157970D-01  0.141240D-01  0.813325D-03  0.406805D-01
     29  0.368162D-02  0.371758D-01 -0.168965D-01 -0.716865D-02 -0.895293D-01
     30 -0.182722D-01  0.128559D-01 -0.623096D-02  0.988634D-02  0.335240D-01
     31  0.253868D-02  0.126317D-02  0.708268D-02  0.152579D-02 -0.252781D-02
     32  0.150821D-02  0.936243D-02 -0.430827D-02  0.666415D-02 -0.176779D-02
     33 -0.173174D-01 -0.350173D-02 -0.407835D-02 -0.201513D-02  0.261371D-02
     34 -0.114987D-02 -0.589085D-04 -0.222995D-01 -0.125069D-01 -0.326417D-03
     35  0.175366D-02 -0.148190D-01  0.294712D-01  0.196946D-01 -0.109240D-02
     36  0.220241D-02 -0.623162D-02  0.185903D-01  0.277692D-02 -0.277931D-02
     37 -0.149002D-01  0.879100D-01 -0.227080D+00 -0.387819D-01  0.284659D-01
     38  0.506471D-02 -0.138925D+00 -0.336488D-01  0.331518D-01 -0.304393D-01
     39 -0.240244D-01  0.289276D-01 -0.270087D-01 -0.174671D+00  0.276948D-01
     40 -0.588492D-02 -0.654013D-02 -0.335223D-02 -0.551224D-02  0.303771D-02
     41 -0.304602D-02  0.306925D-02 -0.415452D-02 -0.555611D-02  0.406483D-02
     42  0.481450D-03 -0.268672D-03  0.680111D-02  0.792632D-02 -0.509186D-02
               26            27            28            29            30
     26  0.208499D+01
     27  0.107202D+01  0.256391D+01
     28 -0.108600D+00  0.419084D-01  0.116526D+02
     29  0.686214D-01 -0.441253D-01 -0.117206D+01  0.140865D+02
     30 -0.446453D-01 -0.284135D-01 -0.353622D+01 -0.943279D+00  0.151125D+02
     31  0.321691D-02 -0.196391D-02 -0.345949D+01  0.553074D+00 -0.725029D+00
     32  0.270102D-02 -0.366023D-02  0.622163D+00 -0.288817D+01 -0.121102D+01
     33 -0.473009D-02  0.404376D-02 -0.748609D+00 -0.112086D+01 -0.233178D+01
     34 -0.120637D-02  0.373372D-02 -0.335660D+01 -0.827100D+00 -0.780278D+00
     35  0.223761D-02 -0.424427D-02 -0.788802D+00 -0.256818D+01  0.116252D+01
     36  0.407704D-02 -0.231662D-02 -0.695648D+00  0.107899D+01 -0.289495D+01
     37 -0.378065D-01  0.320961D-01 -0.294353D+01  0.356404D+01  0.237468D+01
     38  0.583714D-02 -0.210834D-01  0.352298D+01 -0.344131D+01  0.215238D+01
     39 -0.228745D-01  0.344008D-02  0.240151D+01  0.218101D+01 -0.552850D+01
     40 -0.450574D-02  0.467247D-02  0.719826D-01 -0.811724D-01  0.622736D-01
     41 -0.461656D-02  0.319230D-02 -0.270474D-01  0.859990D-01  0.651784D-01
     42  0.436641D-02 -0.489947D-02 -0.221547D-01 -0.166178D-01  0.150948D+00
               31            32            33            34            35
     31  0.340748D+01
     32 -0.608441D+00  0.254258D+01
     33  0.825407D+00  0.151842D+01  0.215098D+01
     34  0.589437D-01  0.491909D-02  0.156117D+00  0.320078D+01
     35  0.976548D-02  0.153167D+00 -0.267841D-01  0.101101D+01  0.235502D+01
     36  0.141034D+00 -0.123641D-01 -0.114891D+00  0.742867D+00 -0.123090D+01
     37 -0.439616D-01 -0.110592D+00 -0.163991D+00 -0.207117D-01 -0.168412D+00
     38 -0.106426D+00 -0.841232D-01 -0.184160D+00 -0.182286D+00  0.103471D+00
     39 -0.987810D-01 -0.128353D+00  0.120743D+00 -0.152206D+00  0.963728D-01
     40  0.328050D-01  0.110474D+00 -0.647942D-01  0.131134D-01 -0.324358D-01
     41  0.100824D+00  0.943221D-01 -0.805459D-01 -0.310506D-01 -0.566380D-01
     42 -0.542329D-01 -0.720657D-01 -0.466376D-02 -0.360867D-02 -0.313519D-01
               36            37            38            39            40
     36  0.277512D+01
     37 -0.121679D+00  0.716473D+01
     38  0.884920D-01 -0.421911D+01  0.792330D+01
     39  0.142586D+00 -0.164580D+01 -0.132469D+00  0.915546D+01
     40 -0.752154D-02 -0.502725D+01  0.128842D+01 -0.133376D+01  0.474114D+01
     41 -0.174626D-01  0.114452D+01 -0.376786D+01 -0.210051D+01 -0.128291D+01
     42  0.141755D-01 -0.111392D+01 -0.196503D+01 -0.352017D+01  0.125910D+01
               41            42
     41  0.375499D+01
     42  0.210083D+01  0.346330D+01
 ReadGW:  IGet=0 IStart=         102 Next=        6304 LGW=        6202.
 ICntrl=12127.
 Symmetry not used in FoFDir.
 MinBra= 0 MaxBra= 2 Meth= 1.
 IRaf=       0 NMat=   1 IRICut=       1 DoRegI=T DoRafI=F ISym2E= 0 JSym2E=0.
 PrsmSu:  NPrtUS=   8 ThrOK=T
 PRISM was handed    16315024 working-precision words and  1864 shell-pairs
 PRISM was handed    16315024 working-precision words and  1864 shell-pairs
 PRISM was handed    16315024 working-precision words and  1864 shell-pairs
 PRISM was handed    16315024 working-precision words and  1864 shell-pairs
 PRISM was handed    16315024 working-precision words and  1864 shell-pairs
 PRISM was handed    16315024 working-precision words and  1864 shell-pairs
 PRISM was handed    16315024 working-precision words and  1864 shell-pairs
 PRISM was handed    16315024 working-precision words and  1864 shell-pairs
 Pruned (  75, 302) grid will be used in CalDFT.
 CkSvGd:  ISavGI=        -1 IRadAn=       4 IRASav=       4 ISavGd=        -1.
 CalDSu:  NPrtUS=   8 ThrOK=T
 IPart= 0 IRanGd=          0 ScrnBf=T ScrnGd=T RCrit=4.00D+00 DoMicB=T.
 IPart= 6 IRanGd=          0 ScrnBf=T ScrnGd=T RCrit=4.00D+00 DoMicB=T.
 CutRad = 1000.00    CtRdIn =    0.00    XCrit =  15.00   ICut = 0
 IPart= 7 IRanGd=          0 ScrnBf=T ScrnGd=T RCrit=4.00D+00 DoMicB=T.
 IPart= 1 IRanGd=          0 ScrnBf=T ScrnGd=T RCrit=4.00D+00 DoMicB=T.
 CutRad = 1000.00    CtRdIn =    0.00    XCrit =  15.00   ICut = 0
 IPart= 4 IRanGd=          0 ScrnBf=T ScrnGd=T RCrit=4.00D+00 DoMicB=T.
 IPart= 2 IRanGd=          0 ScrnBf=T ScrnGd=T RCrit=4.00D+00 DoMicB=T.
 CutRad = 1000.00    CtRdIn =    0.00    XCrit =  15.00   ICut = 0
 IPart= 5 IRanGd=          0 ScrnBf=T ScrnGd=T RCrit=4.00D+00 DoMicB=T.
 CutRad = 1000.00    CtRdIn =    0.00    XCrit =  15.00   ICut = 0
 CutRad = 1000.00    CtRdIn =    0.00    XCrit =  15.00   ICut = 0
 CutRad = 1000.00    CtRdIn =    0.00    XCrit =  15.00   ICut = 0
 CutRad = 1000.00    CtRdIn =    0.00    XCrit =  15.00   ICut = 0
 IPart= 3 IRanGd=          0 ScrnBf=T ScrnGd=T RCrit=4.00D+00 DoMicB=T.
 CutRad = 1000.00    CtRdIn =    0.00    XCrit =  15.00   ICut = 0
 IPart= 4        12568 of        14490 points in      30 batches and       89 microbatches, Max-NSigAt=      14 Max-NSgAt2=      14
 IPart= 2        13097 of        14390 points in      29 batches and       97 microbatches, Max-NSigAt=      14 Max-NSgAt2=      14
 IPart= 5        13100 of        14818 points in      32 batches and      107 microbatches, Max-NSigAt=      14 Max-NSgAt2=      14
 IPart= 0        11712 of        12878 points in      24 batches and       68 microbatches, Max-NSigAt=      14 Max-NSgAt2=      14
 IPart= 3        11754 of        13746 points in      29 batches and       87 microbatches, Max-NSigAt=      14 Max-NSgAt2=      14
 IPart= 1        11729 of        13126 points in      27 batches and       78 microbatches, Max-NSigAt=      14 Max-NSgAt2=      14
 IPart= 7        12751 of        15208 points in      32 batches and       98 microbatches, Max-NSigAt=      14 Max-NSgAt2=      14
 IPart= 6        12029 of        12896 points in      24 batches and       70 microbatches, Max-NSigAt=      14 Max-NSgAt2=      14
 Polarizability after L703:
                1             2             3
      1  0.535427D+02
      2 -0.153429D+01  0.511075D+02
      3  0.394627D+01  0.360770D+01  0.500232D+02
 Dipole Derivatives after L703:
               1            2            3            4            5
      1 0.764748D-01 0.532305D-01-0.262039D-01-0.362133D-01 0.651250D-01
      2 0.279104D-01 0.761098D-01-0.454197D-01 0.950085D-01-0.154528D-01
      3-0.867358D-01-0.756578D-01 0.707318D-01 0.951695D-01-0.904531D-01
               6            7            8            9           10
      1 0.455024D-01 0.177106D-01 0.665294D-01-0.816851D-01-0.858071D-01
      2-0.770113D-01 0.466126D-01-0.359998D-01 0.560163D-01-0.131596D+00
      3-0.581387D-02-0.792471D-01 0.110696D+00-0.433254D-01 0.396739D-02
              11           12           13           14           15
      1-0.128125D+00 0.674232D-01-0.847880D-01-0.662919D-01 0.950589D-01
      2-0.445510D-01 0.490332D-01-0.145165D+00 0.954722D-02 0.130497D+00
      3-0.861149D-02-0.643235D-02 0.841657D-01 0.186827D+00 0.452639D-01
              16           17           18           19           20
      1 0.548868D-01 0.275921D-01-0.894961D-01-0.104872D+00-0.747964D-01
      2 0.951803D-01 0.348602D-01-0.109065D+00-0.531769D-02-0.417609D-02
      3-0.456401D-01-0.798210D-01 0.345639D-01 0.121232D+00 0.539661D-01
              21           22           23           24           25
      1 0.115601D+00 0.357728D-01-0.454543D-01-0.414867D-01 0.240302D-01
      2 0.138602D-02-0.860210D-01 0.210608D-01-0.682589D-01 0.674715D-01
      3-0.967706D-02-0.707835D-01-0.623665D-01-0.430789D-02-0.383300D-01
              26           27           28           29           30
      1 0.823251D-01-0.564700D-01 0.635034D+00 0.175387D+00 0.966235D-01
      2-0.477451D-01 0.114015D+00 0.172407D+00 0.498961D+00 0.471597D-01
      3 0.719369D-01-0.461778D-01 0.144042D+00 0.591621D-01 0.403711D+00
              31           32           33           34           35
      1-0.312440D-01-0.416276D-01-0.159531D-01-0.418914D-01 0.539092D-01
      2-0.572238D-01-0.315096D-01 0.127632D+00 0.662268D-01-0.106247D+00
      3 0.401714D-01 0.770596D-01-0.120225D+00 0.535035D-01-0.102720D+00
              36           37           38           39           40
      1 0.538826D-01-0.821615D+00-0.108943D+00-0.217178D+00 0.362522D+00
      2-0.149711D+00-0.129603D+00-0.583138D+00-0.161013D+00-0.158905D-01
      3-0.718832D-01-0.224653D+00-0.179986D+00-0.374485D+00 0.313813D-02
              41           42
      1-0.588603D-01 0.543820D-01
      2 0.228280D+00 0.847388D-01
      3 0.399679D-01 0.128057D+00
 Hessian after L703:
                1             2             3             4             5
      1  0.507302D+00
      2 -0.573000D-01  0.509493D+00
      3 -0.104916D-01 -0.529521D-02  0.498178D+00
      4 -0.156202D+00  0.962240D-01  0.845505D-01  0.169961D+00
      5  0.958494D-01 -0.124568D+00 -0.719330D-01 -0.102934D+00  0.136040D+00
      6  0.838440D-01 -0.725760D-01 -0.115054D+00 -0.923707D-01  0.836518D-01
      7 -0.885083D-01  0.748753D-01 -0.661781D-01 -0.872196D-02  0.126581D-01
      8  0.743739D-01 -0.153243D+00  0.101754D+00  0.532613D-02 -0.110745D-01
      9 -0.672067D-01  0.103272D+00 -0.146779D+00  0.645118D-02 -0.112135D-01
     10 -0.162107D+00 -0.998292D-01  0.633697D-01 -0.162197D-01 -0.129364D-01
     11 -0.100709D+00 -0.126963D+00  0.519777D-01  0.130837D-01  0.113994D-01
     12  0.536138D-01  0.432571D-01 -0.687855D-01  0.114616D-01  0.100649D-01
     13 -0.100209D+00 -0.142257D-01 -0.525411D-01  0.112048D-01  0.885577D-02
     14 -0.145972D-01 -0.102883D+00 -0.572433D-01 -0.895697D-02 -0.124229D-01
     15 -0.540035D-01 -0.585732D-01 -0.150144D+00 -0.737665D-02 -0.872130D-02
     16  0.117683D-01 -0.110089D-01 -0.789362D-02 -0.983779D-03 -0.225378D-02
     17  0.943446D-02 -0.116193D-01 -0.110569D-01 -0.123374D-02 -0.170862D-03
     18  0.121924D-01 -0.175185D-01 -0.114761D-01 -0.191469D-02 -0.285255D-02
     19  0.219272D-03 -0.302444D-03 -0.107519D-02  0.235395D-04  0.322763D-03
     20 -0.397708D-03  0.953480D-03  0.105985D-02 -0.959691D-04  0.697893D-05
     21 -0.563249D-03  0.104376D-03  0.140584D-02 -0.171928D-03 -0.195216D-03
     22 -0.152523D-02  0.257125D-02  0.936342D-03  0.220822D-03  0.618799D-03
     23  0.379054D-02 -0.271480D-02 -0.103960D-02 -0.541031D-03 -0.504363D-03
     24  0.182048D-02 -0.236566D-02 -0.756113D-04 -0.396262D-03 -0.694882D-03
     25 -0.728059D-04 -0.111574D-02 -0.207735D-03 -0.753260D-04 -0.206645D-03
     26  0.275141D-03  0.808479D-03  0.131326D-02 -0.108130D-03  0.503176D-03
     27  0.257121D-03 -0.292423D-03  0.118945D-02  0.853321D-04  0.124816D-03
     28 -0.622988D-02  0.640964D-02 -0.137018D-01  0.218963D-03  0.821549D-03
     29 -0.986146D-02  0.126614D-01 -0.109044D-01 -0.720257D-03 -0.433381D-03
     30 -0.149170D-01  0.609247D-02 -0.976867D-02 -0.938838D-03  0.143090D-02
     31 -0.353674D-03 -0.711071D-03  0.166687D-02 -0.888471D-04  0.136889D-04
     32  0.948120D-04 -0.140189D-02  0.286860D-03 -0.110028D-04  0.146065D-03
     33 -0.290523D-03  0.390218D-03  0.788302D-03  0.160110D-03  0.157949D-03
     34  0.170932D-03  0.864902D-03  0.138562D-02  0.197245D-03 -0.587484D-03
     35 -0.122475D-02 -0.537903D-04 -0.697155D-03 -0.488915D-04  0.890127D-03
     36 -0.607258D-03  0.973595D-03  0.906762D-03  0.330671D-03 -0.514181D-05
     37 -0.457454D-02  0.392091D-02  0.393576D-03  0.559029D-03 -0.365620D-03
     38  0.196376D-04 -0.785457D-04  0.126715D-02  0.201726D-04  0.352379D-03
     39 -0.356759D-02  0.246515D-02  0.924762D-04  0.151739D-03  0.288860D-03
     40  0.321804D-03 -0.372920D-03 -0.213426D-03 -0.945218D-04  0.143423D-03
     41  0.251843D-03 -0.391246D-03  0.510684D-03 -0.436398D-05 -0.164180D-03
     42 -0.802685D-04  0.658263D-04 -0.477323D-03 -0.220409D-04 -0.103628D-03
                6             7             8             9            10
      6  0.122655D+00
      7 -0.137329D-01  0.984469D-01
      8  0.104934D-01 -0.775386D-01  0.166994D+00
      9  0.119697D-01  0.781979D-01 -0.112707D+00  0.158600D+00
     10  0.834927D-02  0.965540D-02  0.803787D-02 -0.387552D-02  0.181341D+00
     11 -0.575465D-02 -0.158636D-01 -0.143760D-01  0.923720D-02  0.116042D+00
     12 -0.616929D-02  0.149478D-01  0.127795D-01 -0.771310D-02 -0.616601D-01
     13  0.157656D-01 -0.111320D-01 -0.774583D-02 -0.143737D-01 -0.138602D-01
     14 -0.142497D-01  0.766472D-02  0.119824D-01  0.132920D-01 -0.110136D-01
     15 -0.115402D-01 -0.111766D-01 -0.109201D-01 -0.147585D-01 -0.445609D-02
     16 -0.345516D-02  0.991567D-04 -0.245302D-03  0.130485D-03  0.810558D-05
     17 -0.809475D-03  0.228118D-03  0.117296D-02  0.136627D-02  0.823483D-03
     18 -0.291118D-02  0.115351D-02 -0.320977D-03  0.948101D-03  0.103762D-03
     19  0.104827D-04  0.125393D-03 -0.520381D-04  0.161623D-03  0.607835D-03
     20  0.305857D-03 -0.196972D-04 -0.255976D-03 -0.859727D-04 -0.604140D-03
     21  0.140706D-03  0.189602D-03  0.151620D-03 -0.262877D-03 -0.463231D-03
     22  0.685800D-03 -0.158127D-03 -0.104225D-03  0.253050D-05  0.568972D-04
     23 -0.115957D-02 -0.501115D-04  0.256918D-03 -0.671525D-04 -0.178996D-04
     24 -0.336426D-03  0.287413D-03  0.994292D-04  0.516286D-03 -0.196729D-03
     25  0.205663D-04  0.526474D-03  0.497239D-04  0.372473D-03  0.159904D-03
     26 -0.133364D-03 -0.516482D-03  0.375383D-04 -0.919828D-03 -0.141968D-03
     27  0.227042D-03 -0.111447D-03  0.445006D-03  0.603499D-04  0.738288D-04
     28  0.192025D-02  0.175815D-04 -0.915143D-03  0.121501D-02  0.149733D-02
     29 -0.143923D-02 -0.134562D-02 -0.202139D-02 -0.292806D-02 -0.474476D-03
     30  0.181508D-03 -0.215157D-02 -0.146827D-02 -0.201984D-02  0.819900D-05
     31 -0.244026D-03 -0.138724D-03 -0.442042D-04 -0.202117D-05 -0.619769D-03
     32  0.400315D-04  0.412865D-03  0.147553D-03  0.477962D-03  0.191905D-03
     33 -0.295591D-04 -0.539087D-03 -0.589933D-05 -0.233903D-03 -0.701630D-03
     34 -0.871406D-03  0.289423D-03 -0.279869D-03 -0.122332D-03 -0.664348D-04
     35  0.914499D-03 -0.496251D-03  0.187147D-03  0.122351D-03 -0.112304D-03
     36  0.331318D-03 -0.318482D-04  0.172362D-03  0.256548D-03  0.221569D-03
     37 -0.902729D-04 -0.630662D-03 -0.912496D-03 -0.115019D-02 -0.755923D-03
     38  0.921047D-03 -0.143398D-03  0.142077D-03  0.720623D-04 -0.119629D-04
     39  0.528492D-03 -0.834093D-03 -0.392560D-03 -0.606112D-03 -0.941556D-03
     40  0.168415D-03  0.129562D-03  0.500945D-04  0.199299D-03  0.302428D-03
     41 -0.204670D-03  0.134675D-03  0.500647D-04  0.811128D-04  0.462740D-04
     42  0.670936D-05 -0.207670D-04 -0.810348D-04  0.231160D-04  0.168554D-03
               11            12            13            14            15
     11  0.140491D+00
     12 -0.516728D-01  0.760318D-01
     13 -0.134689D-01 -0.203339D-01  0.395836D+00
     14 -0.109116D-01 -0.166027D-01 -0.116621D+00  0.393333D+00
     15 -0.265437D-02  0.804786D-02  0.121161D+00  0.127513D+00  0.399635D+00
     16  0.195901D-03  0.197208D-03 -0.103561D+00  0.567490D-01  0.150783D-01
     17  0.133707D-02  0.129286D-02  0.518780D-01 -0.145872D+00 -0.516007D-01
     18  0.101737D-03  0.769675D-03  0.156624D-01 -0.552922D-01 -0.103137D+00
     19  0.691694D-03  0.715272D-03 -0.162320D-01  0.420947D-02  0.112226D-01
     20 -0.512434D-03  0.504328D-04  0.221317D-01  0.771465D-02 -0.141529D-01
     21 -0.749771D-03 -0.532288D-03  0.137923D-01 -0.167382D-02 -0.916918D-02
     22  0.203632D-03  0.990902D-04  0.125969D-01  0.635514D-02  0.121548D-01
     23  0.167427D-03  0.268789D-03 -0.148056D-01 -0.111863D-01 -0.167261D-01
     24 -0.324560D-03 -0.121497D-03 -0.735712D-02 -0.786618D-02 -0.117581D-01
     25 -0.175597D-03 -0.723488D-05 -0.106002D-01  0.126264D-01 -0.902912D-02
     26 -0.756163D-04 -0.363790D-04  0.122276D-01 -0.152080D-01  0.139459D-01
     27  0.138209D-03 -0.227105D-03  0.551538D-02 -0.104869D-01  0.117944D-01
     28  0.102137D-02  0.156591D-02 -0.136588D+00  0.527828D-01 -0.439290D-01
     29 -0.108229D-02  0.228168D-03  0.587832D-01 -0.106154D+00  0.169617D-01
     30  0.765658D-03 -0.241057D-03 -0.445182D-01  0.161140D-01 -0.991979D-01
     31 -0.524690D-03 -0.358753D-03  0.755847D-02  0.143928D-01 -0.209378D-01
     32  0.241866D-03  0.271950D-03  0.153694D-02 -0.684024D-02  0.148971D-01
     33 -0.499133D-03 -0.551338D-03 -0.326521D-02  0.110100D-01 -0.143660D-01
     34 -0.490510D-04 -0.541260D-04 -0.110288D-01  0.161503D-01  0.148370D-01
     35  0.236836D-03  0.177412D-04  0.122373D-01 -0.126092D-01 -0.846278D-02
     36  0.479673D-04 -0.828717D-04 -0.916487D-02  0.103728D-01  0.837192D-02
     37 -0.725071D-03 -0.417199D-03 -0.253715D-01 -0.201137D-01 -0.248020D-01
     38  0.807743D-04  0.131307D-03 -0.135526D-02  0.796938D-02 -0.898849D-03
     39 -0.766268D-03 -0.546299D-03 -0.207758D-01 -0.142207D-01 -0.142658D-01
     40  0.276880D-03  0.230660D-03  0.138670D-02  0.371718D-03  0.125705D-02
     41 -0.336000D-04 -0.509902D-04  0.571701D-03  0.308787D-02 -0.607733D-03
     42  0.153056D-03  0.120993D-03  0.433293D-03 -0.666599D-03  0.488257D-03
               16            17            18            19            20
     16  0.504393D+00
     17  0.144928D-01  0.499217D+00
     18  0.604429D-01 -0.628329D-02  0.521106D+00
     19 -0.183901D+00 -0.717311D-01  0.915782D-01  0.205888D+00
     20 -0.612529D-01 -0.710370D-01  0.383753D-01  0.702504D-01  0.783124D-01
     21  0.932710D-01  0.454414D-01 -0.103639D+00 -0.107558D+00 -0.459078D-01
     22 -0.143043D+00 -0.765974D-01 -0.104951D+00 -0.153671D-01 -0.111582D-01
     23 -0.741555D-01 -0.108267D+00 -0.779522D-01 -0.755895D-02 -0.603502D-02
     24 -0.103331D+00 -0.791367D-01 -0.154501D+00  0.107122D-01  0.855101D-02
     25 -0.725925D-01  0.566991D-01 -0.639871D-01  0.846444D-02 -0.169967D-01
     26  0.574039D-01 -0.154698D+00  0.110814D+00  0.303784D-02 -0.845283D-02
     27 -0.629125D-01  0.109132D+00 -0.159967D+00 -0.554146D-02  0.112940D-01
     28 -0.103291D-01  0.163145D-01 -0.612015D-02  0.940314D-03 -0.159573D-02
     29  0.169109D-01 -0.112803D-01  0.125233D-01 -0.417114D-03 -0.206811D-03
     30  0.101204D-01 -0.746470D-02  0.132788D-01  0.102956D-02 -0.427038D-03
     31  0.220575D-03 -0.179988D-02  0.708177D-03 -0.559046D-03  0.213779D-03
     32  0.132332D-03  0.132452D-02 -0.663102D-03  0.584221D-03 -0.414898D-03
     33 -0.399375D-03 -0.138810D-02  0.720439D-03 -0.822456D-03  0.758420D-03
     34 -0.222679D-02  0.153066D-02 -0.407076D-02 -0.215549D-04 -0.164575D-03
     35  0.197984D-02  0.791852D-03  0.158016D-02  0.448725D-03 -0.270149D-03
     36 -0.202233D-02  0.135534D-02 -0.132178D-02 -0.162837D-03  0.223876D-03
     37  0.829415D-03 -0.627512D-03 -0.528358D-03 -0.563644D-03 -0.339417D-03
     38  0.862394D-03 -0.723000D-03 -0.299440D-02  0.605527D-03  0.333296D-03
     39  0.740858D-03 -0.110689D-02 -0.276167D-03 -0.252353D-03  0.205049D-03
     40 -0.682296D-03  0.588551D-03 -0.269038D-03  0.375391D-03  0.291553D-04
     41  0.189349D-03 -0.176666D-03  0.482731D-03 -0.889807D-04 -0.135732D-03
     42  0.329039D-04  0.259272D-03  0.406930D-03 -0.177878D-04 -0.250147D-03
               21            22            23            24            25
     21  0.113269D+00
     22 -0.156741D-01  0.155617D+00
     23 -0.697148D-02  0.820226D-01  0.115668D+00
     24  0.116924D-01  0.111334D+00  0.904448D-01  0.168018D+00
     25  0.175699D-01 -0.660566D-02  0.134926D-01 -0.116370D-01  0.816294D-01
     26  0.951926D-02 -0.447646D-02  0.119403D-01 -0.105579D-01 -0.675251D-01
     27 -0.124468D-01 -0.466726D-02  0.130940D-01 -0.127343D-01  0.654829D-01
     28 -0.105042D-02  0.168072D-03 -0.221649D-02 -0.134956D-02 -0.125606D-03
     29  0.601173D-04  0.788433D-03 -0.115500D-02 -0.148504D-03  0.240684D-02
     30 -0.949412D-03 -0.507597D-03 -0.125279D-02 -0.764343D-03  0.178888D-02
     31  0.497442D-03 -0.109065D-03  0.339531D-03  0.530515D-04  0.760099D-04
     32 -0.124463D-03 -0.174782D-03 -0.245128D-03  0.139353D-03  0.125322D-04
     33  0.464633D-03  0.165158D-04  0.261131D-03  0.646210D-04 -0.201724D-03
     34  0.853234D-04  0.101846D-03 -0.244226D-03 -0.342393D-04 -0.677978D-03
     35 -0.265048D-03 -0.572192D-03  0.288019D-03  0.425404D-04  0.368649D-03
     36  0.718027D-04 -0.166354D-04  0.165225D-03  0.719118D-04 -0.374380D-03
     37 -0.921850D-05 -0.107145D-02 -0.403868D-03 -0.618474D-03 -0.160509D-03
     38  0.726399D-03  0.318979D-03  0.162167D-02  0.235674D-02  0.273373D-03
     39  0.188791D-03  0.134701D-03  0.114956D-02  0.254285D-03  0.252043D-03
     40  0.845400D-04 -0.881877D-03  0.348417D-03  0.713479D-03  0.544522D-04
     41 -0.115612D-03  0.204342D-03  0.165028D-03 -0.539425D-03  0.905905D-04
     42 -0.234149D-03  0.453293D-03 -0.214542D-03 -0.325602D-03 -0.424448D-04
               26            27            28            29            30
     26  0.167878D+00
     27 -0.121565D+00  0.173308D+00
     28 -0.697246D-03  0.136982D-02  0.459161D+00
     29 -0.336630D-02 -0.244353D-02 -0.322418D-01  0.501542D+00
     30 -0.339868D-02 -0.192685D-02 -0.603935D-01  0.969474D-02  0.527660D+00
     31 -0.210062D-03  0.315074D-04 -0.677060D-01 -0.299306D-01  0.545018D-01
     32  0.595270D-04 -0.850386D-04 -0.388620D-01 -0.105691D+00  0.900677D-01
     33  0.177319D-03 -0.574085D-04  0.727362D-01  0.982505D-01 -0.194509D+00
     34  0.989164D-03  0.610722D-03 -0.112660D+00  0.726981D-01  0.759862D-01
     35 -0.324418D-03 -0.257997D-03  0.735160D-01 -0.134533D+00 -0.840955D-01
     36  0.437400D-03  0.357709D-03  0.762889D-01 -0.874409D-01 -0.137820D+00
     37 -0.231667D-03 -0.325708D-03 -0.115471D+00 -0.564114D-01 -0.408322D-01
     38  0.940302D-03  0.916893D-03 -0.628105D-01 -0.128788D+00 -0.476697D-01
     39  0.487824D-03  0.406051D-03 -0.170184D-01 -0.164328D-01 -0.104319D+00
     40 -0.265323D-04  0.131763D-03 -0.128933D-01 -0.201847D-01  0.208238D-01
     41 -0.428719D-04 -0.135399D-04 -0.115269D-01 -0.194913D-01  0.216112D-01
     42 -0.836120D-04  0.158848D-04 -0.115332D-01 -0.159811D-01  0.103963D-01
               31            32            33            34            35
     31  0.834504D-01
     32  0.517983D-01  0.126426D+00
     33 -0.642023D-01 -0.105272D+00  0.210765D+00
     34 -0.452041D-02  0.689819D-02  0.746988D-02  0.120299D+00
     35 -0.722691D-02  0.112750D-01  0.936283D-02 -0.767431D-01  0.154947D+00
     36  0.147267D-01 -0.141948D-01 -0.158152D-01 -0.740496D-01  0.101876D+00
     37 -0.141653D-01 -0.184519D-01 -0.726737D-02  0.873336D-02 -0.299190D-02
     38 -0.230625D-01 -0.218932D-01 -0.100868D-01 -0.219743D-01 -0.206778D-01
     39  0.156010D-01  0.156282D-01  0.118974D-01 -0.204936D-01 -0.191185D-01
     40 -0.304460D-02 -0.416248D-02 -0.269303D-02  0.140980D-02  0.865750D-03
     41 -0.324826D-02 -0.313448D-02 -0.311672D-02  0.911206D-03 -0.147639D-03
     42 -0.204159D-02 -0.147008D-02  0.861976D-03 -0.678701D-03 -0.101908D-02
               36            37            38            39            40
     36  0.152382D+00
     37 -0.473089D-02  0.218617D+00
     38 -0.150203D-01  0.203769D+00  0.344669D+00
     39 -0.808735D-02 -0.398806D-01 -0.157483D+00  0.424073D+00
     40 -0.407204D-03 -0.659749D-01 -0.965109D-01  0.868837D-01  0.795914D-01
     41  0.103666D-02 -0.106115D+00 -0.183948D+00  0.189296D+00  0.118584D+00
     42  0.377970D-03  0.120259D+00  0.227762D+00 -0.309339D+00 -0.106910D+00
               41            42
     41  0.204363D+00
     42 -0.208370D+00  0.297678D+00
 FrcOut:
 IF    =  1029 IFX   =  1071 IFXYZ =  1113
 IFFX  =  1155 IFFFX =  2058 IFLen =    42
 IFFLen=   903 IFFFLn=     0 IEDerv=  2058
 LEDerv=  2069 IFroze=  4131 ICStrt= 46040
 DipoleDeriv   = 7.64748471D-02 2.79104412D-02-8.67357602D-02
                 5.32305295D-02 7.61097642D-02-7.56577945D-02
                -2.62038747D-02-4.54196804D-02 7.07318461D-02
                -3.62132937D-02 9.50084769D-02 9.51694851D-02
                 6.51250379D-02-1.54527830D-02-9.04530834D-02
                 4.55023923D-02-7.70112742D-02-5.81387046D-03
                 1.77105785D-02 4.66125526D-02-7.92471444D-02
                 6.65293677D-02-3.59997680D-02 1.10695960D-01
                -8.16850887D-02 5.60163137D-02-4.33253811D-02
                -8.58070819D-02-1.31596112D-01 3.96739034D-03
                -1.28125110D-01-4.45509827D-02-8.61149442D-03
                 6.74232328D-02 4.90332425D-02-6.43235286D-03
                -8.47880391D-02-1.45165241D-01 8.41656557D-02
                -6.62919340D-02 9.54722310D-03 1.86826759D-01
                 9.50588737D-02 1.30496615D-01 4.52638688D-02
                 5.48868213D-02 9.51802871D-02-4.56401260D-02
                 2.75921455D-02 3.48602288D-02-7.98210082D-02
                -8.94961290D-02-1.09064891D-01 3.45639399D-02
                -1.04871872D-01-5.31769069D-03 1.21232177D-01
                -7.47964203D-02-4.17608563D-03 5.39660612D-02
                 1.15600617D-01 1.38602089D-03-9.67705543D-03
                 3.57727762D-02-8.60210056D-02-7.07835363D-02
                -4.54543473D-02 2.10608386D-02-6.23664780D-02
                -4.14866586D-02-6.82588514D-02-4.30789341D-03
                 2.40301919D-02 6.74714643D-02-3.83300325D-02
                 8.23250914D-02-4.77450859D-02 7.19368916D-02
                -5.64700084D-02 1.14015465D-01-4.61778242D-02
                 6.35033528D-01 1.72407055D-01 1.44042113D-01
                 1.75386951D-01 4.98960711D-01 5.91621461D-02
                 9.66235469D-02 4.71596529D-02 4.03710982D-01
                -3.12440228D-02-5.72237510D-02 4.01714453D-02
                -4.16275830D-02-3.15096120D-02 7.70596351D-02
                -1.59531310D-02 1.27632011D-01-1.20225434D-01
                -4.18914186D-02 6.62267725D-02 5.35034718D-02
                 5.39092106D-02-1.06246922D-01-1.02719538D-01
                 5.38825510D-02-1.49710533D-01-7.18831561D-02
                -8.21615177D-01-1.29602747D-01-2.24653267D-01
                -1.08942674D-01-5.83137736D-01-1.79985933D-01
                -2.17178321D-01-1.61012872D-01-3.74484804D-01
                 3.62522162D-01-1.58905028D-02 3.13812773D-03
                -5.88602658D-02 2.28280210D-01 3.99678762D-02
                 5.43819985D-02 8.47387800D-02 1.28057134D-01
 Full mass-weighted force constant matrix:
 Low frequencies ---   -7.8345   -0.0006    0.0004    0.0006   15.8179   24.0493
 Low frequencies ---   91.6466  116.9688  150.5732
 Dipole derivatives wrt mode   1:  1.38798D+00  1.08908D+00  2.03733D-01
 Vibrational polarizability contributions from mode   1       6.1742775       3.8013878       0.1330274
 Vibrational hyperpolarizability contributions from mode   1       0.0000000       0.0000000       0.0000000
 Dipole derivatives wrt mode   2: -3.27611D-01 -4.24118D-01  1.26849D-02
 Vibrational polarizability contributions from mode   2       0.2112857       0.3541000       0.0003168
 Vibrational hyperpolarizability contributions from mode   2       0.0000000       0.0000000       0.0000000
 Dipole derivatives wrt mode   3: -4.03832D-01  5.51012D-01  2.15153D-02
 Vibrational polarizability contributions from mode   3       0.1935944       0.3604230       0.0005495
 Vibrational hyperpolarizability contributions from mode   3       0.0000000       0.0000000       0.0000000
 Dipole derivatives wrt mode   4:  2.27098D-01  6.90233D-02 -3.37796D-01
 Vibrational polarizability contributions from mode   4       0.0234190       0.0021634       0.0518143
 Vibrational hyperpolarizability contributions from mode   4       0.0000000       0.0000000       0.0000000
 Dipole derivatives wrt mode   5: -1.54884D+00  2.97066D+00 -8.45058D-02
 Vibrational polarizability contributions from mode   5       0.7106905       2.6144051       0.0021156
 Vibrational hyperpolarizability contributions from mode   5       0.0000000       0.0000000       0.0000000
 Dipole derivatives wrt mode   6: -1.31339D+00  1.15247D+00  5.48371D-01
 Vibrational polarizability contributions from mode   6       0.3638899       0.2801804       0.0634353
 Vibrational hyperpolarizability contributions from mode   6       0.0000000       0.0000000       0.0000000
 Dipole derivatives wrt mode   7: -9.77688D+00  4.27452D+00  1.70894D+00
 Vibrational polarizability contributions from mode   7      17.8923512       3.4201178       0.5466614
[...]
     42  0.231160D-04  0.120993D-03  0.488257D-03  0.406930D-03 -0.234149D-03
               36            37            38            39            40
     36  0.168018D+00
     37 -0.127343D-01  0.173308D+00
     38 -0.764343D-03 -0.192685D-02  0.527660D+00
     39  0.646210D-04 -0.574085D-04 -0.194509D+00  0.210765D+00
     40  0.719118D-04  0.357709D-03 -0.137820D+00 -0.158152D-01  0.152382D+00
     41  0.254285D-03  0.406051D-03 -0.104319D+00  0.118974D-01 -0.808735D-02
     42 -0.325602D-03  0.158848D-04  0.103963D-01  0.861976D-03  0.377970D-03
               41            42
     41  0.424073D+00
     42 -0.309339D+00  0.297678D+00
 Final forces over variables, Energy=-2.33077365D+02:
 -9.34499549D-07 3.71254066D-06 3.58674270D-06 6.61704036D-06
 -5.12955359D-06-1.40460431D-06-2.34480089D-06-4.48540720D-06
 -3.61958549D-06 2.87713223D-06-5.56884044D-07 3.13502288D-06
  1.78214627D-06-3.23528996D-06-6.73708671D-06-1.26244074D-06
 -2.41433638D-06-1.50874371D-06-2.01527963D-06-3.65488700D-07
 -2.96257749D-06 1.19506808D-06-1.69922079D-06 3.75077353D-06
  1.41755822D-06 2.67093787D-06 1.07822205D-05-8.51383992D-07
  1.03271467D-06-1.50754809D-06-4.08674578D-06 9.66430972D-07
  6.71167442D-06-6.92445208D-07-1.55044318D-06-9.08540864D-07
 -2.30902858D-06-1.86190826D-06 6.68284434D-07 2.13648962D-06
 -6.72291105D-06 8.12397689D-06

 GradGradGradGradGradGradGradGradGradGradGradGradGradGradGradGradGradGrad
 Berny optimization.
 Search for a local minimum.
 Step number   1 out of a maximum of   2
 All quantities printed in internal units (Hartrees-Bohrs-Radians)
 Second derivative matrix not updated -- analytic derivatives used.
     Eigenvalues ---    0.00056   0.00086   0.00093   0.00492   0.00863
     Eigenvalues ---    0.01042   0.01261   0.03430   0.05039   0.05285
     Eigenvalues ---    0.05483   0.06010   0.06849   0.08157   0.10150
     Eigenvalues ---    0.10350   0.10563   0.10874   0.11346   0.15023
     Eigenvalues ---    0.17694   0.18038   0.21266   0.23171   0.39080
     Eigenvalues ---    0.42312   0.56636   0.62149   0.65738   0.67643
     Eigenvalues ---    0.72836   0.74031   0.76981   0.82653   0.83764
     Eigenvalues ---    0.98966
 Angle between quadratic step and forces=  83.62 degrees.
 Linear search not attempted -- first point.
 TrRot= -0.000002  0.000007 -0.000045  0.000001  0.000008  0.000001
 Variable       Old X    -DE/DX   Delta X   Delta X   Delta X     New X
                                 (Linear)    (Quad)   (Total)
    X1       -7.12077   0.00000   0.00000   0.00004   0.00002  -7.12074
    Y1        3.81975  -0.00001   0.00000   0.00003   0.00002   3.81977
    Z1       -0.62602   0.00000   0.00000  -0.00001   0.00000  -0.62602
    X2       -5.78856   0.00000   0.00000   0.00003   0.00001  -5.78855
    Y2        2.65388   0.00000   0.00000  -0.00027  -0.00028   2.65360
    Z2       -1.69475   0.00000   0.00000   0.00030   0.00031  -1.69444
    X3       -8.02034   0.00000   0.00000   0.00053   0.00050  -8.01984
    Y3        5.14378   0.00000   0.00000   0.00007   0.00006   5.14384
    Z3       -1.93859   0.00000   0.00000  -0.00032  -0.00029  -1.93888
    X4       -8.63450   0.00001   0.00000  -0.00027  -0.00027  -8.63477
    Y4        2.54742   0.00000   0.00000   0.00035   0.00034   2.54776
    Z4        0.03873   0.00000   0.00000  -0.00014  -0.00012   0.03862
    X5       -5.86654  -0.00001   0.00000  -0.00007  -0.00007  -5.86661
    Y5        5.17089   0.00000   0.00000  -0.00003  -0.00003   5.17086
    Z5        1.51239   0.00001   0.00000   0.00010   0.00011   1.51249
    X6       -7.23276   0.00000   0.00000  -0.00009  -0.00008  -7.23284
    Y6        7.28886   0.00000   0.00000  -0.00002  -0.00003   7.28884
    Z6        2.78941   0.00000   0.00000   0.00007   0.00009   2.78949
    X7       -8.87266   0.00000   0.00000  -0.00003  -0.00002  -8.87268
    Y7        6.58986   0.00000   0.00000  -0.00004  -0.00005   6.58981
    Z7        3.87258   0.00000   0.00000   0.00015   0.00018   3.87276
    X8       -5.99836   0.00000   0.00000  -0.00011  -0.00009  -5.99846
    Y8        8.27794   0.00000   0.00000   0.00011   0.00010   8.27804
    Z8        4.11257   0.00000   0.00000  -0.00001  -0.00001   4.11256
    X9       -7.97734   0.00000   0.00000  -0.00021  -0.00022  -7.97755
    Y9        8.65514   0.00000   0.00000  -0.00012  -0.00013   8.65501
    Z9        1.42385   0.00000   0.00000   0.00003   0.00005   1.42390
   X10       -3.73017   0.00000   0.00000   0.00001   0.00002  -3.73014
   Y10        3.91491   0.00000   0.00000   0.00000   0.00000   3.91491
   Z10        2.87825   0.00000   0.00000   0.00000  -0.00002   2.87823
   X11       -4.42446   0.00000   0.00000   0.00008   0.00011  -4.42435
   Y11        2.79027   0.00000   0.00000   0.00002   0.00002   2.79029
   Z11        4.48601   0.00000   0.00000   0.00004   0.00003   4.48605
   X12       -2.75772   0.00000   0.00000  -0.00006  -0.00005  -2.75777
   Y12        2.59187   0.00000   0.00000  -0.00001  -0.00001   2.59186
   Z12        1.60393   0.00000   0.00000  -0.00004  -0.00006   1.60387
   X13       -1.97935   0.00000   0.00000   0.00010   0.00012  -1.97923
   Y13        5.65084   0.00001   0.00000  -0.00002  -0.00002   5.65082
   Z13        3.99011  -0.00001   0.00000  -0.00011  -0.00014   3.98997
   X14       -1.38736   0.00000   0.00000   0.00001   0.00002  -1.38735
   Y14        6.73294   0.00000   0.00000   0.00001   0.00001   6.73296
   Z14        2.65096   0.00001   0.00000  -0.00010  -0.00013   2.65082
         Item               Value     Threshold  Converged?
 Maximum Force            0.000011     0.000450     YES
 RMS     Force            0.000004     0.000300     YES
 Maximum Displacement     0.000500     0.001800     YES
 RMS     Displacement     0.000150     0.001200     YES
 Predicted change in Energy=-1.013460D-09
 Optimization completed.
    -- Stationary point found.
 GradGradGradGradGradGradGradGradGradGradGradGradGradGradGradGradGradGrad


 Test job not archived.
 1\1\GINC-NODE31\Freq\UB3LYP\CBSB7\C4H9O1(2)\NYEE\10-Jun-2013\0\\# freq
  nosymm b3lyp/cbsb7 iop(7/33=1)\\Title Card Required\\0,2\C,-3.768148,
 2.021324,-0.331278\H,-3.063176,1.404375,-0.896823\H,-4.244179,2.721973
 ,-1.025858\H,-4.569179,1.348038,0.020497\C,-3.104439,2.736318,0.800321
 \C,-3.827412,3.857101,1.476091\H,-4.695212,3.487205,2.04928\H,-3.17419
 8,4.380496,2.176278\H,-4.221424,4.580101,0.753467\C,-1.97392,2.071682,
 1.523105\H,-2.341324,1.476549,2.373896\H,-1.459322,1.371556,0.848765\O
 ,-1.047426,2.990297,2.111473\H,-0.734161,3.562921,1.402825\\Version=AM
 64L-G03RevD.01\HF=-233.0773655\S2=0.753948\S2-1=0.\S2A=0.750012\RMSD=8
 .806e-09\RMSF=3.709e-06\ZeroPoint=0.1217974\Thermal=0.1289661\Dipole=-
 0.2776055,-0.0329569,-0.5958824\DipoleDeriv=0.0764748,0.0279104,-0.086
 7358,0.0532305,0.0761098,-0.0756578,-0.0262039,-0.0454197,0.0707318,-0
 .0362133,0.0950085,0.0951695,0.065125,-0.0154528,-0.0904531,0.0455024,
 -0.0770113,-0.0058139,0.0177106,0.0466126,-0.0792471,0.0665294,-0.0359
 998,0.110696,-0.0816851,0.0560163,-0.0433254,-0.0858071,-0.1315961,0.0
 039674,-0.1281251,-0.044551,-0.0086115,0.0674232,0.0490332,-0.0064324,
 -0.084788,-0.1451652,0.0841657,-0.0662919,0.0095472,0.1868268,0.095058
 9,0.1304966,0.0452639,0.0548868,0.0951803,-0.0456401,0.0275921,0.03486
 02,-0.079821,-0.0894961,-0.1090649,0.0345639,-0.1048719,-0.0053177,0.1
 212322,-0.0747964,-0.0041761,0.0539661,0.1156006,0.001386,-0.0096771,0
 .0357728,-0.086021,-0.0707835,-0.0454543,0.0210608,-0.0623665,-0.04148
 67,-0.0682589,-0.0043079,0.0240302,0.0674715,-0.03833,0.0823251,-0.047
 7451,0.0719369,-0.05647,0.1140155,-0.0461778,0.6350335,0.1724071,0.144
 0421,0.175387,0.4989607,0.0591621,0.0966235,0.0471597,0.403711,-0.0312
 44,-0.0572238,0.0401714,-0.0416276,-0.0315096,0.0770596,-0.0159531,0.1
 27632,-0.1202254,-0.0418914,0.0662268,0.0535035,0.0539092,-0.1062469,-
 0.1027195,0.0538826,-0.1497105,-0.0718832,-0.8216152,-0.1296027,-0.224
 6533,-0.1089427,-0.5831377,-0.1799859,-0.2171783,-0.1610129,-0.3744848
 ,0.3625222,-0.0158905,0.0031381,-0.0588603,0.2282802,0.0399679,0.05438
 2,0.0847388,0.1280571\Polar=53.5426587,-1.5342946,51.1074606,3.9462702
 ,3.6076968,50.0232423\PG=C01 [X(C4H9O1)]\NImag=0\\0.50730237,-0.057300
 02,0.50949325,-0.01049158,-0.00529521,0.49817773,-0.15620167,0.0962240
 1,0.08455049,0.16996145,0.09584941,-0.12456812,-0.07193298,-0.10293361
 ,0.13604013,0.08384401,-0.07257599,-0.11505384,-0.09237071,0.08365178,
 0.12265502,-0.08850835,0.07487528,-0.06617805,-0.00872196,0.01265810,-
 0.01373286,0.09844688,0.07437389,-0.15324284,0.10175407,0.00532613,-0.
 01107448,0.01049341,-0.07753861,0.16699398,-0.06720675,0.10327217,-0.1
 4677944,0.00645118,-0.01121350,0.01196970,0.07819792,-0.11270662,0.158
 59967,-0.16210738,-0.09982921,0.06336968,-0.01621972,-0.01293637,0.008
 34927,0.00965540,0.00803787,-0.00387552,0.18134149,-0.10070862,-0.1269
 6313,0.05197767,0.01308365,0.01139940,-0.00575465,-0.01586359,-0.01437
 596,0.00923720,0.11604239,0.14049129,0.05361376,0.04325711,-0.06878549
 ,0.01146160,0.01006489,-0.00616929,0.01494782,0.01277954,-0.00771310,-
 0.06166011,-0.05167276,0.07603181,-0.10020911,-0.01422570,-0.05254114,
 0.01120477,0.00885577,0.01576564,-0.01113205,-0.00774583,-0.01437371,-
 0.01386017,-0.01346889,-0.02033391,0.39583560,-0.01459719,-0.10288288,
 -0.05724329,-0.00895697,-0.01242287,-0.01424968,0.00766472,0.01198242,
 0.01329199,-0.01101359,-0.01091163,-0.01660266,-0.11662084,0.39333323,
 -0.05400346,-0.05857316,-0.15014412,-0.00737665,-0.00872130,-0.0115401
 9,-0.01117655,-0.01092008,-0.01475849,-0.00445609,-0.00265437,0.008047
 86,0.12116089,0.12751334,0.39963474,0.01176826,-0.01100889,-0.00789362
 ,-0.00098378,-0.00225378,-0.00345516,0.00009916,-0.00024530,0.00013049
 ,0.00000811,0.00019590,0.00019721,-0.10356053,0.05674897,0.01507826,0.
 50439318,0.00943446,-0.01161934,-0.01105690,-0.00123374,-0.00017086,-0
 .00080947,0.00022812,0.00117296,0.00136627,0.00082348,0.00133707,0.001
 29286,0.05187800,-0.14587202,-0.05160073,0.01449279,0.49921729,0.01219
 236,-0.01751848,-0.01147607,-0.00191469,-0.00285255,-0.00291118,0.0011
 5351,-0.00032098,0.00094810,0.00010376,0.00010174,0.00076967,0.0156624
 4,-0.05529220,-0.10313743,0.06044290,-0.00628329,0.52110564,0.00021927
 ,-0.00030244,-0.00107519,0.00002354,0.00032276,0.00001048,0.00012539,-
 0.00005204,0.00016162,0.00060783,0.00069169,0.00071527,-0.01623197,0.0
 0420947,0.01122261,-0.18390074,-0.07173114,0.09157824,0.20588786,-0.00
 039771,0.00095348,0.00105985,-0.00009597,0.00000698,0.00030586,-0.0000
 1970,-0.00025598,-0.00008597,-0.00060414,-0.00051243,0.00005043,0.0221
 3165,0.00771465,-0.01415287,-0.06125287,-0.07103701,0.03837529,0.07025
 042,0.07831245,-0.00056325,0.00010438,0.00140584,-0.00017193,-0.000195
 22,0.00014071,0.00018960,0.00015162,-0.00026288,-0.00046323,-0.0007497
 7,-0.00053229,0.01379232,-0.00167382,-0.00916918,0.09327095,0.04544142
 ,-0.10363867,-0.10755788,-0.04590778,0.11326915,-0.00152523,0.00257125
 ,0.00093634,0.00022082,0.00061880,0.00068580,-0.00015813,-0.00010423,0
 .00000253,0.00005690,0.00020363,0.00009909,0.01259686,0.00635514,0.012
 15483,-0.14304293,-0.07659738,-0.10495126,-0.01536709,-0.01115818,-0.0
 1567412,0.15561694,0.00379054,-0.00271480,-0.00103960,-0.00054103,-0.0
 0050436,-0.00115957,-0.00005011,0.00025692,-0.00006715,-0.00001790,0.0
 0016743,0.00026879,-0.01480564,-0.01118629,-0.01672611,-0.07415552,-0.
 10826696,-0.07795223,-0.00755895,-0.00603502,-0.00697148,0.08202264,0.
 11566815,0.00182048,-0.00236566,-0.00007561,-0.00039626,-0.00069488,-0
 .00033643,0.00028741,0.00009943,0.00051629,-0.00019673,-0.00032456,-0.
 00012150,-0.00735712,-0.00786618,-0.01175814,-0.10333105,-0.07913671,-
 0.15450146,0.01071218,0.00855101,0.01169242,0.11133378,0.09044477,0.16
 801784,-0.00007281,-0.00111574,-0.00020774,-0.00007533,-0.00020664,0.0
 0002057,0.00052647,0.00004972,0.00037247,0.00015990,-0.00017560,-0.000
 00723,-0.01060025,0.01262639,-0.00902912,-0.07259252,0.05669909,-0.063
 98712,0.00846444,-0.01699673,0.01756987,-0.00660566,0.01349260,-0.0116
 3696,0.08162937,0.00027514,0.00080848,0.00131326,-0.00010813,0.0005031
 8,-0.00013336,-0.00051648,0.00003754,-0.00091983,-0.00014197,-0.000075
 62,-0.00003638,0.01222761,-0.01520799,0.01394585,0.05740388,-0.1546975
 6,0.11081397,0.00303784,-0.00845283,0.00951926,-0.00447646,0.01194035,
 -0.01055793,-0.06752508,0.16787822,0.00025712,-0.00029242,0.00118945,0
 .00008533,0.00012482,0.00022704,-0.00011145,0.00044501,0.00006035,0.00
 007383,0.00013821,-0.00022711,0.00551538,-0.01048695,0.01179442,-0.062
 91248,0.10913162,-0.15996685,-0.00554146,0.01129402,-0.01244678,-0.004
 66726,0.01309399,-0.01273429,0.06548288,-0.12156509,0.17330837,-0.0062
 2988,0.00640964,-0.01370183,0.00021896,0.00082155,0.00192025,0.0000175
 8,-0.00091514,0.00121501,0.00149733,0.00102137,0.00156591,-0.13658803,
 0.05278276,-0.04392901,-0.01032912,0.01631450,-0.00612015,0.00094031,-
 0.00159573,-0.00105042,0.00016807,-0.00221649,-0.00134956,-0.00012561,
 -0.00069725,0.00136982,0.45916053,-0.00986146,0.01266138,-0.01090442,-
 0.00072026,-0.00043338,-0.00143923,-0.00134562,-0.00202139,-0.00292806
 ,-0.00047448,-0.00108229,0.00022817,0.05878321,-0.10615446,0.01696167,
 0.01691090,-0.01128026,0.01252334,-0.00041711,-0.00020681,0.00006012,0
 .00078843,-0.00115500,-0.00014850,0.00240684,-0.00336630,-0.00244353,-
 0.03224184,0.50154170,-0.01491705,0.00609247,-0.00976867,-0.00093884,0
 .00143090,0.00018151,-0.00215157,-0.00146827,-0.00201984,0.00000820,0.
 00076566,-0.00024106,-0.04451815,0.01611404,-0.09919788,0.01012044,-0.
 00746470,0.01327883,0.00102956,-0.00042704,-0.00094941,-0.00050760,-0.
 00125279,-0.00076434,0.00178888,-0.00339868,-0.00192685,-0.06039346,0.
 00969474,0.52766026,-0.00035367,-0.00071107,0.00166687,-0.00008885,0.0
 0001369,-0.00024403,-0.00013872,-0.00004420,-0.00000202,-0.00061977,-0
 .00052469,-0.00035875,0.00755847,0.01439282,-0.02093783,0.00022057,-0.
 00179988,0.00070818,-0.00055905,0.00021378,0.00049744,-0.00010907,0.00
 033953,0.00005305,0.00007601,-0.00021006,0.00003151,-0.06770603,-0.029
 93060,0.05450177,0.08345043,0.00009481,-0.00140189,0.00028686,-0.00001
 100,0.00014606,0.00004003,0.00041287,0.00014755,0.00047796,0.00019190,
 0.00024187,0.00027195,0.00153694,-0.00684024,0.01489712,0.00013233,0.0
 0132452,-0.00066310,0.00058422,-0.00041490,-0.00012446,-0.00017478,-0.
 00024513,0.00013935,0.00001253,0.00005953,-0.00008504,-0.03886201,-0.1
 0569057,0.09006770,0.05179833,0.12642594,-0.00029052,0.00039022,0.0007
 8830,0.00016011,0.00015795,-0.00002956,-0.00053909,-0.00000590,-0.0002
 3390,-0.00070163,-0.00049913,-0.00055134,-0.00326521,0.01100997,-0.014
 36600,-0.00039938,-0.00138810,0.00072044,-0.00082246,0.00075842,0.0004
 6463,0.00001652,0.00026113,0.00006462,-0.00020172,0.00017732,-0.000057
 41,0.07273618,0.09825047,-0.19450918,-0.06420229,-0.10527170,0.2107652
 9,0.00017093,0.00086490,0.00138562,0.00019725,-0.00058748,-0.00087141,
 0.00028942,-0.00027987,-0.00012233,-0.00006643,-0.00004905,-0.00005413
 ,-0.01102882,0.01615032,0.01483702,-0.00222679,0.00153066,-0.00407076,
 -0.00002155,-0.00016458,0.00008532,0.00010185,-0.00024423,-0.00003424,
 -0.00067798,0.00098916,0.00061072,-0.11266011,0.07269811,0.07598616,-0
 .00452041,0.00689819,0.00746988,0.12029949,-0.00122475,-0.00005379,-0.
 00069716,-0.00004889,0.00089013,0.00091450,-0.00049625,0.00018715,0.00
 012235,-0.00011230,0.00023684,0.00001774,0.01223727,-0.01260918,-0.008
 46278,0.00197984,0.00079185,0.00158016,0.00044873,-0.00027015,-0.00026
 505,-0.00057219,0.00028802,0.00004254,0.00036865,-0.00032442,-0.000258
 00,0.07351602,-0.13453312,-0.08409554,-0.00722691,0.01127498,0.0093628
 3,-0.07674306,0.15494713,-0.00060726,0.00097360,0.00090676,0.00033067,
 -0.00000514,0.00033132,-0.00003185,0.00017236,0.00025655,0.00022157,0.
 00004797,-0.00008287,-0.00916487,0.01037275,0.00837192,-0.00202233,0.0
 0135534,-0.00132178,-0.00016284,0.00022388,0.00007180,-0.00001664,0.00
 016522,0.00007191,-0.00037438,0.00043740,0.00035771,0.07628889,-0.0874
 4087,-0.13782022,0.01472669,-0.01419482,-0.01581525,-0.07404957,0.1018
 7595,0.15238152,-0.00457454,0.00392091,0.00039358,0.00055903,-0.000365
 62,-0.00009027,-0.00063066,-0.00091250,-0.00115019,-0.00075592,-0.0007
 2507,-0.00041720,-0.02537148,-0.02011373,-0.02480195,0.00082941,-0.000
 62751,-0.00052836,-0.00056364,-0.00033942,-0.00000922,-0.00107145,-0.0
 0040387,-0.00061847,-0.00016051,-0.00023167,-0.00032571,-0.11547076,-0
 .05641144,-0.04083219,-0.01416531,-0.01845187,-0.00726737,0.00873336,-
 0.00299190,-0.00473089,0.21861742,0.00001964,-0.00007855,0.00126715,0.
 00002017,0.00035238,0.00092105,-0.00014340,0.00014208,0.00007206,-0.00
 001196,0.00008077,0.00013131,-0.00135526,0.00796938,-0.00089885,0.0008
 6239,-0.00072300,-0.00299440,0.00060553,0.00033330,0.00072640,0.000318
 98,0.00162167,0.00235674,0.00027337,0.00094030,0.00091689,-0.06281045,
 -0.12878819,-0.04766973,-0.02306248,-0.02189325,-0.01008675,-0.0219743
 0,-0.02067779,-0.01502029,0.20376865,0.34466885,-0.00356759,0.00246515
 ,0.00009248,0.00015174,0.00028886,0.00052849,-0.00083409,-0.00039256,-
 0.00060611,-0.00094156,-0.00076627,-0.00054630,-0.02077584,-0.01422073
 ,-0.01426576,0.00074086,-0.00110689,-0.00027617,-0.00025235,0.00020505
 ,0.00018879,0.00013470,0.00114956,0.00025428,0.00025204,0.00048782,0.0
 0040605,-0.01701840,-0.01643280,-0.10431947,0.01560100,0.01562823,0.01
 189737,-0.02049360,-0.01911848,-0.00808735,-0.03988062,-0.15748337,0.4
 2407318,0.00032180,-0.00037292,-0.00021343,-0.00009452,0.00014342,0.00
 016841,0.00012956,0.00005009,0.00019930,0.00030243,0.00027688,0.000230
 66,0.00138670,0.00037172,0.00125705,-0.00068230,0.00058855,-0.00026904
 ,0.00037539,0.00002916,0.00008454,-0.00088188,0.00034842,0.00071348,0.
 00005445,-0.00002653,0.00013176,-0.01289326,-0.02018470,0.02082385,-0.
 00304460,-0.00416248,-0.00269303,0.00140980,0.00086575,-0.00040720,-0.
 06597494,-0.09651089,0.08688371,0.07959135,0.00025184,-0.00039125,0.00
 051068,-0.00000436,-0.00016418,-0.00020467,0.00013467,0.00005006,0.000
 08111,0.00004627,-0.00003360,-0.00005099,0.00057170,0.00308787,-0.0006
 0773,0.00018935,-0.00017667,0.00048273,-0.00008898,-0.00013573,-0.0001
 1561,0.00020434,0.00016503,-0.00053942,0.00009059,-0.00004287,-0.00001
 354,-0.01152693,-0.01949129,0.02161123,-0.00324826,-0.00313448,-0.0031
 1672,0.00091121,-0.00014764,0.00103666,-0.10611499,-0.18394796,0.18929
 641,0.11858354,0.20436271,-0.00008027,0.00006583,-0.00047732,-0.000022
 04,-0.00010363,0.00000671,-0.00002077,-0.00008103,0.00002312,0.0001685
 5,0.00015306,0.00012099,0.00043329,-0.00066660,0.00048826,0.00003290,0
 .00025927,0.00040693,-0.00001779,-0.00025015,-0.00023415,0.00045329,-0
 .00021454,-0.00032560,-0.00004244,-0.00008361,0.00001588,-0.01153324,-
 0.01598109,0.01039633,-0.00204159,-0.00147008,0.00086198,-0.00067870,-
 0.00101908,0.00037797,0.12025887,0.22776180,-0.30933949,-0.10691007,-0
 .20837014,0.29767840\\0.00000093,0.00000674,-0.00000103,-0.00000371,0.
 00000126,0.00000151,-0.00000359,0.00000241,0.00000409,-0.00000662,0.00
 000151,-0.00000097,0.00000513,0.00000202,-0.00000671,0.00000140,0.0000
 0037,0.00000069,0.00000234,0.00000296,0.00000155,0.00000449,-0.0000012
 0,0.00000091,0.00000362,0.00000170,0.00000231,-0.00000288,-0.00000375,
 0.00000186,0.00000056,-0.00000142,-0.00000067,-0.00000314,-0.00000267,
 -0.00000214,-0.00000178,-0.00001078,0.00000672,0.00000324,0.00000085,-
 0.00000812\\\@


 IF YOU GIVE EVERYONE A PIECE OF YOUR MIND,
 PRETTY SOON IT WILL BE ALL GONE.
 Job cpu time:  0 days  0 hours 37 minutes 24.4 seconds.
 File lengths (MBytes):  RWF=     70 Int=      0 D2E=      0 Chk=      7 Scr=      1
 Normal termination of Gaussian 03 at Mon Jun 10 10:05:23 2013.
