 Entering Gaussian System, Link 0=g03
 Input=ts11-freq.gjf
 Output=ts11-freq.log
 Initial command:
 /opt/g03/l1.exe /scratch/shamel/Gau-29008.inp -scrdir=/scratch/shamel/
 Entering Link 1 = /opt/g03/l1.exe PID=     29010.
  
 Copyright (c) 1988,1990,1992,1993,1995,1998,2003,2004, Gaussian, Inc.
                  All Rights Reserved.
  
 This is the Gaussian(R) 03 program.  It is based on the
 the Gaussian(R) 98 system (copyright 1998, Gaussian, Inc.),
 the Gaussian(R) 94 system (copyright 1995, Gaussian, Inc.),
 the Gaussian 92(TM) system (copyright 1992, Gaussian, Inc.),
 the Gaussian 90(TM) system (copyright 1990, Gaussian, Inc.),
 the Gaussian 88(TM) system (copyright 1988, Gaussian, Inc.),
 the Gaussian 86(TM) system (copyright 1986, Carnegie Mellon
 University), and the Gaussian 82(TM) system (copyright 1983,
 Carnegie Mellon University). Gaussian is a federally registered
 trademark of Gaussian, Inc.
  
 This software contains proprietary and confidential information,
 including trade secrets, belonging to Gaussian, Inc.
  
 This software is provided under written license and may be
 used, copied, transmitted, or stored only in accord with that
 written license.
  
 The following legend is applicable only to US Government
 contracts under FAR:
  
                    RESTRICTED RIGHTS LEGEND
  
 Use, reproduction and disclosure by the US Government is
 subject to restrictions as set forth in subparagraphs (a)
 and (c) of the Commercial Computer Software - Restricted
 Rights clause in FAR 52.227-19.
  
 Gaussian, Inc.
 340 Quinnipiac St., Bldg. 40, Wallingford CT 06492
  
  
 ---------------------------------------------------------------
 Warning -- This program may not be used in any manner that
 competes with the business of Gaussian, Inc. or will provide
 assistance to any competitor of Gaussian, Inc.  The licensee
 of this program is prohibited from giving any competitor of
 Gaussian, Inc. access to this program.  By using this program,
 the user acknowledges that Gaussian, Inc. is engaged in the
 business of creating and licensing software in the field of
 computational chemistry and represents and warrants to the
 licensee that it is not a competitor of Gaussian, Inc. and that
 it will not use this program in any manner prohibited above.
 ---------------------------------------------------------------
  

 Cite this work as:
 Gaussian 03, Revision D.01,
 M. J. Frisch, G. W. Trucks, H. B. Schlegel, G. E. Scuseria, 
 M. A. Robb, J. R. Cheeseman, J. A. Montgomery, Jr., T. Vreven, 
 K. N. Kudin, J. C. Burant, J. M. Millam, S. S. Iyengar, J. Tomasi, 
 V. Barone, B. Mennucci, M. Cossi, G. Scalmani, N. Rega, 
 G. A. Petersson, H. Nakatsuji, M. Hada, M. Ehara, K. Toyota, 
 R. Fukuda, J. Hasegawa, M. Ishida, T. Nakajima, Y. Honda, O. Kitao, 
 H. Nakai, M. Klene, X. Li, J. E. Knox, H. P. Hratchian, J. B. Cross, 
 V. Bakken, C. Adamo, J. Jaramillo, R. Gomperts, R. E. Stratmann, 
 O. Yazyev, A. J. Austin, R. Cammi, C. Pomelli, J. W. Ochterski, 
 P. Y. Ayala, K. Morokuma, G. A. Voth, P. Salvador, J. J. Dannenberg, 
 V. G. Zakrzewski, S. Dapprich, A. D. Daniels, M. C. Strain, 
 O. Farkas, D. K. Malick, A. D. Rabuck, K. Raghavachari, 
 J. B. Foresman, J. V. Ortiz, Q. Cui, A. G. Baboul, S. Clifford, 
 J. Cioslowski, B. B. Stefanov, G. Liu, A. Liashenko, P. Piskorz, 
 I. Komaromi, R. L. Martin, D. J. Fox, T. Keith, M. A. Al-Laham, 
 C. Y. Peng, A. Nanayakkara, M. Challacombe, P. M. W. Gill, 
 B. Johnson, W. Chen, M. W. Wong, C. Gonzalez, and J. A. Pople, 
 Gaussian, Inc., Wallingford CT, 2004.
 
 ******************************************
 Gaussian 03:  AM64L-G03RevD.01 13-Oct-2005
                18-Jun-2013 
 ******************************************
 %chk=ts11-freq.chk
 %mem=1000mb
 %nproc=8
 Will use up to    8 processors via shared memory.
 -------------------------------------
 # freq nosymm b3lyp/cbsb7 iop(7/33=1)
 -------------------------------------
 1/10=4,30=1,38=1/1,3;
 2/15=1,17=6,18=5,40=1/2;
 3/5=4,6=6,7=700,11=2,16=1,25=1,30=1,74=-5/1,2,3;
 4//1;
 5/5=2,38=5/2;
 8/6=4,10=90,11=11/1;
 11/6=1,8=1,9=11,15=111,16=1,31=1/1,2,10;
 10/6=1,31=1/2;
 6/7=2,8=2,9=2,10=2,18=1,28=1/1;
 7/8=1,10=1,25=1,30=1,33=1/1,2,3,16;
 1/10=4,30=1/3;
 99//99;
 -------------------
 Title Card Required
 -------------------
 Symbolic Z-matrix:
 Charge =  0 Multiplicity = 2
 C                    -1.43217   0.09195  -0.03359 
 H                    -2.25332   0.18188  -0.73743 
 H                    -0.85828  -0.82402  -0.10292 
 C                    -1.47933   0.78899   1.16491 
 C                    -0.51986   0.51289   2.27763 
 H                     0.06358  -0.39213   2.10512 
 H                     0.17868   1.35163   2.3982 
 H                    -1.0473    0.41208   3.23423 
 C                    -2.23675   2.09312   1.2007 
 H                    -3.20802   1.99728   0.6994 
 H                    -2.41186   2.42746   2.22442 
 O                    -1.45181   3.12837   0.57552 
 H                    -1.3375    2.8391   -0.34282 
 O                    -0.35097   1.20372  -1.15212 
 O                     0.87408   1.4797   -0.53737 
 H                     0.67799   2.28336  -0.02475 
 

 GradGradGradGradGradGradGradGradGradGradGradGradGradGradGradGradGradGrad
 Berny optimization.
 Initialization pass.
 Trust Radius=3.00D-01 FncErr=1.00D-07 GrdErr=1.00D-07
 Number of steps in this run=   2 maximum allowed number of steps=   2.
 GradGradGradGradGradGradGradGradGradGradGradGradGradGradGradGradGradGrad

                          Input orientation:                          
 ---------------------------------------------------------------------
 Center     Atomic     Atomic              Coordinates (Angstroms)
 Number     Number      Type              X           Y           Z
 ---------------------------------------------------------------------
    1          6             0       -1.432172    0.091948   -0.033586
    2          1             0       -2.253320    0.181877   -0.737427
    3          1             0       -0.858279   -0.824017   -0.102917
    4          6             0       -1.479328    0.788987    1.164914
    5          6             0       -0.519864    0.512891    2.277627
    6          1             0        0.063575   -0.392128    2.105120
    7          1             0        0.178684    1.351630    2.398202
    8          1             0       -1.047296    0.412082    3.234232
    9          6             0       -2.236751    2.093121    1.200697
   10          1             0       -3.208017    1.997275    0.699401
   11          1             0       -2.411856    2.427461    2.224415
   12          8             0       -1.451813    3.128368    0.575517
   13          1             0       -1.337500    2.839102   -0.342823
   14          8             0       -0.350969    1.203717   -1.152124
   15          8             0        0.874079    1.479699   -0.537372
   16          1             0        0.677990    2.283358   -0.024752
 ---------------------------------------------------------------------
                    Distance matrix (angstroms):
                    1          2          3          4          5
     1  C    0.000000
     2  H    1.085248   0.000000
     3  H    1.083121   1.833184   0.000000
     4  C    1.387260   2.141623   2.143567   0.000000
     5  C    2.520160   3.493564   2.751152   1.494968   0.000000
     6  H    2.654365   3.711813   2.431413   2.158604   1.090513
     7  H    3.177302   4.137044   3.473374   2.141628   1.098176
     8  H    3.305942   4.157110   3.563738   2.147274   1.097014
     9  C    2.485054   2.722031   3.479840   1.508554   2.569943
    10  H    2.705765   2.504314   3.758280   2.159868   3.452587
    11  H    3.393077   3.720254   4.289777   2.162579   2.692219
    12  O    3.096972   3.323860   4.053875   2.412644   3.256751
    13  H    2.766125   2.838183   3.702114   2.548795   3.598131
    14  O    1.912108   2.198879   2.338783   2.610337   3.502707
    15  O    2.738329   3.391900   2.914948   2.985529   3.286642
    16  H    3.042226   3.676507   3.467277   2.881401   3.141712
                    6          7          8          9         10
     6  H    0.000000
     7  H    1.771959   0.000000
     8  H    1.776424   1.756338   0.000000
     9  C    3.505131   2.796096   2.894125   0.000000
    10  H    4.288194   3.843504   3.688756   1.097197   0.000000
    11  H    3.753941   2.810429   2.635053   1.091074   1.773302
    12  O    4.126739   3.022830   3.822383   1.441775   2.092599
    13  H    4.289089   3.467651   4.332432   1.935870   2.300812
    14  O    3.650782   3.592663   4.511283   3.143721   3.495798
    15  O    3.338176   3.019532   4.365373   3.615859   4.296627
    16  H    3.474491   2.643507   4.135125   3.167591   3.963243
                   11         12         13         14         15
    11  H    0.000000
    12  O    2.032687   0.000000
    13  H    2.813254   0.969583   0.000000
    14  O    4.140751   2.810851   2.074294   0.000000
    15  O    4.395804   3.060458   2.603249   1.398152   0.000000
    16  H    3.824482   2.368634   2.114763   1.869585   0.973190
                   16
    16  H    0.000000
 Symmetry turned off by external request.
 Stoichiometry    C4H9O3(2)
 Framework group  C1[X(C4H9O3)]
 Deg. of freedom    42
 Full point group                 C1
 Rotational constants (GHZ):      2.9322648      2.1997689      1.7982718
 Standard basis: CBSB7 (5D, 7F)
 Integral buffers will be    131072 words long.
 Raffenetti 2 integral format.
 Two-electron integral symmetry is turned off.
   180 basis functions,   296 primitive gaussians,   187 cartesian basis functions
    29 alpha electrons       28 beta electrons
       nuclear repulsion energy       328.8446090956 Hartrees.
 NAtoms=   16 NActive=   16 NUniq=   16 SFac= 7.50D-01 NAtFMM=   80 NAOKFM=F Big=F
 One-electron integrals computed using PRISM.
 NBasis=   180 RedAO= T  NBF=   180
 NBsUse=   180 1.00D-06 NBFU=   180
 Harris functional with IExCor=  402 diagonalized for initial guess.
 ExpMin= 1.03D-01 ExpMax= 8.59D+03 ExpMxC= 1.30D+03 IAcc=1 IRadAn=         1 AccDes= 1.00D-06
 HarFok:  IExCor= 402 AccDes= 1.00D-06 IRadAn=         1 IDoV=1
 ScaDFX=  1.000000  1.000000  1.000000  1.000000
 <S**2> of initial guess= 0.7500
 Requested convergence on RMS density matrix=1.00D-08 within 128 cycles.
 Requested convergence on MAX density matrix=1.00D-06.
 Requested convergence on             energy=1.00D-06.
 No special actions if energy rises.
 Integral accuracy reduced to 1.0D-05 until final iterations.
 Initial convergence to 1.0D-05 achieved.  Increase integral accuracy.
 SCF Done:  E(UB+HF-LYP) =  -383.446004704     A.U. after   19 cycles
             Convg  =    0.9068D-08             -V/T =  2.0033
             S**2   =   0.7783
 Annihilation of the first spin contaminant:
 S**2 before annihilation     0.7783,   after     0.7501
 Range of M.O.s used for correlation:     1   180
 NBasis=   180 NAE=    29 NBE=    28 NFC=     0 NFV=     0
 NROrb=    180 NOA=    29 NOB=    28 NVA=   151 NVB=   152
 Symmetrizing basis deriv contribution to polar:
 IMax=3 JMax=2 DiffMx= 0.00D+00
 G2DrvN: will do   17 centers at a time, making    1 passes doing MaxLOS=2.
 FoFDir/FoFCou used for L=0 through L=2.
 DoAtom=TTTTTTTTTTTTTTTT
          Differentiating once with respect to electric field.
                with respect to dipole field.
          Differentiating once with respect to nuclear coordinates.
 Symmetry not used in FoFDir.
 MinBra= 0 MaxBra= 2 Meth= 1.
 IRaf=       0 NMat=  51 IRICut=      51 DoRegI=T DoRafI=T ISym2E= 0 JSym2E=0.
          There are  51 degrees of freedom in the 1st order CPHF.
    48 vectors were produced by pass  0.
 AX will form  48 AO Fock derivatives at one time.
    48 vectors were produced by pass  1.
    48 vectors were produced by pass  2.
    48 vectors were produced by pass  3.
    48 vectors were produced by pass  4.
    48 vectors were produced by pass  5.
    31 vectors were produced by pass  6.
     3 vectors were produced by pass  7.
     3 vectors were produced by pass  8.
 Inv2:  IOpt= 1 Iter= 1 AM= 2.40D-15 Conv= 1.00D-12.
 Inverted reduced A of dimension  325 with in-core refinement.
 Isotropic polarizability for W=    0.000000       65.92 Bohr**3.
 End of Minotr Frequency-dependent properties file   721 does not exist.

 **********************************************************************

            Population analysis using the SCF density.

 **********************************************************************

 Alpha  occ. eigenvalues --  -19.17902 -19.17886 -19.12406 -10.22961 -10.20942
 Alpha  occ. eigenvalues --  -10.20596 -10.18120  -1.12706  -1.02825  -0.86188
 Alpha  occ. eigenvalues --   -0.82319  -0.71009  -0.69417  -0.56880  -0.53491
 Alpha  occ. eigenvalues --   -0.50986  -0.47635  -0.47198  -0.45351  -0.43544
 Alpha  occ. eigenvalues --   -0.42386  -0.41725  -0.39606  -0.38491  -0.35554
 Alpha  occ. eigenvalues --   -0.29780  -0.29075  -0.28203  -0.22794
 Alpha virt. eigenvalues --   -0.00087   0.03330   0.04422   0.06264   0.07904
 Alpha virt. eigenvalues --    0.08623   0.09150   0.10529   0.11934   0.13904
 Alpha virt. eigenvalues --    0.15048   0.17571   0.21117   0.26203   0.28619
 Alpha virt. eigenvalues --    0.29149   0.31260   0.32828   0.36985   0.37636
 Alpha virt. eigenvalues --    0.40276   0.43028   0.43572   0.45395   0.46633
 Alpha virt. eigenvalues --    0.50575   0.52482   0.54309   0.54921   0.56729
 Alpha virt. eigenvalues --    0.57556   0.58248   0.60479   0.61741   0.64436
 Alpha virt. eigenvalues --    0.67057   0.67489   0.73476   0.76869   0.79982
 Alpha virt. eigenvalues --    0.80674   0.86527   0.86676   0.89471   0.93444
 Alpha virt. eigenvalues --    0.96194   0.96698   0.98172   1.04214   1.05381
 Alpha virt. eigenvalues --    1.10636   1.15199   1.23143   1.25706   1.27340
 Alpha virt. eigenvalues --    1.30689   1.33681   1.37797   1.38351   1.40207
 Alpha virt. eigenvalues --    1.43851   1.44390   1.44655   1.49719   1.50606
 Alpha virt. eigenvalues --    1.53235   1.55087   1.57992   1.58520   1.60695
 Alpha virt. eigenvalues --    1.61738   1.63213   1.64952   1.66816   1.71368
 Alpha virt. eigenvalues --    1.74348   1.76405   1.78615   1.85343   1.87723
 Alpha virt. eigenvalues --    1.94694   1.95761   1.99385   2.01618   2.03658
 Alpha virt. eigenvalues --    2.09595   2.11883   2.16122   2.18409   2.20707
 Alpha virt. eigenvalues --    2.29714   2.32183   2.33709   2.37797   2.40559
 Alpha virt. eigenvalues --    2.42977   2.45316   2.47244   2.49155   2.51821
 Alpha virt. eigenvalues --    2.52419   2.55257   2.58723   2.62199   2.63755
 Alpha virt. eigenvalues --    2.68347   2.70996   2.72736   2.75398   2.75977
 Alpha virt. eigenvalues --    2.80999   2.85674   2.90051   2.92713   2.93205
 Alpha virt. eigenvalues --    3.07768   3.10864   3.13673   3.17113   3.20207
 Alpha virt. eigenvalues --    3.25533   3.27256   3.32379   3.34332   3.56299
 Alpha virt. eigenvalues --    3.65027   3.70247   3.72779   3.76506   3.80295
 Alpha virt. eigenvalues --    3.80813   3.85821   3.93424   4.23552   4.29001
 Alpha virt. eigenvalues --    4.64358   4.78018   4.87092   4.90901   4.96574
 Alpha virt. eigenvalues --    5.24582   5.29047   5.58507   5.73660  23.66331
 Alpha virt. eigenvalues --   23.80247  23.91700  24.05129  49.74582  49.77514
 Alpha virt. eigenvalues --   49.87865
  Beta  occ. eigenvalues --  -19.17665 -19.16480 -19.12291 -10.23011 -10.21148
  Beta  occ. eigenvalues --  -10.19771 -10.18160  -1.11225  -1.02542  -0.84231
  Beta  occ. eigenvalues --   -0.80803  -0.70829  -0.69346  -0.56219  -0.52925
  Beta  occ. eigenvalues --   -0.50496  -0.47376  -0.46664  -0.43721  -0.42794
  Beta  occ. eigenvalues --   -0.41444  -0.39687  -0.39446  -0.37947  -0.35214
  Beta  occ. eigenvalues --   -0.28810  -0.27156  -0.26726
  Beta virt. eigenvalues --   -0.11484   0.01911   0.03598   0.04766   0.06472
  Beta virt. eigenvalues --    0.07965   0.08980   0.09298   0.10554   0.12143
  Beta virt. eigenvalues --    0.14315   0.15129   0.18403   0.21667   0.26570
  Beta virt. eigenvalues --    0.28698   0.29475   0.31556   0.32990   0.37136
  Beta virt. eigenvalues --    0.37722   0.40454   0.43199   0.44625   0.45685
  Beta virt. eigenvalues --    0.46743   0.50698   0.53492   0.55000   0.55442
  Beta virt. eigenvalues --    0.56960   0.57882   0.58590   0.60587   0.62072
  Beta virt. eigenvalues --    0.64888   0.67209   0.67798   0.73793   0.77959
  Beta virt. eigenvalues --    0.80186   0.80933   0.87040   0.87275   0.89774
  Beta virt. eigenvalues --    0.94468   0.96820   0.97151   0.98986   1.04845
  Beta virt. eigenvalues --    1.05799   1.11200   1.15344   1.23552   1.26086
  Beta virt. eigenvalues --    1.27682   1.30891   1.33839   1.38019   1.38761
  Beta virt. eigenvalues --    1.41088   1.43944   1.44693   1.44952   1.49861
  Beta virt. eigenvalues --    1.50901   1.53479   1.55494   1.58193   1.58802
  Beta virt. eigenvalues --    1.60878   1.62564   1.63805   1.65389   1.66961
  Beta virt. eigenvalues --    1.71770   1.74635   1.76747   1.79005   1.86005
  Beta virt. eigenvalues --    1.88315   1.94991   1.95973   1.99432   2.01893
  Beta virt. eigenvalues --    2.03820   2.09739   2.12627   2.16595   2.18838
  Beta virt. eigenvalues --    2.21206   2.29976   2.32809   2.33914   2.38073
  Beta virt. eigenvalues --    2.40910   2.43343   2.45818   2.47559   2.49618
  Beta virt. eigenvalues --    2.52229   2.53253   2.55745   2.59279   2.62881
  Beta virt. eigenvalues --    2.64049   2.68985   2.72123   2.72962   2.75657
  Beta virt. eigenvalues --    2.77196   2.81365   2.86027   2.90978   2.94071
  Beta virt. eigenvalues --    2.95715   3.08390   3.11750   3.14135   3.17527
  Beta virt. eigenvalues --    3.22074   3.26262   3.28992   3.33010   3.34707
  Beta virt. eigenvalues --    3.56499   3.65777   3.70329   3.72677   3.76810
  Beta virt. eigenvalues --    3.80552   3.81241   3.85883   3.93673   4.24315
  Beta virt. eigenvalues --    4.29771   4.64929   4.80701   4.87944   4.94850
  Beta virt. eigenvalues --    4.97121   5.24839   5.29383   5.58667   5.74386
  Beta virt. eigenvalues --   23.66718  23.80332  23.91685  24.05313  49.74910
  Beta virt. eigenvalues --   49.78821  49.87981
          Condensed to atoms (all electrons):
              1          2          3          4          5          6
     1  C    4.923040   0.402642   0.410274   0.448212  -0.074839  -0.005450
     2  H    0.402642   0.542634  -0.028594  -0.038260   0.007537   0.000110
     3  H    0.410274  -0.028594   0.523729  -0.035723  -0.008897   0.003854
     4  C    0.448212  -0.038260  -0.035723   5.418027   0.355550  -0.030947
     5  C   -0.074839   0.007537  -0.008897   0.355550   4.822975   0.407090
     6  H   -0.005450   0.000110   0.003854  -0.030947   0.407090   0.554501
     7  H   -0.004747  -0.000114   0.000415  -0.044664   0.395807  -0.026189
     8  H    0.004983  -0.000266   0.000136  -0.038503   0.397693  -0.026437
     9  C   -0.050045  -0.008961   0.005841   0.313573  -0.056807   0.006154
    10  H   -0.017149   0.004253  -0.000281  -0.042470   0.008579  -0.000523
    11  H    0.009440   0.000027  -0.000320  -0.043373  -0.008200   0.000177
    12  O   -0.007404   0.000344  -0.000007  -0.053986   0.000728  -0.000305
    13  H    0.009705  -0.000187   0.000687  -0.009381  -0.001293   0.000213
    14  O    0.050267  -0.014520  -0.008922  -0.038987  -0.001338  -0.000208
    15  O   -0.031707   0.002165   0.001803  -0.004869   0.008968   0.000842
    16  H   -0.004882  -0.000243  -0.000680   0.002172  -0.000521  -0.000758
              7          8          9         10         11         12
     1  C   -0.004747   0.004983  -0.050045  -0.017149   0.009440  -0.007404
     2  H   -0.000114  -0.000266  -0.008961   0.004253   0.000027   0.000344
     3  H    0.000415   0.000136   0.005841  -0.000281  -0.000320  -0.000007
     4  C   -0.044664  -0.038503   0.313573  -0.042470  -0.043373  -0.053986
     5  C    0.395807   0.397693  -0.056807   0.008579  -0.008200   0.000728
     6  H   -0.026189  -0.026437   0.006154  -0.000523   0.000177  -0.000305
     7  H    0.579141  -0.030277  -0.003257   0.000620  -0.001865   0.006718
     8  H   -0.030277   0.573385  -0.006572  -0.000145   0.003159  -0.000073
     9  C   -0.003257  -0.006572   4.738175   0.399596   0.406211   0.279615
    10  H    0.000620  -0.000145   0.399596   0.624723  -0.040421  -0.033457
    11  H   -0.001865   0.003159   0.406211  -0.040421   0.583305  -0.030690
    12  O    0.006718  -0.000073   0.279615  -0.033457  -0.030690   7.928503
    13  H   -0.001084   0.000069  -0.038400  -0.014205   0.008618   0.305109
    14  O    0.000632  -0.000136   0.002929  -0.000407   0.000011  -0.011076
    15  O    0.006078   0.000270  -0.002651  -0.000082  -0.000049  -0.003647
    16  H    0.003308  -0.000070  -0.001614   0.001266  -0.000398   0.030238
             13         14         15         16
     1  C    0.009705   0.050267  -0.031707  -0.004882
     2  H   -0.000187  -0.014520   0.002165  -0.000243
     3  H    0.000687  -0.008922   0.001803  -0.000680
     4  C   -0.009381  -0.038987  -0.004869   0.002172
     5  C   -0.001293  -0.001338   0.008968  -0.000521
     6  H    0.000213  -0.000208   0.000842  -0.000758
     7  H   -0.001084   0.000632   0.006078   0.003308
     8  H    0.000069  -0.000136   0.000270  -0.000070
     9  C   -0.038400   0.002929  -0.002651  -0.001614
    10  H   -0.014205  -0.000407  -0.000082   0.001266
    11  H    0.008618   0.000011  -0.000049  -0.000398
    12  O    0.305109  -0.011076  -0.003647   0.030238
    13  H    0.479695   0.035963  -0.002138  -0.011679
    14  O    0.035963   8.242365   0.049664  -0.043937
    15  O   -0.002138   0.049664   7.919677   0.275595
    16  H   -0.011679  -0.043937   0.275595   0.494887
 Mulliken atomic charges:
              1
     1  C   -0.062339
     2  H    0.131434
     3  H    0.136686
     4  C   -0.156372
     5  C   -0.253032
     6  H    0.117877
     7  H    0.119481
     8  H    0.122783
     9  C    0.016215
    10  H    0.110104
    11  H    0.114367
    12  O   -0.410609
    13  H    0.238308
    14  O   -0.262300
    15  O   -0.219919
    16  H    0.257318
 Sum of Mulliken charges=   0.00000
 Atomic charges with hydrogens summed into heavy atoms:
              1
     1  C    0.205780
     2  H    0.000000
     3  H    0.000000
     4  C   -0.156372
     5  C    0.107109
     6  H    0.000000
     7  H    0.000000
     8  H    0.000000
     9  C    0.240685
    10  H    0.000000
    11  H    0.000000
    12  O   -0.172302
    13  H    0.000000
    14  O   -0.262300
    15  O    0.037399
    16  H    0.000000
 Sum of Mulliken charges=   0.00000
          Atomic-Atomic Spin Densities.
              1          2          3          4          5          6
     1  C   -0.168627   0.007452   0.002979   0.044834   0.000690   0.000434
     2  H    0.007452   0.019636  -0.000537  -0.002978   0.000320   0.000025
     3  H    0.002979  -0.000537   0.005936  -0.000588   0.000166  -0.000070
     4  C    0.044834  -0.002978  -0.000588   0.649306  -0.026786  -0.000920
     5  C    0.000690   0.000320   0.000166  -0.026786  -0.036134   0.001666
     6  H    0.000434   0.000025  -0.000070  -0.000920   0.001666   0.000210
     7  H   -0.000577  -0.000261  -0.000109  -0.011467   0.005600  -0.000375
     8  H   -0.000212   0.000208   0.000055  -0.016038   0.011147  -0.000107
     9  C   -0.001387  -0.000627  -0.000098  -0.007019   0.000109  -0.000124
    10  H    0.000314   0.000496   0.000018  -0.001954   0.000063   0.000007
    11  H   -0.000059   0.000122   0.000007  -0.001467   0.000635   0.000011
    12  O   -0.000891  -0.000638  -0.000010  -0.021133  -0.000262  -0.000006
    13  H    0.002595   0.000821  -0.000020   0.005653   0.000147  -0.000001
    14  O   -0.048078  -0.009423  -0.001452  -0.042387  -0.001005  -0.000097
    15  O    0.008809   0.000436   0.000095   0.010562   0.000092   0.000057
    16  H    0.000005  -0.000068  -0.000021  -0.000770  -0.000062   0.000015
              7          8          9         10         11         12
     1  C   -0.000577  -0.000212  -0.001387   0.000314  -0.000059  -0.000891
     2  H   -0.000261   0.000208  -0.000627   0.000496   0.000122  -0.000638
     3  H   -0.000109   0.000055  -0.000098   0.000018   0.000007  -0.000010
     4  C   -0.011467  -0.016038  -0.007019  -0.001954  -0.001467  -0.021133
     5  C    0.005600   0.011147   0.000109   0.000063   0.000635  -0.000262
     6  H   -0.000375  -0.000107  -0.000124   0.000007   0.000011  -0.000006
     7  H    0.048340  -0.011326   0.001610  -0.000110  -0.000622   0.001403
     8  H   -0.011326   0.043672  -0.000939   0.000141   0.000703  -0.000406
     9  C    0.001610  -0.000939  -0.031828   0.001465   0.001366   0.004227
    10  H   -0.000110   0.000141   0.001465   0.003514   0.000340  -0.001237
    11  H   -0.000622   0.000703   0.001366   0.000340   0.002712  -0.001242
    12  O    0.001403  -0.000406   0.004227  -0.001237  -0.001242   0.048566
    13  H   -0.000597   0.000165  -0.000418   0.000628   0.000319  -0.000464
    14  O    0.001332  -0.000293   0.003584  -0.000188  -0.000116   0.003485
    15  O   -0.001974   0.000160  -0.000419   0.000009   0.000024  -0.000502
    16  H    0.000202  -0.000038  -0.000055  -0.000020  -0.000013  -0.000065
             13         14         15         16
     1  C    0.002595  -0.048078   0.008809   0.000005
     2  H    0.000821  -0.009423   0.000436  -0.000068
     3  H   -0.000020  -0.001452   0.000095  -0.000021
     4  C    0.005653  -0.042387   0.010562  -0.000770
     5  C    0.000147  -0.001005   0.000092  -0.000062
     6  H   -0.000001  -0.000097   0.000057   0.000015
     7  H   -0.000597   0.001332  -0.001974   0.000202
     8  H    0.000165  -0.000293   0.000160  -0.000038
     9  C   -0.000418   0.003584  -0.000419  -0.000055
    10  H    0.000628  -0.000188   0.000009  -0.000020
    11  H    0.000319  -0.000116   0.000024  -0.000013
    12  O   -0.000464   0.003485  -0.000502  -0.000065
    13  H   -0.000784  -0.005675   0.000529   0.000181
    14  O   -0.005675   0.611957  -0.054509   0.000926
    15  O    0.000529  -0.054509   0.110149   0.000848
    16  H    0.000181   0.000926   0.000848  -0.004579
 Mulliken atomic spin densities:
              1
     1  C   -0.151720
     2  H    0.014986
     3  H    0.006351
     4  C    0.576849
     5  C   -0.043616
     6  H    0.000725
     7  H    0.031070
     8  H    0.026891
     9  C   -0.030554
    10  H    0.003486
    11  H    0.002720
    12  O    0.030824
    13  H    0.003079
    14  O    0.458060
    15  O    0.074365
    16  H   -0.003517
 Sum of Mulliken spin densities=   1.00000
 APT atomic charges:
              1
     1  C   -0.146379
     2  H    0.047000
     3  H    0.032246
     4  C    0.008665
     5  C    0.029540
     6  H   -0.004138
     7  H    0.008081
     8  H    0.003458
     9  C    0.460641
    10  H   -0.058459
    11  H   -0.017308
    12  O   -0.580557
    13  H    0.259634
    14  O    0.052184
    15  O   -0.342991
    16  H    0.248384
 Sum of APT charges=   0.00000
 APT Atomic charges with hydrogens summed into heavy atoms:
              1
     1  C   -0.067133
     2  H    0.000000
     3  H    0.000000
     4  C    0.008665
     5  C    0.036940
     6  H    0.000000
     7  H    0.000000
     8  H    0.000000
     9  C    0.384874
    10  H    0.000000
    11  H    0.000000
    12  O   -0.320924
    13  H    0.000000
    14  O    0.052184
    15  O   -0.094606
    16  H    0.000000
 Sum of APT charges=   0.00000
 Electronic spatial extent (au):  <R**2>=  1387.9082
 Charge=     0.0000 electrons
 Dipole moment (field-independent basis, Debye):
    X=    -1.5162    Y=    -1.0027    Z=     1.8312  Tot=     2.5803
 Quadrupole moment (field-independent basis, Debye-Ang):
   XX=   -40.4711   YY=   -47.1785   ZZ=   -41.9718
   XY=     0.8745   XZ=     0.8209   YZ=     0.6448
 Traceless Quadrupole moment (field-independent basis, Debye-Ang):
   XX=     2.7360   YY=    -3.9713   ZZ=     1.2353
   XY=     0.8745   XZ=     0.8209   YZ=     0.6448
 Octapole moment (field-independent basis, Debye-Ang**2):
  XXX=   114.1538  YYY=  -193.0900  ZZZ=   -63.2873  XYY=    54.5334
  XXY=   -52.6306  XXZ=   -24.0361  XZZ=    36.1080  YZZ=   -53.8335
  YYZ=   -31.8578  XYZ=     1.2945
 Hexadecapole moment (field-independent basis, Debye-Ang**3):
 XXXX=  -516.8874 YYYY=  -858.4689 ZZZZ=  -451.8799 XXXY=   170.8379
 XXXZ=   120.1161 YYYX=   247.8101 YYYZ=  -123.0286 ZZZX=   102.7194
 ZZZY=   -70.2278 XXYY=  -220.3551 XXZZ=  -158.3437 YYZZ=  -198.0412
 XXYZ=   -22.3357 YYXZ=    50.1195 ZZXY=    51.6201
 N-N= 3.288446090956D+02 E-N=-1.557529022021D+03  KE= 3.822029429138D+02
  Exact polarizability:  65.730   3.154  59.181  -7.891  -1.543  72.840
 Approx polarizability:  99.027  10.808  84.006 -16.150  -1.319 112.922
                          Isotropic Fermi Contact Couplings
        Atom                 a.u.       MegaHertz       Gauss      10(-4) cm-1
     1  C(13)             -0.01068     -12.00945      -4.28527      -4.00592
     2  H(1)               0.00653      29.18391      10.41354       9.73470
     3  H(1)               0.00235      10.51466       3.75189       3.50731
     4  C(13)              0.04011      45.09394      16.09064      15.04172
     5  C(13)             -0.01764     -19.83381      -7.07720      -6.61585
     6  H(1)               0.00027       1.18644       0.42335       0.39575
     7  H(1)               0.01619      72.35878      25.81941      24.13629
     8  H(1)               0.01412      63.13011      22.52639      21.05794
     9  C(13)             -0.01170     -13.15067      -4.69249      -4.38659
    10  H(1)               0.00175       7.81155       2.78736       2.60565
    11  H(1)               0.00124       5.53812       1.97614       1.84732
    12  O(17)              0.01446      -8.76335      -3.12698      -2.92314
    13  H(1)              -0.00054      -2.41890      -0.86312      -0.80686
    14  O(17)              0.03676     -22.28509      -7.95187      -7.43351
    15  O(17)              0.01239      -7.50964      -2.67962      -2.50495
    16  H(1)              -0.00151      -6.72875      -2.40098      -2.24447
 --------------------------------------------------------
       Center         ----  Spin Dipole Couplings  ----
                      3XX-RR        3YY-RR        3ZZ-RR
 --------------------------------------------------------
     1   Atom       -0.030812      0.007861      0.022951
     2   Atom       -0.000286     -0.001544      0.001830
     3   Atom       -0.009147      0.004383      0.004765
     4   Atom        0.191390     -0.030828     -0.160562
     5   Atom        0.009332     -0.009279     -0.000053
     6   Atom        0.001439     -0.000426     -0.001013
     7   Atom        0.000421     -0.002981      0.002560
     8   Atom       -0.004264     -0.005968      0.010232
     9   Atom        0.000604      0.002899     -0.003503
    10   Atom        0.004822      0.000414     -0.005236
    11   Atom       -0.002259      0.004457     -0.002198
    12   Atom       -0.091955      0.166420     -0.074465
    13   Atom       -0.009803      0.005811      0.003992
    14   Atom       -0.663434     -0.502864      1.166298
    15   Atom       -0.116793      0.003688      0.113105
    16   Atom       -0.008239      0.009110     -0.000871
 --------------------------------------------------------
                        XY            XZ            YZ
 --------------------------------------------------------
     1   Atom       -0.062743      0.062684      0.065703
     2   Atom        0.008453     -0.003674      0.007659
     3   Atom        0.005699     -0.002139      0.003989
     4   Atom        0.401822     -0.307131     -0.236711
     5   Atom        0.008533      0.001162     -0.007430
     6   Atom       -0.004904      0.003707     -0.004976
     7   Atom        0.003302      0.006651      0.001631
     8   Atom       -0.000734      0.002480     -0.001906
     9   Atom       -0.007661     -0.002892      0.002332
    10   Atom       -0.007375      0.000168     -0.002907
    11   Atom       -0.004729     -0.004262      0.005121
    12   Atom        0.014182     -0.006043     -0.066454
    13   Atom       -0.008148     -0.004974      0.000840
    14   Atom        0.474696     -0.937963     -1.146168
    15   Atom        0.185644     -0.272109     -0.268614
    16   Atom        0.008986     -0.002002      0.013742
 --------------------------------------------------------


 ---------------------------------------------------------------------------------
              Anisotropic Spin Dipole Couplings in Principal Axis System
 ---------------------------------------------------------------------------------

       Atom             a.u.   MegaHertz   Gauss  10(-4) cm-1        Axes

              Baa    -0.1299   -17.435    -6.221    -5.816  0.6666  0.5457 -0.5078
     1 C(13)  Bbb     0.0479     6.430     2.294     2.145  0.7396 -0.5691  0.3593
              Bcc     0.0820    11.005     3.927     3.671  0.0929  0.6151  0.7829
 
              Baa    -0.0137    -7.315    -2.610    -2.440 -0.5589  0.6837 -0.4692
     2 H(1)   Bbb     0.0045     2.400     0.856     0.801 -0.7040 -0.0924  0.7041
              Bcc     0.0092     4.915     1.754     1.640  0.4381  0.7239  0.5330
 
              Baa    -0.0119    -6.366    -2.272    -2.124  0.9076 -0.3669  0.2039
     3 H(1)   Bbb     0.0030     1.584     0.565     0.528 -0.3870 -0.5430  0.7453
              Bcc     0.0090     4.782     1.706     1.595  0.1627  0.7553  0.6348
 
              Baa    -0.3412   -45.779   -16.335   -15.270  0.0420  0.5710  0.8199
     4 C(13)  Bbb    -0.3356   -45.034   -16.069   -15.022  0.6911 -0.6092  0.3889
              Bcc     0.6768    90.814    32.405    30.292  0.7215  0.5503 -0.4202
 
              Baa    -0.0160    -2.147    -0.766    -0.716 -0.3069  0.8540  0.4202
     5 C(13)  Bbb     0.0031     0.417     0.149     0.139  0.2928 -0.3354  0.8954
              Bcc     0.0129     1.730     0.617     0.577  0.9056  0.3978 -0.1471
 
              Baa    -0.0058    -3.110    -1.110    -1.037  0.1825  0.7506  0.6351
     6 H(1)   Bbb    -0.0033    -1.765    -0.630    -0.589  0.7606  0.3016 -0.5749
              Bcc     0.0091     4.875     1.740     1.626  0.6230 -0.5880  0.5159
 
              Baa    -0.0061    -3.277    -1.169    -1.093  0.7228 -0.5202 -0.4549
     7 H(1)   Bbb    -0.0030    -1.621    -0.578    -0.541  0.2485  0.8099 -0.5313
              Bcc     0.0092     4.898     1.748     1.634  0.6448  0.2710  0.7147
 
              Baa    -0.0063    -3.366    -1.201    -1.123  0.2581  0.9634  0.0723
     8 H(1)   Bbb    -0.0046    -2.441    -0.871    -0.814  0.9517 -0.2407 -0.1904
              Bcc     0.0109     5.806     2.072     1.937  0.1660 -0.1180  0.9790
 
              Baa    -0.0062    -0.836    -0.298    -0.279  0.7624  0.5542  0.3341
     9 C(13)  Bbb    -0.0042    -0.567    -0.202    -0.189 -0.1020 -0.4070  0.9077
              Bcc     0.0105     1.403     0.501     0.468 -0.6391  0.7261  0.2537
 
              Baa    -0.0075    -3.998    -1.427    -1.334  0.3425  0.5886  0.7323
    10 H(1)   Bbb    -0.0030    -1.626    -0.580    -0.542 -0.5150 -0.5343  0.6703
              Bcc     0.0105     5.624     2.007     1.876  0.7858 -0.6067  0.1201
 
              Baa    -0.0065    -3.469    -1.238    -1.157  0.6809 -0.0477  0.7308
    11 H(1)   Bbb    -0.0038    -2.036    -0.726    -0.679  0.5815  0.6418 -0.4999
              Bcc     0.0103     5.505     1.964     1.836 -0.4452  0.7653  0.4648
 
              Baa    -0.0946     6.844     2.442     2.283  0.7906  0.1104  0.6023
    12 O(17)  Bbb    -0.0898     6.498     2.319     2.167 -0.6098  0.2304  0.7583
              Bcc     0.1844   -13.341    -4.761    -4.450  0.0551  0.9668 -0.2495
 
              Baa    -0.0143    -7.622    -2.720    -2.542  0.9052  0.3574  0.2299
    13 H(1)   Bbb     0.0037     1.984     0.708     0.662 -0.0330 -0.4803  0.8765
              Bcc     0.0106     5.637     2.011     1.880 -0.4237  0.8010  0.4230
 
              Baa    -1.0863    78.602    28.047    26.219  0.0697  0.8771  0.4753
    14 O(17)  Bbb    -1.0570    76.484    27.292    25.512  0.9339 -0.2249  0.2780
              Bcc     2.1433  -155.086   -55.339   -51.731 -0.3507 -0.4245  0.8347
 
              Baa    -0.2976    21.531     7.683     7.182  0.8477 -0.0517  0.5279
    15 O(17)  Bbb    -0.2083    15.069     5.377     5.027 -0.2517  0.8368  0.4863
              Bcc     0.5058   -36.601   -13.060   -12.209 -0.4669 -0.5451  0.6963
 
              Baa    -0.0167    -8.929    -3.186    -2.978  0.6713 -0.5162  0.5319
    16 H(1)   Bbb    -0.0034    -1.834    -0.655    -0.612  0.7063  0.2281 -0.6701
              Bcc     0.0202    10.763     3.841     3.590  0.2246  0.8255  0.5177
 

 ---------------------------------------------------------------------------------

 Use density number 0.
 Entering OneElI...
 Calculate overlap and kinetic energy integrals
    NBasis = 187  MinDer = 2  MaxDer = 2
 Requested accuracy = 0.1000D-12
 PrsmSu:  NPrtUS=   1 ThrOK=F
 PRISM was handed   130758680 working-precision words and  2556 shell-pairs
 Entering OneElI...
 Calculate potential energy integrals
    NBasis = 187  MinDer = 2  MaxDer = 2
 Requested accuracy = 0.1000D-12
 PrsmSu:  NPrtUS=   8 ThrOK=T
 PRISM was handed    16300940 working-precision words and  2413 shell-pairs
 PRISM was handed    16300940 working-precision words and  2413 shell-pairs
 PRISM was handed    16300940 working-precision words and  2413 shell-pairs
 PRISM was handed    16300940 working-precision words and  2413 shell-pairs
 PRISM was handed    16300940 working-precision words and  2413 shell-pairs
 PRISM was handed    16300940 working-precision words and  2413 shell-pairs
 PRISM was handed    16300940 working-precision words and  2413 shell-pairs
 PRISM was handed    16300940 working-precision words and  2413 shell-pairs
 Polarizability after L701:
                1             2             3
      1  0.657299D+02
      2  0.315433D+01  0.591812D+02
      3 -0.789076D+01 -0.154343D+01  0.728404D+02
 Dipole Derivatives after L701:
               1            2            3            4            5
      1-0.181660D+00-0.850360D-01 0.564285D+00 0.185521D-01 0.707474D-01
      2-0.214126D+00 0.610778D-01 0.462343D+00 0.168675D-01 0.880993D-01
      3 0.184551D+00 0.457381D-01-0.318555D+00-0.974850D-01-0.195332D-02
               6            7            8            9           10
      1-0.917030D-01 0.444863D-01 0.470260D-01-0.163458D-01-0.171620D+00
      2-0.181409D-01 0.854428D-01-0.342517D-01 0.129272D-01-0.859476D-01
      3 0.343498D-01-0.183453D-01-0.227062D-01 0.865023D-01 0.349726D+00
              11           12           13           14           15
      1-0.370813D+00-0.160690D+00 0.640892D-01 0.758262D-01-0.105310D+00
      2-0.194995D+00-0.277757D+00 0.513716D-01 0.867644D-01 0.121603D-01
      3 0.238374D+00 0.392609D+00-0.144165D+00-0.130685D+00-0.622351D-01
              16           17           18           19           20
      1 0.107782D-01 0.881938D-01 0.227340D-01 0.250907D-01-0.929147D-01
      2 0.814136D-01-0.675073D-01-0.516227D-01-0.648411D-01-0.450896D-01
      3-0.227105D-01 0.675659D-02 0.443139D-01-0.967828D-01 0.121849D-02
              21           22           23           24           25
      1 0.320350D-01 0.197133D-01 0.107254D-01 0.591312D-01 0.518483D+00
      2 0.246954D-01-0.264719D-02 0.786349D-01 0.192505D-01 0.415452D-01
      3 0.442417D-01 0.737838D-01 0.469755D-01-0.879734D-01-0.175329D+00
              26           27           28           29           30
      1 0.252016D-01-0.134424D+00-0.164210D+00-0.347693D-01-0.122635D+00
      2 0.502090D+00-0.841741D-01-0.831160D-02-0.422698D-02 0.166131D-01
      3 0.256212D-01 0.361352D+00-0.473429D-01-0.305348D-02-0.694057D-02
              31           32           33           34           35
      1 0.487883D-01 0.251517D-01 0.642380D-01-0.575494D+00 0.100623D+00
      2-0.863069D-02 0.207670D-01-0.514178D-01-0.521815D-02-0.768405D+00
      3 0.152024D-01-0.613392D-01-0.121479D+00 0.728893D-01 0.453223D-01
              36           37           38           39           40
      1 0.106598D+00 0.247101D+00-0.109884D+00 0.159742D-02 0.615591D+00
      2 0.201520D+00-0.129529D+00 0.342411D+00-0.999903D-02 0.530619D+00
      3-0.397773D+00 0.309132D-01-0.924296D-01 0.189388D+00-0.542952D+00
              41           42           43           44           45
      1 0.453973D+00 0.202712D+00-0.774846D+00-0.299607D+00-0.377461D+00
      2-0.541316D-01-0.100368D+00-0.332712D+00-0.266292D+00-0.101760D+00
      3-0.196821D+00-0.404908D+00 0.437042D+00 0.232913D+00 0.121664D-01
              46           47           48
      1 0.255157D+00 0.955565D-01-0.447615D-01
      2 0.447036D-01 0.255053D+00-0.542693D-01
      3-0.189943D-01-0.133931D+00 0.234942D+00
 Hessian after L701:
                1             2             3             4             5
      1  0.173326D+02
      2  0.146192D+01  0.146938D+02
      3 -0.339756D+00 -0.325639D+01  0.114058D+02
      4 -0.283967D+01 -0.215710D+00  0.162911D+01  0.268753D+01
      5 -0.417713D-02 -0.470606D+01 -0.584353D-01 -0.456209D-01  0.462281D+01
      6  0.158990D+01 -0.242907D+00 -0.327710D+01 -0.170070D+01 -0.178289D-01
      7 -0.385933D+01 -0.128178D+01 -0.129415D+00 -0.523709D-01  0.110664D+00
      8 -0.152993D+01 -0.230461D+01  0.183387D+00  0.121885D+00  0.315951D-01
      9 -0.176633D+00  0.223689D+00 -0.470837D+01 -0.775878D-01  0.605224D-01
     10 -0.980858D+01 -0.118065D+01  0.374136D+00  0.105159D+00 -0.325500D-01
     11 -0.110877D+01 -0.747699D+01  0.396778D+01  0.155235D-01  0.124120D+00
     12  0.487114D+00  0.421366D+01 -0.269543D+01 -0.480713D-01 -0.517017D-01
     13  0.966177D-01  0.229941D-01  0.395624D-01  0.242931D-01  0.153786D-01
     14  0.522972D-01  0.751862D-01  0.339595D-01  0.122729D-01 -0.487001D-01
     15  0.106192D-01 -0.729402D-01  0.173276D+00  0.123815D+00  0.179308D-01
     16 -0.154669D-01 -0.635648D-02  0.216245D-01  0.832032D-02 -0.233765D-02
     17 -0.123651D-01 -0.348909D-02 -0.313103D-01 -0.927253D-02 -0.895456D-03
     18 -0.120348D-01 -0.147505D-03 -0.632855D-02  0.591770D-02 -0.115123D-02
     19  0.256327D-01  0.352650D-01  0.143957D-01  0.537777D-02  0.834680D-04
     20  0.388990D-01  0.277284D-01  0.302570D-01  0.627764D-02 -0.954156D-03
     21  0.991466D-03  0.815525D-02 -0.630322D-01  0.355007D-02  0.265425D-03
     22 -0.451703D-01  0.496577D-03 -0.145427D-01 -0.351260D-02 -0.918581D-03
     23 -0.522522D-03 -0.453540D-01 -0.489078D-02 -0.579970D-03 -0.603300D-03
     24 -0.214313D-02  0.620355D-02  0.176447D+00  0.681151D-02 -0.194304D-02
     25  0.354802D-01 -0.109378D+00 -0.839621D-01  0.602619D-02 -0.130038D-02
     26 -0.210879D+00  0.284548D+00  0.241844D+00  0.131233D-01 -0.965904D-02
     27 -0.120435D+00  0.172540D+00  0.473794D-01  0.119396D-01 -0.278405D-01
     28 -0.178534D-01  0.815756D-01  0.740858D-02 -0.197112D-01 -0.289100D-01
     29  0.760456D-01 -0.651848D-01 -0.184256D-01 -0.119458D-01  0.164947D-01
     30  0.211816D-01 -0.249897D-01  0.296023D-01 -0.115580D-01  0.266958D-01
     31 -0.326007D-01 -0.655832D-01 -0.718561D-01 -0.365446D-02 -0.544271D-03
     32 -0.505214D-01  0.699846D-01  0.140415D+00  0.390133D-02  0.814409D-03
     33 -0.692289D-01  0.162389D+00  0.106819D+00  0.875538D-02  0.545384D-02
     34 -0.191246D+00 -0.294152D-01 -0.109214D-01 -0.153727D-01  0.220559D-01
     35 -0.514514D-01  0.270113D+00  0.238051D-01  0.615908D-01  0.332079D-01
     36 -0.136636D-01  0.502108D-01 -0.240162D+00  0.377967D-01  0.373816D-01
     37 -0.740473D-01  0.268665D-01  0.150877D-02  0.212123D-03  0.155393D-02
     38  0.244221D-01  0.172858D+00 -0.503160D-01  0.186443D-02 -0.203627D-02
     39  0.193295D-02 -0.112881D+00 -0.682346D-01 -0.963531D-02 -0.518915D-02
     40 -0.561530D+00  0.119648D+01 -0.124330D+01 -0.265297D-01 -0.751688D-01
     41  0.115025D+01 -0.973531D+00 -0.108280D+01 -0.680270D-02 -0.320880D-01
     42 -0.108523D+01 -0.971319D+00 -0.850538D+00 -0.485821D-02  0.576009D-02
     43  0.101735D-01  0.108654D+00 -0.211799D+00  0.125555D+00  0.430651D-01
     44  0.178520D+00 -0.140561D-01 -0.131589D+00  0.442156D-01 -0.277807D-01
     45 -0.314553D+00 -0.178168D+00 -0.311377D-01  0.192176D-01  0.937243D-02
     46 -0.550235D-01 -0.453749D-01  0.178122D-01 -0.165061D-02 -0.127326D-02
     47 -0.137472D-01 -0.498117D-02  0.127099D-01  0.927729D-02 -0.264454D-03
     48  0.219273D-01  0.228953D-01  0.103638D-02  0.550117D-02  0.707351D-03
                6             7             8             9            10
      6  0.315723D+01
      7 -0.617512D-01  0.392233D+01
      8  0.536324D-01  0.134224D+01  0.182026D+01
      9  0.754423D-01  0.190332D+00 -0.270045D+00  0.469962D+01
     10 -0.758782D-01  0.847186D-01  0.508605D-01  0.530600D-01  0.185380D+02
     11  0.239113D-01  0.211660D-02  0.302869D-01 -0.843224D-01  0.418309D+01
     12 -0.589360D-01  0.466752D-02 -0.397127D-01  0.611272D-01 -0.263632D+01
     13  0.111041D+00 -0.165539D-02 -0.510780D-02  0.206372D-02 -0.407624D+01
     14  0.112269D-01 -0.159763D-01  0.265915D-02 -0.164673D-01 -0.778440D+00
     15  0.138479D+00 -0.144295D-01 -0.690126D-02 -0.370018D-01  0.286846D+01
     16  0.125022D-01 -0.152518D-01  0.176867D-01  0.292670D-01  0.359382D-01
     17 -0.986089D-02  0.509374D-02 -0.285850D-01 -0.102343D-02 -0.214513D-01
     18  0.423981D-02  0.162644D-01  0.212909D-01  0.322304D-01 -0.454722D-01
     19  0.572904D-02 -0.596148D-02  0.112822D-01  0.651847D-02  0.121774D+00
     20  0.674714D-02 -0.184232D-02  0.138315D-01  0.105594D-01  0.105049D+00
     21  0.606955D-03  0.203694D-03  0.125018D-01  0.546475D-02 -0.570919D-01
     22 -0.393991D-02 -0.113218D-03 -0.462291D-02 -0.309317D-02  0.704300D-01
     23 -0.642435D-03 -0.671708D-03 -0.729847D-03  0.327474D-02  0.144699D-02
     24  0.677033D-02 -0.776580D-02  0.165491D-01  0.116741D-01 -0.602267D-01
     25  0.126749D-01 -0.512862D-02 -0.769651D-01 -0.343130D-01 -0.534052D+01
     26  0.383406D-02 -0.818884D-01  0.129249D+00  0.665878D-01 -0.242559D+01
     27 -0.219934D-01 -0.357211D-01  0.708214D-01 -0.186382D-01  0.185086D-01
     28 -0.342704D-01  0.767323D-02 -0.124637D-01 -0.204514D-02  0.370366D-02
     29  0.355599D-01 -0.318257D-02  0.230594D-02  0.740443D-03  0.107410D+00
     30  0.940515D-03  0.243158D-02 -0.336227D-02 -0.205840D-02 -0.114064D+00
     31 -0.225305D-02  0.105321D-02 -0.118425D-02  0.114546D-02  0.159276D+00
     32  0.875998D-02 -0.218858D-02  0.856889D-03 -0.163591D-02  0.487416D-02
     33  0.148463D-01 -0.516151D-02  0.875906D-02  0.994434D-03  0.883463D-02
     34  0.195679D-01 -0.115065D-01 -0.151334D-01 -0.177773D-02 -0.136705D+00
     35  0.707439D-01 -0.275187D-01  0.676003D-01  0.110858D-01 -0.147142D+00
     36  0.849222D-02 -0.957301D-02  0.249630D-01 -0.134282D-01  0.152552D+00
     37  0.265701D-02 -0.468226D-02 -0.165156D-02  0.347440D-03  0.189083D-01
     38  0.135479D-02 -0.308130D-02  0.172896D-01 -0.990120D-03 -0.739404D-01
     39 -0.112693D-01  0.585600D-02 -0.137204D-01 -0.537515D-02  0.520066D-01
     40  0.730357D-01 -0.579327D-01  0.206571D-03  0.203631D-01  0.451277D-01
     41  0.343595D-01 -0.793185D-01  0.151157D+00  0.462930D-02  0.643754D-01
     42  0.153639D-02  0.509496D-01 -0.312105D-01 -0.543142D-01 -0.225842D+00
     43  0.515174D-01  0.572586D-03  0.109370D+00 -0.772282D-02  0.146060D+00
     44  0.140263D-01  0.459833D-01  0.615364D-01 -0.794565D-02  0.293649D-01
     45 -0.417294D-01 -0.526810D-02 -0.328901D-01 -0.479149D-01 -0.320524D+00
     46  0.163087D-03 -0.240902D-02 -0.647736D-02  0.754091D-04  0.329177D-01
     47  0.708259D-02 -0.865150D-02  0.528950D-02  0.134141D-02  0.113301D+00
     48  0.244651D-02 -0.161934D-02  0.593775D-02  0.552294D-03  0.785995D-02
               11            12            13            14            15
     11  0.146097D+02
     12 -0.302205D+01  0.121324D+02
     13 -0.706256D+00  0.270727D+01  0.143694D+02
     14 -0.624995D+01 -0.822419D+00  0.558666D+00  0.155118D+02
     15 -0.776502D+00 -0.325259D+01 -0.174073D+01  0.111506D+01  0.130187D+02
     16 -0.131390D-02  0.638377D-02 -0.345321D+01 -0.131610D+01 -0.286900D+00
     17  0.872663D-01 -0.120646D-01 -0.131976D+01 -0.237089D+01  0.422906D+00
     18  0.404037D-01  0.485419D-01 -0.140169D+00  0.204376D+00 -0.432718D+01
     19  0.529373D-01 -0.197384D-01 -0.310294D+01  0.155156D+01  0.175928D+00
     20  0.186149D+00  0.513720D-01  0.140925D+01 -0.271772D+01  0.217175D+00
     21  0.451672D-02  0.655519D-01  0.347032D+00  0.439817D+00 -0.436144D+01
     22  0.727695D-02 -0.107920D+00 -0.357041D+01  0.108490D+00 -0.103418D+01
     23  0.893777D-01 -0.270598D-01  0.155148D+00 -0.408139D+01 -0.260516D+00
     24 -0.683781D-01  0.273208D-01 -0.115681D+01 -0.189463D+00 -0.190404D+01
     25 -0.256879D+01  0.732780D-01  0.111120D+00 -0.960928D-01  0.481550D-01
     26 -0.174505D+01 -0.113129D+00 -0.130667D+00  0.466908D-01 -0.336341D-01
     27  0.389616D-01 -0.643285D+01  0.128208D+00 -0.981852D-01  0.459958D-01
     28  0.885576D-01 -0.184019D+00  0.118029D+00 -0.100329D+00  0.107233D+00
     29  0.894591D-01  0.124532D+00 -0.790775D-01 -0.114377D-01 -0.514674D-01
     30  0.890563D-01  0.683154D-01  0.899874D-01 -0.515879D-01  0.227172D-03
     31  0.387330D-01  0.702916D-01 -0.102790D-01  0.189495D-01  0.152572D-01
     32 -0.404739D-01 -0.177416D+00  0.164471D-01 -0.363402D-01 -0.102972D-01
     33 -0.142868D+00  0.135737D-01 -0.148237D-02  0.693551D-02  0.187327D-02
     34 -0.104788D+00  0.178537D+00 -0.222675D+00 -0.130238D+00  0.628430D-01
     35  0.805061D+00  0.545696D-01 -0.794235D-01  0.276384D+00 -0.272223D+00
     36  0.626587D-01 -0.126994D+00  0.431341D-01 -0.271872D+00 -0.920062D-01
     37 -0.521429D-01  0.304003D-01 -0.810178D-02  0.180380D-02  0.171441D-02
     38 -0.168181D+00  0.680555D-01 -0.558380D-04 -0.197713D-01  0.759187D-02
     39  0.364653D-01  0.684092D-01  0.509672D-02 -0.218570D-01  0.106238D-01
     40  0.731199D-01 -0.265124D+00 -0.174153D+00 -0.783907D-03 -0.142929D-01
     41 -0.127564D+00 -0.156349D+00  0.825896D-02 -0.159466D+00 -0.820291D-01
     42 -0.985560D-01  0.170003D+00 -0.502550D-01 -0.908572D-01  0.265089D+00
     43  0.346311D-02 -0.294835D+00 -0.895136D-01  0.120980D+00 -0.310738D+00
     44 -0.265539D+00 -0.475743D-01  0.933623D-01 -0.232917D+00 -0.169111D+00
     45 -0.562578D-01 -0.262771D-01 -0.371188D+00 -0.234910D+00  0.325239D+00
     46  0.772426D-01 -0.191221D-02 -0.103236D-01  0.129360D-01 -0.127561D-01
     47  0.522990D-01 -0.427150D-01  0.408379D-01  0.158628D-01 -0.450441D-01
     48 -0.148189D-01 -0.621675D-01 -0.127571D-01 -0.137566D-01 -0.524901D-02
               16            17            18            19            20
     16  0.333953D+01
     17  0.144913D+01  0.217716D+01
     18  0.836439D-01 -0.902693D-01  0.417421D+01
     19  0.866741D-01  0.700712D-02  0.314508D-02  0.290812D+01
     20 -0.297019D-01 -0.689126D-01 -0.902067D-02 -0.145217D+01  0.267435D+01
     21 -0.536389D-02 -0.392527D-01  0.693124D-01 -0.414307D+00 -0.385364D+00
     22  0.803260D-02  0.357544D-01  0.648813D-01 -0.710720D-02 -0.568335D-01
     23  0.547714D-01  0.495857D-01 -0.650094D-01 -0.871335D-01  0.366234D-01
     24  0.671039D-01 -0.468364D-01  0.150805D-01  0.669820D-01  0.432155D-01
     25  0.522650D-01 -0.108548D+00  0.311040D-01  0.335786D-01  0.127250D-01
     26 -0.111857D+00  0.827895D-01 -0.378702D-01 -0.173297D-01 -0.278375D-01
     27  0.340167D-01 -0.419637D-01 -0.366605D-01  0.329353D-01  0.128712D-01
     28  0.637377D-03 -0.397653D-02 -0.359629D-02  0.210241D-01  0.389630D-02
     29  0.379809D-02 -0.216956D-02  0.330925D-02 -0.322526D-02 -0.355952D-02
     30  0.108227D-02 -0.216090D-02 -0.826736D-03  0.121933D-01  0.202972D-02
     31  0.534303D-02 -0.101135D-01 -0.640905D-03 -0.881703D-03  0.897131D-02
     32 -0.100528D-01  0.956140D-02  0.949993D-03 -0.155920D-02 -0.437209D-02
     33 -0.785927D-02  0.105451D-01 -0.164996D-02 -0.107349D-01 -0.532519D-02
     34 -0.180980D-02 -0.233281D-01  0.413233D-02  0.117853D-01 -0.446722D-01
     35 -0.284381D-01  0.404054D-01 -0.796369D-02 -0.103831D+00 -0.106641D-01
     36  0.576010D-02 -0.121190D-01 -0.114723D-01  0.923333D-01 -0.609975D-01
     37 -0.143429D-02 -0.112341D-02  0.129580D-02 -0.124471D-02  0.213656D-02
     38 -0.165585D-02  0.217977D-02 -0.322040D-02  0.371548D-02 -0.114487D-02
     39  0.762747D-02 -0.132731D-01  0.171005D-02  0.461396D-02  0.988451D-02
     40 -0.186362D-01 -0.584600D-02  0.727112D-02 -0.226237D-01  0.402757D-02
     41 -0.139788D-01  0.931025D-02 -0.247575D-01  0.268095D-02 -0.252989D-01
     42  0.259564D-01 -0.551076D-01  0.205911D-01  0.360565D-01  0.352633D-01
     43 -0.311412D-01  0.219365D-01 -0.174219D-01 -0.589404D-01 -0.110036D-01
     44  0.153235D-02  0.810755D-02 -0.325385D-01  0.255966D-02 -0.623445D-01
     45  0.550424D-02 -0.834999D-01  0.213619D-01  0.593172D-03  0.566531D-01
     46  0.212936D-03 -0.314187D-02  0.167932D-02 -0.142707D-01  0.499081D-02
     47 -0.513039D-02  0.857492D-02  0.161890D-02 -0.184212D-02 -0.158773D-01
     48 -0.349761D-03  0.529031D-02 -0.315951D-02 -0.664365D-02 -0.153205D-01
               21            22            23            24            25
     21  0.400633D+01
     22  0.682260D-01  0.359560D+01
     23  0.651572D-01 -0.105193D+00  0.395457D+01
     24  0.568956D-01  0.109267D+01  0.357110D+00  0.148984D+01
     25  0.124764D-01 -0.141437D-01  0.480790D-02 -0.635062D-02  0.164764D+02
     26 -0.380508D-02  0.130793D-01 -0.108550D-01 -0.774176D-02 -0.488129D+00
     27 -0.165492D-01 -0.169402D-01 -0.305053D-02  0.146727D-01  0.215170D+01
     28  0.117361D-01 -0.229392D-02 -0.358928D-02  0.124231D-01 -0.187307D+01
     29 -0.176854D-02 -0.549043D-03 -0.108398D-02 -0.241514D-02  0.270587D+00
     30  0.144997D-02  0.250489D-03 -0.302514D-02  0.750578D-02  0.111004D+01
     31 -0.356930D-03 -0.353890D-02 -0.238060D-01  0.196107D-01 -0.452304D+01
     32  0.170312D-03 -0.165608D-01  0.185842D-01 -0.275170D-01 -0.153597D+00
     33 -0.127722D-02  0.828104D-02 -0.605596D-02 -0.179496D-01 -0.581634D+00
     34  0.817167D-01 -0.197790D-01 -0.330892D-02  0.708133D-02 -0.519734D+01
     35 -0.101510D+00  0.983861D-02  0.133300D-01 -0.547367D-01  0.348275D+01
     36  0.187246D-01 -0.572107D-02 -0.301589D-01  0.242166D-01 -0.224793D+01
     37 -0.441295D-02 -0.818265D-03  0.333565D-03 -0.118643D-02  0.122919D+00
     38  0.591179D-02 -0.523492D-03 -0.316193D-03 -0.130511D-02 -0.978950D-02
     39 -0.776952D-03 -0.355708D-02 -0.497115D-02  0.124219D-01  0.119790D-01
     40  0.161358D-01 -0.715257D-02  0.211767D-02 -0.110022D-01  0.270048D-01
     41  0.573593D-02  0.260476D-02 -0.992561D-02 -0.822365D-02 -0.110872D+00
     42  0.718793D-01 -0.143751D-01 -0.623390D-02  0.336518D-01 -0.330312D+00
     43 -0.491408D-01  0.104972D-02  0.596864D-02 -0.272449D-01  0.993590D-01
     44  0.196222D-01  0.278187D-02 -0.132533D-01 -0.547332D-02 -0.682919D-01
     45  0.119209D+00 -0.299794D-01 -0.134622D-01  0.472373D-01 -0.165948D+00
     46 -0.113946D-01 -0.106644D-02  0.210359D-03  0.511861D-04 -0.109087D-01
     47 -0.301525D-01  0.487944D-02  0.143126D-02 -0.904489D-02  0.208869D-01
     48  0.276583D-01 -0.596116D-04 -0.465370D-03 -0.175383D-02 -0.960812D-03
               26            27            28            29            30
     26  0.135883D+02
     27  0.168133D+01  0.180509D+02
     28  0.383269D+00  0.128869D+01  0.131823D+01
     29 -0.454976D+01  0.101827D+00 -0.153620D+00  0.450595D+01
     30  0.131370D+00 -0.404016D+01 -0.122175D+01 -0.254941D+00  0.398476D+01
     31 -0.196032D+00 -0.765231D+00  0.851788D-01 -0.404911D-01 -0.140569D+00
     32 -0.441952D+01  0.837376D+00 -0.501865D-01  0.127244D+00 -0.799380D-01
     33  0.799790D+00 -0.179139D+01 -0.159797D+00 -0.742880D-01 -0.122389D+00
     34  0.334187D+01 -0.227412D+01  0.303071D+00 -0.103225D+00  0.198490D+00
     35 -0.313993D+01 -0.300185D+01 -0.100375D+00 -0.938126D-01  0.137188D+00
     36 -0.281130D+01 -0.591366D+01  0.186999D+00  0.101818D+00  0.995573D-01
     37  0.514002D-01  0.425276D-01 -0.676881D-01 -0.499450D-01  0.655818D-01
     38  0.138159D+00  0.958607D-01 -0.743782D-01  0.218465D-01  0.336961D-01
     39 -0.617933D-01  0.211994D-01  0.626871D-01  0.300320D-01  0.750723D-02
     40 -0.108308D+00 -0.354655D+00  0.528645D-01 -0.131252D-01 -0.103865D-01
     41 -0.220300D+00  0.137420D+00 -0.221163D-01 -0.183949D-01  0.181342D-02
     42  0.132995D+00  0.139322D+00 -0.434684D-01  0.549661D-02 -0.164034D-01
     43 -0.343030D-01 -0.136663D+00  0.410282D-01 -0.222910D-02  0.192535D-02
     44 -0.141109D+00  0.358182D-01 -0.181433D-01 -0.120775D-01 -0.386189D-02
     45  0.131826D-01 -0.402885D-01 -0.253159D-01  0.594857D-03 -0.147044D-01
     46  0.224407D-02 -0.475290D-02  0.291757D-01  0.277490D-02 -0.484012D-02
     47 -0.572289D-02 -0.119420D-01  0.107890D-01 -0.581397D-02  0.201750D-02
     48 -0.166374D-02 -0.729924D-02 -0.291108D-02 -0.603956D-03 -0.332427D-02
               31            32            33            34            35
     31  0.442265D+01
     32  0.440710D+00  0.441937D+01
     33  0.879620D+00 -0.909190D+00  0.136938D+01
     34 -0.998891D-01 -0.163728D+00  0.771100D-01  0.123860D+02
     35 -0.164844D+00 -0.902337D-01  0.134796D+00 -0.180576D+01  0.867578D+01
     36  0.119839D+00  0.203456D+00  0.201888D+00  0.333988D+01  0.820577D+00
     37 -0.944459D-02  0.504826D-02 -0.750265D-01 -0.696580D+01 -0.213954D+00
     38  0.108877D-01 -0.399916D-01 -0.262740D-01 -0.126801D+00 -0.676502D+01
     39 -0.810364D-01 -0.155633D-01  0.165016D+00 -0.107445D+01  0.154502D+01
     40  0.111804D-02 -0.128551D-01 -0.370305D-01 -0.247309D+00 -0.254448D+00
     41 -0.781273D-02 -0.792946D-02  0.212282D-01 -0.243109D+00  0.829475D-01
     42 -0.233778D-01  0.179419D-01  0.380243D-01 -0.195183D+00  0.367085D+00
     43  0.120900D-01 -0.103573D-01 -0.364656D-01  0.185202D+00 -0.366910D+00
     44 -0.113796D-01 -0.485322D-02  0.217042D-01 -0.468975D+00  0.143897D-01
     45 -0.241739D-01  0.134829D-01  0.268840D-01 -0.281635D+00  0.206744D+00
     46 -0.338454D-02  0.626260D-03  0.181964D-02  0.223361D+00 -0.210082D+00
     47  0.353985D-02 -0.270643D-02 -0.759900D-02 -0.101448D+00 -0.179559D+00
     48  0.373116D-02 -0.994836D-03 -0.464657D-02 -0.131262D+00  0.666627D-01
               36            37            38            39            40
     36  0.823943D+01
     37 -0.951644D+00  0.718687D+01
     38  0.108225D+01  0.426531D+00  0.667634D+01
     39 -0.186842D+01  0.104348D+01 -0.142977D+01  0.188506D+01
     40 -0.286348D+00 -0.154780D+00 -0.194032D+00 -0.755913D-01 -0.433302D+00
     41  0.508325D+00 -0.178762D+00 -0.449259D-01  0.985156D-01 -0.195080D+01
     42  0.401192D-01 -0.150469D+00  0.221989D+00 -0.201797D+00 -0.161602D+01
     43 -0.278501D+00  0.860189D-02 -0.142868D-01  0.600350D-01  0.180203D+01
     44  0.253691D+00 -0.359518D-01 -0.170260D-01 -0.525242D-01  0.149102D+01
     45 -0.189809D+00  0.433506D-02 -0.993641D-02 -0.538902D-01  0.404971D+01
     46 -0.184912D+00 -0.494711D-01  0.311247D-01 -0.110398D-01 -0.224201D+00
     47  0.411107D-01  0.178571D-01  0.297381D-01  0.116247D-01 -0.151604D+00
     48 -0.176469D+00 -0.111079D-01  0.510020D-02  0.378223D-01 -0.252760D+00
               41            42            43            44            45
     41  0.623003D+01
     42 -0.530412D+00  0.421830D+01
     43  0.159494D+01  0.398979D+01  0.430174D+01
     44 -0.531989D+01  0.931184D+00 -0.954972D+00  0.926427D+01
     45  0.992580D+00 -0.403485D+01 -0.240665D+01 -0.322072D+01  0.911222D+01
     46 -0.209539D+00 -0.363367D+00 -0.655387D+01 -0.331627D+00 -0.134129D+00
     47  0.465864D+00  0.659816D-01 -0.614311D+00 -0.323746D+01  0.253724D+01
     48  0.799633D-01  0.159386D+00 -0.326091D+00  0.239529D+01 -0.517155D+01
               46            47            48
     46  0.664091D+01
     47  0.675366D+00  0.287332D+01
     48  0.707503D+00 -0.253423D+01  0.520671D+01
 ReadGW:  IGet=0 IStart=         114 Next=        7220 LGW=        7106.
 ICntrl=12127.
 Symmetry not used in FoFDir.
 MinBra= 0 MaxBra= 2 Meth= 1.
 IRaf=       0 NMat=   1 IRICut=       1 DoRegI=T DoRafI=F ISym2E= 0 JSym2E=0.
 PrsmSu:  NPrtUS=   8 ThrOK=T
 PRISM was handed    16287022 working-precision words and  2497 shell-pairs
 PRISM was handed    16287022 working-precision words and  2497 shell-pairs
 PRISM was handed    16287022 working-precision words and  2497 shell-pairs
 PRISM was handed    16287022 working-precision words and  2497 shell-pairs
 PRISM was handed    16287022 working-precision words and  2497 shell-pairs
 PRISM was handed    16287022 working-precision words and  2497 shell-pairs
 PRISM was handed    16287022 working-precision words and  2497 shell-pairs
 PRISM was handed    16287022 working-precision words and  2497 shell-pairs
 Pruned (  75, 302) grid will be used in CalDFT.
 CkSvGd:  ISavGI=        -1 IRadAn=       4 IRASav=       4 ISavGd=        -1.
 CalDSu:  NPrtUS=   8 ThrOK=T
 IPart= 0 IRanGd=          0 ScrnBf=T ScrnGd=T RCrit=4.00D+00 DoMicB=T.
 IPart= 4 IRanGd=          0 ScrnBf=T ScrnGd=T RCrit=4.00D+00 DoMicB=T.
 IPart= 6 IRanGd=          0 ScrnBf=T ScrnGd=T RCrit=4.00D+00 DoMicB=T.
 CutRad = 1000.00    CtRdIn =    0.00    XCrit =  15.00   ICut = 0
 IPart= 2 IRanGd=          0 ScrnBf=T ScrnGd=T RCrit=4.00D+00 DoMicB=T.
 CutRad = 1000.00    CtRdIn =    0.00    XCrit =  15.00   ICut = 0
 CutRad = 1000.00    CtRdIn =    0.00    XCrit =  15.00   ICut = 0
 CutRad = 1000.00    CtRdIn =    0.00    XCrit =  15.00   ICut = 0
 IPart= 3 IRanGd=          0 ScrnBf=T ScrnGd=T RCrit=4.00D+00 DoMicB=T.
 IPart= 7 IRanGd=          0 ScrnBf=T ScrnGd=T RCrit=4.00D+00 DoMicB=T.
 CutRad = 1000.00    CtRdIn =    0.00    XCrit =  15.00   ICut = 0
 IPart= 5 IRanGd=          0 ScrnBf=T ScrnGd=T RCrit=4.00D+00 DoMicB=T.
 CutRad = 1000.00    CtRdIn =    0.00    XCrit =  15.00   ICut = 0
 IPart= 1 IRanGd=          0 ScrnBf=T ScrnGd=T RCrit=4.00D+00 DoMicB=T.
 CutRad = 1000.00    CtRdIn =    0.00    XCrit =  15.00   ICut = 0
 CutRad = 1000.00    CtRdIn =    0.00    XCrit =  15.00   ICut = 0
 IPart= 0        14163 of        16078 points in      32 batches and       78 microbatches, Max-NSigAt=      16 Max-NSgAt2=      16
 IPart= 3        13570 of        15796 points in      33 batches and      114 microbatches, Max-NSigAt=      16 Max-NSgAt2=      16
 IPart= 7        12941 of        14672 points in      31 batches and       91 microbatches, Max-NSigAt=      16 Max-NSgAt2=      16
 IPart= 2        13701 of        15118 points in      29 batches and      101 microbatches, Max-NSigAt=      16 Max-NSgAt2=      16
 IPart= 4        13995 of        16152 points in      34 batches and       91 microbatches, Max-NSigAt=      16 Max-NSgAt2=      16
 IPart= 1        13496 of        15380 points in      31 batches and      104 microbatches, Max-NSigAt=      16 Max-NSgAt2=      16
 IPart= 6        15519 of        17678 points in      36 batches and       93 microbatches, Max-NSigAt=      16 Max-NSgAt2=      16
 IPart= 5        14953 of        16624 points in      34 batches and      101 microbatches, Max-NSigAt=      16 Max-NSgAt2=      16
 Polarizability after L703:
                1             2             3
      1  0.657299D+02
      2  0.315433D+01  0.591812D+02
      3 -0.789076D+01 -0.154343D+01  0.728404D+02
 Dipole Derivatives after L703:
               1            2            3            4            5
      1-0.181660D+00-0.850360D-01 0.564285D+00 0.185521D-01 0.707474D-01
      2-0.214126D+00 0.610778D-01 0.462343D+00 0.168675D-01 0.880993D-01
      3 0.184551D+00 0.457381D-01-0.318555D+00-0.974850D-01-0.195332D-02
               6            7            8            9           10
      1-0.917030D-01 0.444863D-01 0.470260D-01-0.163458D-01-0.171620D+00
      2-0.181409D-01 0.854428D-01-0.342517D-01 0.129272D-01-0.859476D-01
      3 0.343498D-01-0.183453D-01-0.227062D-01 0.865023D-01 0.349726D+00
              11           12           13           14           15
      1-0.370813D+00-0.160690D+00 0.640892D-01 0.758262D-01-0.105310D+00
      2-0.194995D+00-0.277757D+00 0.513716D-01 0.867644D-01 0.121603D-01
      3 0.238374D+00 0.392609D+00-0.144165D+00-0.130685D+00-0.622351D-01
              16           17           18           19           20
      1 0.107782D-01 0.881938D-01 0.227340D-01 0.250907D-01-0.929147D-01
      2 0.814136D-01-0.675073D-01-0.516227D-01-0.648411D-01-0.450896D-01
      3-0.227105D-01 0.675659D-02 0.443139D-01-0.967828D-01 0.121849D-02
              21           22           23           24           25
      1 0.320350D-01 0.197133D-01 0.107254D-01 0.591312D-01 0.518483D+00
      2 0.246954D-01-0.264719D-02 0.786349D-01 0.192505D-01 0.415452D-01
      3 0.442417D-01 0.737838D-01 0.469755D-01-0.879734D-01-0.175329D+00
              26           27           28           29           30
      1 0.252016D-01-0.134424D+00-0.164210D+00-0.347693D-01-0.122635D+00
      2 0.502090D+00-0.841741D-01-0.831160D-02-0.422698D-02 0.166131D-01
      3 0.256212D-01 0.361352D+00-0.473429D-01-0.305348D-02-0.694057D-02
              31           32           33           34           35
      1 0.487883D-01 0.251517D-01 0.642380D-01-0.575494D+00 0.100623D+00
      2-0.863069D-02 0.207670D-01-0.514178D-01-0.521815D-02-0.768405D+00
      3 0.152024D-01-0.613392D-01-0.121479D+00 0.728893D-01 0.453223D-01
              36           37           38           39           40
      1 0.106598D+00 0.247101D+00-0.109884D+00 0.159742D-02 0.615591D+00
      2 0.201520D+00-0.129529D+00 0.342411D+00-0.999903D-02 0.530619D+00
      3-0.397773D+00 0.309132D-01-0.924296D-01 0.189388D+00-0.542952D+00
              41           42           43           44           45
      1 0.453973D+00 0.202712D+00-0.774846D+00-0.299607D+00-0.377461D+00
      2-0.541316D-01-0.100368D+00-0.332712D+00-0.266292D+00-0.101760D+00
      3-0.196821D+00-0.404908D+00 0.437042D+00 0.232913D+00 0.121664D-01
              46           47           48
      1 0.255157D+00 0.955565D-01-0.447615D-01
      2 0.447036D-01 0.255053D+00-0.542693D-01
      3-0.189943D-01-0.133931D+00 0.234942D+00
 Hessian after L703:
                1             2             3             4             5
      1  0.387071D+00
      2 -0.223498D+00  0.495711D+00
      3  0.255491D+00  0.212351D+00  0.418805D+00
      4 -0.200909D+00  0.304909D-01 -0.153932D+00  0.216341D+00
      5  0.354129D-01 -0.505681D-01  0.964814D-03 -0.259667D-01  0.481226D-01
      6 -0.146522D+00  0.918196D-02 -0.156533D+00  0.152400D+00 -0.129648D-01
      7 -0.127820D+00  0.137734D+00 -0.412714D-02 -0.718557D-02  0.179511D-01
      8  0.138690D+00 -0.251053D+00 -0.272754D-01 -0.616762D-04  0.194541D-02
      9 -0.948072D-03 -0.183308D-01 -0.479705D-01 -0.899181D-02  0.156830D-01
     10 -0.749971D-01  0.272877D-01 -0.285129D-01  0.391111D-02 -0.117159D-01
     11  0.336738D-02 -0.177022D+00 -0.102833D+00  0.347169D-02  0.749128D-02
     12 -0.584187D-01 -0.168008D+00 -0.221252D+00  0.779205D-02 -0.222933D-02
     13  0.761970D-02  0.294543D-02 -0.537703D-02  0.281246D-02  0.344100D-02
     14 -0.680657D-02  0.863027D-02 -0.131012D-01  0.198075D-02  0.107096D-02
     15 -0.229228D-01  0.185467D-02 -0.254641D-01 -0.336756D-03 -0.325681D-02
     16  0.214029D-03  0.657939D-04  0.258816D-02  0.871553D-04 -0.281254D-03
     17 -0.125397D-02  0.398952D-03 -0.844750D-03 -0.439771D-04  0.275013D-03
     18 -0.405006D-03  0.145629D-02  0.152174D-02  0.198420D-03 -0.797299D-04
     19 -0.218212D-02  0.110675D-02  0.570636D-03  0.467796D-03  0.193754D-03
     20 -0.699733D-03 -0.245535D-03 -0.134940D-03 -0.103425D-03  0.993421D-04
     21 -0.138516D-02  0.154598D-02 -0.144481D-02  0.508470D-03  0.590848D-03
     22 -0.277656D-02  0.347894D-03 -0.180409D-02 -0.411012D-03 -0.932545D-03
     23 -0.191113D-03 -0.589741D-03 -0.243799D-03 -0.128354D-03  0.224524D-03
     24 -0.343111D-02  0.154389D-02 -0.771339D-03 -0.372068D-03 -0.714775D-03
     25 -0.460901D-03  0.671334D-02  0.869247D-02 -0.353577D-03 -0.270634D-02
     26  0.124504D-01 -0.179828D-01 -0.105685D-01 -0.164855D-03 -0.262758D-03
     27  0.171558D-01 -0.317887D-01 -0.586934D-03  0.109494D-02  0.538329D-03
     28  0.122063D-02 -0.867810D-03 -0.184166D-02  0.482132D-04  0.174927D-03
     29 -0.184460D-03  0.738705D-03  0.143192D-02 -0.412944D-03  0.111093D-03
     30  0.129545D-02 -0.914310D-04 -0.106939D-03 -0.207328D-03 -0.964429D-04
     31 -0.181766D-02  0.230803D-02 -0.476955D-03  0.242649D-03  0.126942D-03
     32  0.445057D-02 -0.443639D-02 -0.440687D-03  0.970894D-04  0.126844D-03
     33  0.505989D-03  0.235281D-03  0.503884D-03  0.408991D-04  0.116637D-03
     34  0.130465D-02 -0.649749D-03 -0.994443D-03 -0.269493D-03  0.343112D-03
     35  0.113709D-02  0.222961D-02  0.454602D-02 -0.103772D-02 -0.774469D-03
     36  0.230098D-03  0.155215D-02 -0.228094D-02  0.530521D-03 -0.533376D-04
     37 -0.288515D-04  0.251919D-03  0.270243D-02 -0.177467D-03 -0.355608D-03
     38 -0.658374D-03 -0.333918D-02 -0.553299D-05 -0.437150D-03 -0.438240D-03
     39  0.103147D-02  0.666500D-03 -0.138011D-02 -0.434835D-03 -0.301407D-03
     40  0.452267D-01  0.237640D-01 -0.988765D-01 -0.147581D-01 -0.146308D-01
     41  0.497060D-01 -0.272550D-02 -0.600031D-01 -0.588730D-02 -0.556607D-02
     42 -0.336671D-01 -0.607247D-02  0.546665D-02 -0.207693D-02 -0.109721D-02
     43 -0.306648D-01 -0.713107D-02  0.262962D-01 -0.123813D-05 -0.959838D-03
     44 -0.147930D-01  0.134558D-02  0.143690D-02 -0.171666D-02 -0.176635D-02
     45 -0.809620D-02 -0.748838D-02  0.309473D-01  0.370905D-02  0.282332D-02
     46 -0.999158D-03 -0.868940D-03 -0.398801D-03  0.155300D-03 -0.947490D-04
     47  0.287131D-02 -0.109146D-02 -0.528035D-02 -0.796706D-04 -0.911555D-04
     48  0.857813D-04  0.139142D-02  0.545386D-03  0.769196D-04  0.769460D-04
                6             7             8             9            10
      6  0.175582D+00
      7  0.267161D-02  0.131208D+00
      8 -0.965197D-03 -0.146034D+00  0.262743D+00
      9  0.287932D-02 -0.501101D-02  0.224669D-01  0.511345D-01
     10 -0.210300D-01  0.111981D-02  0.869763D-02  0.145362D-01  0.338026D+00
     11  0.171009D-02  0.324821D-02 -0.855208D-02 -0.257841D-01 -0.121629D+00
     12 -0.212511D-01  0.105317D-02  0.287635D-02  0.715229D-03  0.109302D+00
     13 -0.666098D-03 -0.167438D-02 -0.102845D-02  0.278236D-02 -0.128330D+00
     14 -0.464263D-02 -0.275690D-02 -0.606686D-03  0.266174D-03  0.286807D-01
     15 -0.658351D-03  0.858120D-03  0.198840D-02  0.422329D-03 -0.633854D-01
     16  0.267804D-03  0.454477D-03 -0.639941D-03 -0.795960D-03 -0.120478D-01
     17 -0.180895D-04 -0.566648D-04  0.468616D-03  0.646575D-03  0.152231D-02
     18  0.287212D-03  0.918205D-04 -0.449796D-03 -0.228245D-03 -0.128902D-01
     19 -0.749585D-03 -0.149350D-03 -0.193022D-03  0.132969D-03 -0.139205D-01
     20 -0.361090D-04 -0.157370D-03  0.740522D-04  0.221947D-03  0.213996D-02
     21 -0.127642D-02 -0.552044D-03 -0.221909D-03  0.376417D-03 -0.172931D-01
     22 -0.203925D-03  0.223806D-03  0.216859D-04 -0.237596D-03  0.112784D-01
     23 -0.146709D-03  0.132710D-03  0.314786D-03  0.164619D-04 -0.357945D-02
     24 -0.266709D-03  0.360641D-03  0.355748D-03 -0.903814D-04  0.698749D-02
     25  0.244154D-03  0.351836D-02  0.197508D-02 -0.228805D-02 -0.113252D+00
     26  0.241041D-02  0.929556D-03  0.208268D-02 -0.178866D-02  0.628329D-01
     27 -0.274384D-03 -0.994109D-03 -0.425968D-02 -0.421490D-02 -0.589645D-02
     28  0.107171D-02  0.468878D-03  0.136171D-03  0.968830D-04 -0.131995D-01
     29 -0.563346D-03 -0.338040D-03  0.769717D-04  0.114189D-03  0.252803D-01
     30  0.332043D-03  0.125306D-04  0.186767D-03  0.320554D-04  0.361573D-04
     31  0.257801D-03  0.340188D-03  0.427694D-03  0.789126D-03 -0.107479D-02
     32  0.107249D-03 -0.217361D-03 -0.101655D-02 -0.942949D-03  0.302095D-02
     33  0.271111D-03  0.220132D-03  0.137095D-03  0.778753D-04 -0.161658D-02
     34  0.338288D-03  0.641615D-04 -0.441749D-03 -0.303843D-03  0.118046D-01
     35  0.453993D-03  0.128366D-02  0.971381D-03 -0.855487D-03 -0.145238D-01
     36  0.000000D+00 -0.361861D-03  0.139740D-03  0.719599D-03  0.248896D-03
     37 -0.350675D-03 -0.307940D-03 -0.311617D-04 -0.498761D-04  0.551997D-04
     38 -0.822684D-04 -0.230296D-04  0.123025D-03 -0.183277D-03  0.809145D-03
     39  0.198715D-03  0.123812D-03  0.297808D-04 -0.290404D-03 -0.519329D-03
     40  0.110444D-01 -0.203413D-02 -0.173889D-02  0.929282D-03 -0.364554D-02
     41  0.392132D-02 -0.126455D-01 -0.800390D-02  0.967599D-02 -0.728927D-02
     42  0.322124D-02  0.563973D-02  0.585733D-02 -0.355652D-02  0.209763D-01
     43  0.124669D-02  0.208084D-02  0.360250D-03 -0.808625D-03 -0.514603D-02
     44  0.144704D-02  0.116729D-02  0.825030D-03 -0.130961D-02 -0.171761D-02
     45 -0.233250D-02 -0.104900D-03 -0.102760D-02  0.231474D-03 -0.223466D-02
     46 -0.206923D-04 -0.307028D-03 -0.140127D-03  0.168007D-03 -0.582264D-03
     47  0.187092D-03 -0.218387D-03 -0.392899D-03  0.103736D-03  0.183316D-03
     48 -0.179908D-03  0.119494D-03  0.161518D-03 -0.237852D-03  0.129179D-02
               11            12            13            14            15
     11  0.440143D+00
     12  0.120600D+00  0.553303D+00
     13  0.257257D-01 -0.735680D-01  0.502516D+00
     14 -0.868720D-01  0.169831D-01 -0.332797D-01  0.557286D+00
     15  0.115164D-01 -0.149313D+00 -0.288535D-01  0.200406D-01  0.496720D+00
     16  0.180872D-01  0.381923D-02 -0.121861D+00  0.116943D+00  0.227222D-01
     17 -0.495382D-02 -0.797307D-03  0.118428D+00 -0.232335D+00 -0.368246D-01
     18  0.224505D-01  0.376045D-02  0.248320D-01 -0.401594D-01 -0.560477D-01
     19 -0.149071D-01 -0.670264D-02 -0.143530D+00 -0.120993D+00 -0.146043D-01
     20  0.718843D-02 -0.289132D-02 -0.116425D+00 -0.193201D+00 -0.169394D-01
     21 -0.196302D-01 -0.754040D-02 -0.178341D-01 -0.215857D-01 -0.399796D-01
     22  0.178976D-02 -0.201500D-01 -0.103933D+00 -0.639376D-02  0.106477D+00
     23 -0.575690D-03  0.222547D-02 -0.680204D-02 -0.466954D-01  0.224427D-01
     24  0.402914D-03 -0.248086D-01  0.111233D+00  0.214385D-01 -0.231399D+00
     25  0.606635D-01 -0.106304D-01 -0.106015D-01  0.230816D-01  0.107163D-03
     26 -0.144728D+00 -0.155013D-01  0.736997D-02 -0.279357D-02  0.370979D-02
     27 -0.128950D-01 -0.864737D-01 -0.128643D-01  0.194767D-01  0.231699D-02
     28  0.137915D-02 -0.113375D-01 -0.100911D-02  0.246587D-02  0.189998D-02
     29  0.404183D-03  0.147992D-01  0.212381D-02 -0.417630D-02 -0.154190D-02
     30  0.113947D-03  0.764991D-03 -0.426820D-03  0.535490D-03  0.803363D-03
     31  0.638024D-02  0.157894D-01  0.730495D-03 -0.549378D-03  0.486902D-03
     32 -0.869611D-02 -0.268421D-01 -0.106053D-02  0.123848D-02 -0.523037D-03
     33 -0.790257D-03  0.824418D-03 -0.591276D-03  0.803864D-03  0.729181D-03
     34 -0.143627D-02 -0.781845D-04 -0.644443D-03 -0.258655D-02 -0.148521D-02
     35 -0.463437D-01  0.149141D-01 -0.701724D-03  0.453536D-04 -0.145872D-02
     36  0.116503D-01  0.241886D-03 -0.274597D-03  0.291992D-03  0.669512D-03
     37 -0.198233D-02 -0.270823D-02 -0.158700D-03  0.758045D-03  0.569742D-04
     38  0.205775D-02  0.342119D-02  0.227784D-03 -0.747842D-03 -0.953062D-04
     39  0.119136D-02  0.185375D-02 -0.474395D-04 -0.587162D-03 -0.376700D-03
     40  0.294695D-01  0.596387D-01 -0.236380D-02 -0.308036D-02 -0.142254D-02
     41  0.215572D-01  0.423022D-01 -0.113354D-02 -0.705505D-03 -0.703454D-03
     42  0.629721D-03 -0.384557D-01 -0.522054D-03 -0.229715D-02  0.100963D-02
     43 -0.121366D-01 -0.137087D-01  0.384192D-03  0.199714D-02 -0.144666D-04
     44 -0.322286D-02 -0.384120D-02 -0.467763D-04  0.710021D-03  0.321048D-04
     45 -0.933894D-02 -0.130636D-01  0.187830D-02  0.207349D-02  0.251587D-03
     46 -0.149087D-02 -0.918029D-04  0.433476D-04  0.539080D-03  0.416955D-03
     47  0.212444D-02  0.198883D-02  0.215966D-03 -0.848186D-03 -0.241332D-03
     48  0.100616D-02  0.694195D-03  0.299684D-03  0.463254D-03  0.315990D-03
               16            17            18            19            20
     16  0.130324D+00
     17 -0.130115D+00  0.249468D+00
     18 -0.227158D-01  0.416641D-01  0.589830D-01
     19  0.120458D-01  0.130319D-01  0.175309D-02  0.156256D+00
     20 -0.170275D-01 -0.191345D-01 -0.168755D-02  0.134898D+00  0.208633D+00
     21 -0.365684D-02 -0.412995D-02 -0.156028D-02  0.201200D-01  0.208485D-01
     22 -0.833738D-02 -0.291379D-02  0.131599D-01 -0.111048D-01 -0.216559D-02
     23  0.123689D-01  0.380992D-02 -0.237723D-01 -0.132758D-01 -0.312654D-02
     24  0.196947D-02  0.193369D-03 -0.364147D-02 -0.462705D-03  0.130165D-04
     25 -0.137628D-02  0.146910D-02 -0.381724D-02  0.105804D-02 -0.535856D-03
     26 -0.938786D-03  0.158962D-02 -0.753010D-03 -0.858276D-03 -0.519590D-03
     27 -0.313440D-02  0.329540D-03 -0.336940D-02 -0.330896D-03 -0.826363D-04
     28 -0.577042D-03  0.118247D-03 -0.713804D-03  0.143762D-03 -0.163677D-03
     29  0.779447D-03 -0.454854D-03  0.119069D-02 -0.214814D-03  0.232532D-03
     30 -0.166553D-03  0.234897D-03  0.885452D-04  0.326440D-03 -0.159672D-03
     31  0.205158D-03 -0.207606D-03 -0.639945D-04 -0.395714D-03  0.000000D+00
     32 -0.346200D-03  0.178481D-03  0.482266D-04  0.352173D-03  0.378164D-05
     33 -0.518211D-04 -0.111703D-04  0.181541D-03  0.261058D-03 -0.507897D-04
     34  0.603405D-03 -0.123204D-03  0.473080D-03  0.526647D-03  0.575158D-03
     35  0.879343D-03  0.433442D-03  0.102506D-04  0.799338D-03  0.150366D-03
     36 -0.470945D-03  0.188042D-04  0.114029D-03  0.628061D-03 -0.244983D-04
     37 -0.553603D-04  0.801113D-04 -0.836405D-04  0.385369D-03 -0.130231D-03
     38  0.106420D-03 -0.445850D-04  0.318584D-04 -0.384625D-03  0.323920D-04
     39  0.151730D-03 -0.833694D-04  0.114261D-03 -0.276083D-03  0.797580D-04
     40  0.501327D-03  0.505010D-03 -0.100554D-03 -0.124657D-02 -0.401785D-03
     41  0.257100D-03  0.327200D-03 -0.537216D-04  0.189449D-03 -0.502828D-03
     42 -0.445313D-03  0.573043D-03 -0.526491D-03 -0.136341D-02  0.386580D-03
     43 -0.963513D-04 -0.561518D-03  0.319631D-03  0.117854D-02  0.463106D-03
     44 -0.188794D-03  0.701527D-04  0.511747D-04  0.511105D-03  0.354458D-04
     45 -0.216609D-04 -0.805163D-03  0.299583D-03  0.116799D-02  0.483651D-03
[...]
    X8       -1.97910   0.00000   0.00000  -0.00016  -0.00009  -1.97919
    Y8        0.77872   0.00000   0.00000  -0.00153  -0.00156   0.77716
    Z8        6.11181   0.00000   0.00000  -0.00032  -0.00032   6.11150
    X9       -4.22685   0.00000   0.00000  -0.00026  -0.00019  -4.22704
    Y9        3.95543   0.00000   0.00000  -0.00002   0.00004   3.95546
    Z9        2.26899   0.00000   0.00000  -0.00003   0.00005   2.26904
   X10       -6.06227   0.00000   0.00000   0.00004   0.00006  -6.06221
   Y10        3.77430  -0.00001   0.00000   0.00001   0.00015   3.77445
   Z10        1.32168   0.00000   0.00000  -0.00061  -0.00046   1.32121
   X11       -4.55775   0.00000   0.00000  -0.00088  -0.00072  -4.55847
   Y11        4.58724   0.00000   0.00000  -0.00036  -0.00028   4.58695
   Z11        4.20354   0.00000   0.00000  -0.00003   0.00007   4.20360
   X12       -2.74353  -0.00001   0.00000   0.00008   0.00018  -2.74335
   Y12        5.91176   0.00000   0.00000   0.00016   0.00016   5.91192
   Z12        1.08757   0.00000   0.00000   0.00072   0.00075   1.08832
   X13       -2.52751   0.00000   0.00000   0.00047   0.00049  -2.52701
   Y13        5.36513   0.00000   0.00000   0.00045   0.00044   5.36557
   Z13       -0.64784   0.00000   0.00000   0.00068   0.00070  -0.64714
   X14       -0.66324   0.00000   0.00000  -0.00025  -0.00040  -0.66364
   Y14        2.27470   0.00000   0.00000   0.00007  -0.00001   2.27468
   Z14       -2.17720   0.00000   0.00000  -0.00007  -0.00011  -2.17731
   X15        1.65177   0.00000   0.00000   0.00023   0.00013   1.65190
   Y15        2.79623   0.00001   0.00000  -0.00090  -0.00108   2.79514
   Z15       -1.01549   0.00000   0.00000  -0.00057  -0.00069  -1.01618
   X16        1.28122   0.00000   0.00000   0.00107   0.00108   1.28229
   Y16        4.31492   0.00000   0.00000  -0.00085  -0.00102   4.31390
   Z16       -0.04677   0.00000   0.00000  -0.00035  -0.00046  -0.04724
         Item               Value     Threshold  Converged?
 Maximum Force            0.000007     0.000450     YES
 RMS     Force            0.000003     0.000300     YES
 Maximum Displacement     0.001560     0.001800     YES
 RMS     Displacement     0.000637     0.001200     YES
 Predicted change in Energy=-4.593001D-09
 Optimization completed.
    -- Stationary point found.
 GradGradGradGradGradGradGradGradGradGradGradGradGradGradGradGradGradGrad


 Test job not archived.
 1\1\GINC-NODE48\Freq\UB3LYP\CBSB7\C4H9O3(2)\SHAMEL\18-Jun-2013\0\\# fr
 eq nosymm b3lyp/cbsb7 iop(7/33=1)\\Title Card Required\\0,2\C,-1.43217
 2,0.091948,-0.033586\H,-2.25332,0.181877,-0.737427\H,-0.858279,-0.8240
 17,-0.102917\C,-1.479328,0.788987,1.164914\C,-0.519864,0.512891,2.2776
 27\H,0.063575,-0.392128,2.10512\H,0.178684,1.35163,2.398202\H,-1.04729
 6,0.412082,3.234232\C,-2.236751,2.093121,1.200697\H,-3.208017,1.997275
 ,0.699401\H,-2.411856,2.427461,2.224415\O,-1.451813,3.128368,0.575517\
 H,-1.3375,2.839102,-0.342823\O,-0.350969,1.203717,-1.152124\O,0.874079
 ,1.479699,-0.537372\H,0.67799,2.283358,-0.024752\\Version=AM64L-G03Rev
 D.01\HF=-383.4460047\S2=0.778332\S2-1=0.\S2A=0.750148\RMSD=9.068e-09\R
 MSF=2.777e-06\ZeroPoint=0.1300291\Thermal=0.1386369\Dipole=-0.5965176,
 -0.3945109,0.7204604\DipoleDeriv=-0.1816602,-0.214126,0.1845506,-0.085
 036,0.0610778,0.0457381,0.5642846,0.4623432,-0.3185553,0.0185521,0.016
 8675,-0.097485,0.0707474,0.0880993,-0.0019533,-0.091703,-0.0181409,0.0
 343498,0.0444863,0.0854428,-0.0183453,0.047026,-0.0342517,-0.0227062,-
 0.0163458,0.0129272,0.0865023,-0.17162,-0.0859476,0.3497257,-0.3708132
 ,-0.1949947,0.2383743,-0.1606899,-0.2777571,0.392609,0.0640892,0.05137
 16,-0.1441653,0.0758262,0.0867644,-0.1306852,-0.1053097,0.0121603,-0.0
 622351,0.0107782,0.0814136,-0.0227105,0.0881938,-0.0675073,0.0067566,0
 .022734,-0.0516227,0.0443139,0.0250907,-0.0648411,-0.0967828,-0.092914
 7,-0.0450896,0.0012185,0.032035,0.0246954,0.0442417,0.0197133,-0.00264
 72,0.0737838,0.0107254,0.0786349,0.0469755,0.0591312,0.0192505,-0.0879
 734,0.5184825,0.0415452,-0.1753291,0.0252016,0.5020902,0.0256212,-0.13
 44236,-0.0841741,0.3613516,-0.1642101,-0.0083116,-0.0473429,-0.0347693
 ,-0.004227,-0.0030535,-0.1226352,0.0166131,-0.0069406,0.0487883,-0.008
 6307,0.0152024,0.0251517,0.020767,-0.0613392,0.064238,-0.0514178,-0.12
 14794,-0.5754939,-0.0052181,0.0728893,0.1006226,-0.7684046,0.0453223,0
 .1065977,0.20152,-0.3977734,0.2471012,-0.1295291,0.0309132,-0.1098841,
 0.3424113,-0.0924296,0.0015974,-0.009999,0.189388,0.6155913,0.5306189,
 -0.5429522,0.4539733,-0.0541316,-0.1968213,0.2027119,-0.1003685,-0.404
 9078,-0.7748463,-0.3327119,0.4370424,-0.2996071,-0.266292,0.2329132,-0
 .3774612,-0.1017602,0.0121664,0.2551573,0.0447036,-0.0189943,0.0955565
 ,0.2550535,-0.1339314,-0.0447615,-0.0542693,0.2349423\Polar=65.7298933
 ,3.1543339,59.1812223,-7.8907612,-1.543428,72.8403547\PG=C01 [X(C4H9O3
 )]\NImag=1\\0.38707106,-0.22349845,0.49571088,0.25549121,0.21235123,0.
 41880530,-0.20090913,0.03049086,-0.15393159,0.21634093,0.03541287,-0.0
 5056805,0.00096481,-0.02596666,0.04812263,-0.14652159,0.00918196,-0.15
 653261,0.15240005,-0.01296479,0.17558229,-0.12782049,0.13773428,-0.004
 12714,-0.00718557,0.01795106,0.00267161,0.13120837,0.13869005,-0.25105
 305,-0.02727541,-0.00006168,0.00194541,-0.00096520,-0.14603354,0.26274
 321,-0.00094807,-0.01833077,-0.04797050,-0.00899181,0.01568295,0.00287
 932,-0.00501101,0.02246687,0.05113450,-0.07499707,0.02728774,-0.028512
 91,0.00391111,-0.01171588,-0.02102998,0.00111981,0.00869763,0.01453622
 ,0.33802641,0.00336738,-0.17702231,-0.10283267,0.00347169,0.00749128,0
 .00171009,0.00324821,-0.00855208,-0.02578412,-0.12162900,0.44014307,-0
 .05841872,-0.16800758,-0.22125200,0.00779205,-0.00222933,-0.02125112,0
 .00105317,0.00287635,0.00071523,0.10930167,0.12059975,0.55330346,0.007
 61970,0.00294543,-0.00537703,0.00281246,0.00344100,-0.00066610,-0.0016
 7438,-0.00102845,0.00278236,-0.12833032,0.02572573,-0.07356799,0.50251
 613,-0.00680657,0.00863027,-0.01310116,0.00198075,0.00107096,-0.004642
 63,-0.00275690,-0.00060669,0.00026617,0.02868072,-0.08687197,0.0169831
 1,-0.03327966,0.55728609,-0.02292284,0.00185467,-0.02546414,-0.0003367
 6,-0.00325681,-0.00065835,0.00085812,0.00198840,0.00042233,-0.06338538
 ,0.01151640,-0.14931326,-0.02885352,0.02004058,0.49671992,0.00021403,0
 .00006579,0.00258816,0.00008716,-0.00028125,0.00026780,0.00045448,-0.0
 0063994,-0.00079596,-0.01204785,0.01808719,0.00381923,-0.12186142,0.11
 694296,0.02272221,0.13032420,-0.00125397,0.00039895,-0.00084475,-0.000
 04398,0.00027501,-0.00001809,-0.00005666,0.00046862,0.00064658,0.00152
 231,-0.00495382,-0.00079731,0.11842804,-0.23233499,-0.03682465,-0.1301
 1515,0.24946823,-0.00040501,0.00145629,0.00152174,0.00019842,-0.000079
 73,0.00028721,0.00009182,-0.00044980,-0.00022824,-0.01289022,0.0224505
 3,0.00376045,0.02483198,-0.04015936,-0.05604770,-0.02271580,0.04166415
 ,0.05898295,-0.00218212,0.00110675,0.00057064,0.00046780,0.00019375,-0
 .00074959,-0.00014935,-0.00019302,0.00013297,-0.01392051,-0.01490715,-
 0.00670264,-0.14352964,-0.12099302,-0.01460427,0.01204584,0.01303188,0
 .00175309,0.15625610,-0.00069973,-0.00024554,-0.00013494,-0.00010342,0
 .00009934,-0.00003611,-0.00015737,0.00007405,0.00022195,0.00213996,0.0
 0718843,-0.00289132,-0.11642502,-0.19320070,-0.01693941,-0.01702752,-0
 .01913446,-0.00168755,0.13489763,0.20863336,-0.00138516,0.00154598,-0.
 00144481,0.00050847,0.00059085,-0.00127642,-0.00055204,-0.00022191,0.0
 0037642,-0.01729306,-0.01963018,-0.00754040,-0.01783411,-0.02158573,-0
 .03997956,-0.00365684,-0.00412995,-0.00156028,0.02011996,0.02084851,0.
 04883406,-0.00277656,0.00034789,-0.00180409,-0.00041101,-0.00093254,-0
 .00020393,0.00022381,0.00002169,-0.00023760,0.01127836,0.00178976,-0.0
 2015004,-0.10393296,-0.00639376,0.10647668,-0.00833738,-0.00291379,0.0
 1315986,-0.01110485,-0.00216559,0.01856062,0.11434128,-0.00019111,-0.0
 0058974,-0.00024380,-0.00012835,0.00022452,-0.00014671,0.00013271,0.00
 031479,0.00001646,-0.00357945,-0.00057569,0.00222547,-0.00680204,-0.04
 669542,0.02244268,0.01236888,0.00380992,-0.02377233,-0.01327584,-0.003
 12654,0.02213720,0.01121355,0.04643718,-0.00343111,0.00154389,-0.00077
 134,-0.00037207,-0.00071478,-0.00026671,0.00036064,0.00035575,-0.00009
 038,0.00698749,0.00040291,-0.02480863,0.11123289,0.02143850,-0.2313988
 0,0.00196947,0.00019337,-0.00364147,-0.00046270,0.00001302,0.00231894,
 -0.11675568,-0.02302166,0.25807219,-0.00046090,0.00671334,0.00869247,-
 0.00035358,-0.00270634,0.00024415,0.00351836,0.00197508,-0.00228805,-0
 .11325165,0.06066346,-0.01063041,-0.01060153,0.02308164,0.00010716,-0.
 00137628,0.00146910,-0.00381724,0.00105804,-0.00053586,0.00049287,0.00
 051795,-0.00057641,-0.00001511,0.51798083,0.01245036,-0.01798277,-0.01
 056846,-0.00016485,-0.00026276,0.00241041,0.00092956,0.00208268,-0.001
 78866,0.06283294,-0.14472781,-0.01550132,0.00736997,-0.00279357,0.0037
 0979,-0.00093879,0.00158962,-0.00075301,-0.00085828,-0.00051959,-0.000
 39841,-0.00064562,0.00042517,-0.00146361,-0.03241683,0.40798140,0.0171
 5582,-0.03178874,-0.00058693,0.00109494,0.00053833,-0.00027438,-0.0009
 9411,-0.00425968,-0.00421490,-0.00589645,-0.01289496,-0.08647372,-0.01
 286428,0.01947674,0.00231699,-0.00313440,0.00032954,-0.00336940,-0.000
 33090,-0.00008264,0.00079108,0.00002334,0.00098321,0.00006910,0.039748
 32,0.08119630,0.60950549,0.00122063,-0.00086781,-0.00184166,0.00004821
 ,0.00017493,0.00107171,0.00046888,0.00013617,0.00009688,-0.01319949,0.
 00137915,-0.01133751,-0.00100911,0.00246587,0.00189998,-0.00057704,0.0
 0011825,-0.00071380,0.00014376,-0.00016368,0.00014976,0.00014628,-0.00
 002831,0.00001338,-0.23316893,-0.00892958,-0.10252655,0.26025932,-0.00
 018446,0.00073871,0.00143192,-0.00041294,0.00011109,-0.00056335,-0.000
 33804,0.00007697,0.00011419,0.02528030,0.00040418,0.01479919,0.0021238
 1,-0.00417630,-0.00154190,0.00077945,-0.00045485,0.00119069,-0.0002148
 1,0.00023253,-0.00019279,-0.00009305,-0.00003051,0.00011751,-0.0081372
 6,-0.04714914,-0.01113507,0.02015910,0.05921239,0.00129545,-0.00009143
 ,-0.00010694,-0.00020733,-0.00009644,0.00033204,0.00001253,0.00018677,
 0.00003206,0.00003616,0.00011395,0.00076499,-0.00042682,0.00053549,0.0
 0080336,-0.00016655,0.00023490,0.00008855,0.00032644,-0.00015967,-0.00
 000204,0.00002049,-0.00019016,0.00022380,-0.10632070,-0.01307742,-0.11
 498097,0.11105327,0.00668669,0.11391935,-0.00181766,0.00230803,-0.0004
 7695,0.00024265,0.00012694,0.00025780,0.00034019,0.00042769,0.00078913
 ,-0.00107479,0.00638024,0.01578943,0.00073049,-0.00054938,0.00048690,0
 .00020516,-0.00020761,-0.00006399,-0.00039571,-0.00000053,0.00012819,0
 .00002172,0.00032156,-0.00029698,-0.05787154,0.01223585,0.02461899,0.0
 0594963,-0.00858548,-0.02587280,0.06050526,0.00445057,-0.00443639,-0.0
 0044069,0.00009709,0.00012684,0.00010725,-0.00021736,-0.00101655,-0.00
 094295,0.00302095,-0.00869611,-0.02684212,-0.00106053,0.00123848,-0.00
 052304,-0.00034620,0.00017848,0.00004823,0.00035217,0.00000378,0.00016
 669,0.00012256,-0.00036422,0.00075909,0.01597899,-0.07637137,-0.086942
 86,0.00081669,0.00084792,-0.00125799,-0.01042007,0.08754302,0.00050599
 ,0.00023528,0.00050388,0.00004090,0.00011664,0.00027111,0.00022013,0.0
 0013710,0.00007788,-0.00161658,-0.00079026,0.00082442,-0.00059128,0.00
 080386,0.00072918,-0.00005182,-0.00001117,0.00018154,0.00026106,-0.000
 05079,0.00003992,0.00032792,-0.00023950,0.00052127,0.03228238,-0.08014
 920,-0.27815153,0.00097959,-0.00551271,-0.01241025,-0.04173716,0.08059
 868,0.30462247,0.00130465,-0.00064975,-0.00099444,-0.00026949,0.000343
 11,0.00033829,0.00006416,-0.00044175,-0.00030384,0.01180464,-0.0014362
 7,-0.00007818,-0.00064444,-0.00258655,-0.00148521,0.00060341,-0.000123
 20,0.00047308,0.00052665,0.00057516,0.00088586,0.00006043,0.00059767,-
 0.00002740,-0.10195800,-0.05035168,0.01517098,-0.02072371,-0.03195933,
 0.02000204,-0.00523725,-0.00915258,0.00788846,0.13873732,0.00113709,0.
 00222961,0.00454602,-0.00103772,-0.00077447,0.00045399,0.00128366,0.00
 097138,-0.00085549,-0.01452382,-0.04634372,0.01491405,-0.00070172,0.00
 004535,-0.00145872,0.00087934,0.00043344,0.00001025,0.00079934,0.00015
 037,0.00021630,-0.00035629,-0.00008902,0.00008014,-0.05775515,-0.12262
 409,0.00960508,-0.01430771,-0.01023632,0.00769707,0.00078080,0.0046322
 7,0.00221774,0.08551466,0.26000210,0.00023010,0.00155215,-0.00228094,0
 .00053052,-0.00005334,0.00000006,-0.00036186,0.00013974,0.00071960,0.0
 0024890,0.01165026,0.00024189,-0.00027460,0.00029199,0.00066951,-0.000
 47095,0.00001880,0.00011403,0.00062806,-0.00002450,0.00000290,0.000413
 37,-0.00028142,0.00051691,0.04297720,0.03790409,-0.10605951,0.00148137
 ,-0.00367741,0.00929815,0.02456882,0.03193801,-0.01805184,-0.10543846,
 0.08683000,0.55172689,-0.00002885,0.00025192,0.00270243,-0.00017747,-0
 .00035561,-0.00035068,-0.00030794,-0.00003116,-0.00004988,0.00005520,-
 0.00198233,-0.00270823,-0.00015870,0.00075804,0.00005697,-0.00005536,0
 .00008011,-0.00008364,0.00038537,-0.00013023,-0.00002378,-0.00003831,-
 0.00006004,0.00007354,-0.00551887,0.00153123,0.02794605,0.00036170,0.0
 0127053,0.00065365,-0.00194895,-0.00322414,0.00165020,-0.02585830,-0.0
 0692997,0.03286476,0.04032740,-0.00065837,-0.00333918,-0.00000553,-0.0
 0043715,-0.00043824,-0.00008227,-0.00002303,0.00012302,-0.00018328,0.0
 0080915,0.00205775,0.00342119,0.00022778,-0.00074784,-0.00009531,0.000
 10642,-0.00004459,0.00003186,-0.00038462,0.00003239,-0.00006848,-0.000
 07974,0.00011059,-0.00034272,-0.00812872,0.00532793,0.03394984,-0.0006
 5045,0.00024505,-0.00043343,-0.00326779,-0.00397097,0.00296251,0.00416
 666,-0.08214551,-0.15694249,0.00925494,0.07918481,0.00103147,0.0006665
 0,-0.00138011,-0.00043483,-0.00030141,0.00019872,0.00012381,0.00002978
 ,-0.00029040,-0.00051933,0.00119136,0.00185375,-0.00004744,-0.00058716
 ,-0.00037670,0.00015173,-0.00008337,0.00011426,-0.00027608,0.00007976,
 -0.00027254,-0.00009115,0.00006073,-0.00000093,0.00280948,-0.00276992,
 -0.02026652,-0.00107463,-0.00161806,0.00184628,0.00192196,0.00258644,0
 .00095257,0.05915301,-0.11723413,-0.43297014,-0.05904804,0.11674379,0.
 45247542,0.04522671,0.02376398,-0.09887654,-0.01475813,-0.01463079,0.0
 1104443,-0.00203413,-0.00173889,0.00092928,-0.00364554,0.02946946,0.05
 963866,-0.00236380,-0.00308036,-0.00142254,0.00050133,0.00050501,-0.00
 010055,-0.00124657,-0.00040179,-0.00191232,-0.00060358,0.00040081,0.00
 026689,0.00384573,0.00601584,-0.00330811,-0.00086324,-0.00106089,0.000
 03817,0.00025495,-0.00161811,0.00015615,-0.00720629,0.00150236,0.00808
 911,0.00337410,-0.00262012,-0.00134411,0.17411055,0.04970604,-0.002725
 50,-0.06000313,-0.00588730,-0.00556607,0.00392132,-0.01264547,-0.00800
 390,0.00967599,-0.00728927,0.02155722,0.04230223,-0.00113354,-0.000705
 50,-0.00070345,0.00025710,0.00032720,-0.00005372,0.00018945,-0.0005028
 3,-0.00043945,-0.00012650,-0.00000095,0.00054939,0.00076937,-0.0044771
 0,0.00106007,-0.00015728,0.00035581,-0.00027711,0.00050128,0.00022109,
 -0.00037051,0.00340285,-0.00444146,-0.00933368,-0.00234533,0.00267861,
 0.00052769,0.01640750,0.05226477,-0.03366712,-0.00607247,0.00546665,-0
 .00207693,-0.00109721,0.00322124,0.00563973,0.00585733,-0.00355652,0.0
 2097634,0.00062972,-0.03845567,-0.00052205,-0.00229715,0.00100963,-0.0
 0044531,0.00057304,-0.00052649,-0.00136341,0.00038658,-0.00117437,-0.0
 0040839,0.00046592,-0.00069553,-0.00486884,0.00421891,0.00135544,0.000
 69940,-0.00041706,0.00023999,-0.00008846,0.00017327,-0.00006249,0.0011
 5797,-0.00869804,-0.00101529,0.00001770,0.00121028,-0.00291194,0.12837
 664,0.04260352,0.13919375,-0.03066485,-0.00713107,0.02629625,-0.000001
 24,-0.00095984,0.00124669,0.00208084,0.00036025,-0.00080862,-0.0051460
 3,-0.01213664,-0.01370869,0.00038419,0.00199714,-0.00001447,-0.0000963
 5,-0.00056152,0.00031963,0.00117854,0.00046311,0.00143347,0.00061452,-
 0.00032258,0.00046005,-0.00059577,-0.00490297,0.00079589,0.00029049,0.
 00057027,-0.00017600,-0.00011520,0.00087089,0.00002344,0.00290305,0.00
 320851,-0.00268099,-0.00564367,0.00090855,0.00057601,-0.18284262,-0.00
 183683,-0.08060945,0.28761764,-0.01479300,0.00134558,0.00143690,-0.001
 71666,-0.00176635,0.00144704,0.00116729,0.00082503,-0.00130961,-0.0017
 1761,-0.00322286,-0.00384120,-0.00004678,0.00071002,0.00003210,-0.0001
 8879,0.00007015,0.00005117,0.00051111,0.00003545,0.00026738,0.00002556
 ,-0.00013494,0.00025320,0.00059413,-0.00357595,0.00099175,0.00021141,0
 .00052270,-0.00034415,0.00002643,0.00038578,-0.00005833,0.00425038,0.0
 0199393,-0.00232215,-0.00012542,-0.00050256,-0.00008019,-0.04253481,-0
 .05010925,-0.03469839,-0.06750979,0.38471790,-0.00809620,-0.00748838,0
 .03094734,0.00370905,0.00282332,-0.00233250,-0.00010490,-0.00102760,0.
 00023147,-0.00223466,-0.00933894,-0.01306358,0.00187830,0.00207349,0.0
 0025159,-0.00002166,-0.00080516,0.00029958,0.00116799,0.00048365,0.002
 12941,0.00103839,-0.00025498,-0.00001249,-0.00034039,-0.00376288,0.001
 35715,0.00029975,0.00055291,-0.00011690,-0.00016345,0.00063526,-0.0000
 2832,0.00555247,0.00028115,-0.00192409,-0.00170077,-0.00019619,-0.0007
 1043,-0.09184663,-0.01129398,-0.08749876,0.02530283,0.22607030,0.19948
 450,-0.00099916,-0.00086894,-0.00039880,0.00015530,-0.00009475,-0.0000
 2069,-0.00030703,-0.00014013,0.00016801,-0.00058226,-0.00149087,-0.000
 09180,0.00004335,0.00053908,0.00041695,-0.00008390,0.00012119,-0.00003
 763,0.00046666,-0.00026512,0.00037809,0.00000032,-0.00007104,-0.000003
 29,-0.00176385,-0.00415715,0.00250047,0.00065262,0.00080280,-0.0002679
 8,0.00021105,0.00032908,-0.00033937,0.00589318,0.00050664,-0.00280537,
 -0.00476736,0.00077652,-0.00293184,-0.01174946,-0.03981208,-0.03281781
 ,-0.06996353,0.12184657,0.06555987,0.08279407,0.00287131,-0.00109146,-
 0.00528035,-0.00007967,-0.00009116,0.00018709,-0.00021839,-0.00039290,
 0.00010374,0.00018332,0.00212444,0.00198883,0.00021597,-0.00084819,-0.
 00024133,0.00005052,-0.00009692,0.00005233,-0.00025532,0.00027996,0.00
 089399,0.00018588,0.00028486,-0.00016400,-0.00098856,0.00307733,-0.001
 02692,-0.00035673,-0.00070023,0.00047294,-0.00007796,-0.00032205,0.000
 11067,-0.00214938,-0.00380384,0.00230994,0.00203748,0.00142873,0.00078
 818,-0.01037919,-0.00087213,-0.00283825,0.08698254,-0.33129462,-0.1987
 5195,-0.07802181,0.33231818,0.00008578,0.00139142,0.00054539,0.0000769
 2,0.00007695,-0.00017991,0.00011949,0.00016152,-0.00023785,0.00129179,
 0.00100616,0.00069420,0.00029968,0.00046325,0.00031599,-0.00005931,-0.
 00014593,0.00002326,-0.00047063,-0.00002653,-0.00124232,-0.00036979,-0
 .00018113,-0.00003592,0.00092668,0.00079340,-0.00101739,-0.00025093,-0
 .00023474,0.00006851,0.00013857,-0.00006327,-0.00001980,-0.00229461,0.
 00139458,-0.00098814,-0.00200030,0.00003024,0.00173871,-0.00972851,-0.
 01816519,-0.01458963,0.04154397,-0.18789582,-0.12901397,-0.02930880,0.
 20139509,0.14393887\\-0.00000404,0.00000052,0.00000145,-0.00000444,0.0
 0000160,0.00000137,-0.00000570,-0.00000178,0.00000175,-0.00000011,0.00
 000158,0.00000176,-0.00000117,0.00000005,0.00000048,-0.00000294,-0.000
 00183,0.00000071,0.00000187,-0.00000140,-0.00000102,-0.00000041,0.0000
 0212,0.00000071,0.00000056,0.00000279,-0.00000066,0.00000232,0.0000054
 8,0.00000118,0.00000408,0.00000499,-0.00000010,0.00000629,0.00000068,-
 0.00000457,0.00000316,-0.00000005,0.00000109,-0.00000120,-0.00000338,-
 0.00000004,-0.00000011,-0.00000749,-0.00000321,0.00000185,-0.00000388,
 -0.00000092\\\@


 One man practicing sportsmanship is far better than 50 preaching it.
 -- Knute K. Rockne
 Job cpu time:  0 days  1 hours  8 minutes 46.2 seconds.
 File lengths (MBytes):  RWF=    125 Int=      0 D2E=      0 Chk=      8 Scr=      1
 Normal termination of Gaussian 03 at Tue Jun 18 10:29:55 2013.
