 Entering Gaussian System, Link 0=g03
 Input=p11freq.gjf
 Output=p11freq.log
 Initial command:
 /opt/g03/l1.exe /scratch/nyee/Gau-5686.inp -scrdir=/scratch/nyee/
 Entering Link 1 = /opt/g03/l1.exe PID=      5688.
  
 Copyright (c) 1988,1990,1992,1993,1995,1998,2003,2004, Gaussian, Inc.
                  All Rights Reserved.
  
 This is the Gaussian(R) 03 program.  It is based on the
 the Gaussian(R) 98 system (copyright 1998, Gaussian, Inc.),
 the Gaussian(R) 94 system (copyright 1995, Gaussian, Inc.),
 the Gaussian 92(TM) system (copyright 1992, Gaussian, Inc.),
 the Gaussian 90(TM) system (copyright 1990, Gaussian, Inc.),
 the Gaussian 88(TM) system (copyright 1988, Gaussian, Inc.),
 the Gaussian 86(TM) system (copyright 1986, Carnegie Mellon
 University), and the Gaussian 82(TM) system (copyright 1983,
 Carnegie Mellon University). Gaussian is a federally registered
 trademark of Gaussian, Inc.
  
 This software contains proprietary and confidential information,
 including trade secrets, belonging to Gaussian, Inc.
  
 This software is provided under written license and may be
 used, copied, transmitted, or stored only in accord with that
 written license.
  
 The following legend is applicable only to US Government
 contracts under FAR:
  
                    RESTRICTED RIGHTS LEGEND
  
 Use, reproduction and disclosure by the US Government is
 subject to restrictions as set forth in subparagraphs (a)
 and (c) of the Commercial Computer Software - Restricted
 Rights clause in FAR 52.227-19.
  
 Gaussian, Inc.
 340 Quinnipiac St., Bldg. 40, Wallingford CT 06492
  
  
 ---------------------------------------------------------------
 Warning -- This program may not be used in any manner that
 competes with the business of Gaussian, Inc. or will provide
 assistance to any competitor of Gaussian, Inc.  The licensee
 of this program is prohibited from giving any competitor of
 Gaussian, Inc. access to this program.  By using this program,
 the user acknowledges that Gaussian, Inc. is engaged in the
 business of creating and licensing software in the field of
 computational chemistry and represents and warrants to the
 licensee that it is not a competitor of Gaussian, Inc. and that
 it will not use this program in any manner prohibited above.
 ---------------------------------------------------------------
  

 Cite this work as:
 Gaussian 03, Revision D.01,
 M. J. Frisch, G. W. Trucks, H. B. Schlegel, G. E. Scuseria, 
 M. A. Robb, J. R. Cheeseman, J. A. Montgomery, Jr., T. Vreven, 
 K. N. Kudin, J. C. Burant, J. M. Millam, S. S. Iyengar, J. Tomasi, 
 V. Barone, B. Mennucci, M. Cossi, G. Scalmani, N. Rega, 
 G. A. Petersson, H. Nakatsuji, M. Hada, M. Ehara, K. Toyota, 
 R. Fukuda, J. Hasegawa, M. Ishida, T. Nakajima, Y. Honda, O. Kitao, 
 H. Nakai, M. Klene, X. Li, J. E. Knox, H. P. Hratchian, J. B. Cross, 
 V. Bakken, C. Adamo, J. Jaramillo, R. Gomperts, R. E. Stratmann, 
 O. Yazyev, A. J. Austin, R. Cammi, C. Pomelli, J. W. Ochterski, 
 P. Y. Ayala, K. Morokuma, G. A. Voth, P. Salvador, J. J. Dannenberg, 
 V. G. Zakrzewski, S. Dapprich, A. D. Daniels, M. C. Strain, 
 O. Farkas, D. K. Malick, A. D. Rabuck, K. Raghavachari, 
 J. B. Foresman, J. V. Ortiz, Q. Cui, A. G. Baboul, S. Clifford, 
 J. Cioslowski, B. B. Stefanov, G. Liu, A. Liashenko, P. Piskorz, 
 I. Komaromi, R. L. Martin, D. J. Fox, T. Keith, M. A. Al-Laham, 
 C. Y. Peng, A. Nanayakkara, M. Challacombe, P. M. W. Gill, 
 B. Johnson, W. Chen, M. W. Wong, C. Gonzalez, and J. A. Pople, 
 Gaussian, Inc., Wallingford CT, 2004.
 
 ******************************************
 Gaussian 03:  AM64L-G03RevD.01 13-Oct-2005
                15-Jul-2014 
 ******************************************
 %chk=p11freq.chk
 %mem=1000mb
 %nproc=8
 Will use up to    8 processors via shared memory.
 -------------------------------------
 # freq nosymm b3lyp/cbsb7 iop(7/33=1)
 -------------------------------------
 1/10=4,30=1,38=1/1,3;
 2/15=1,17=6,18=5,40=1/2;
 3/5=4,6=6,7=700,11=2,16=1,25=1,30=1,74=-5/1,2,3;
 4//1;
 5/5=2,38=5/2;
 8/6=4,10=90,11=11/1;
 11/6=1,8=1,9=11,15=111,16=1,31=1/1,2,10;
 10/6=1,31=1/2;
 6/7=2,8=2,9=2,10=2,18=1,28=1/1;
 7/8=1,10=1,25=1,30=1,33=1/1,2,3,16;
 1/10=4,30=1/3;
 99//99;
 -------------------
 Title Card Required
 -------------------
 Symbolic Z-matrix:
 Charge =  0 Multiplicity = 2
 O                    -0.01323   0.05094   0.00377 
 O                    -0.00899  -0.05774   1.31334 
 C                     1.39983  -0.01167   1.83232 
 H                     1.6764    1.04385   1.71191 
 O                     2.1963   -0.85239   1.09155 
 H                     2.09197  -0.59476   0.1651 
 C                     1.33978  -0.42745   3.29348 
 H                     0.57802   0.2151    3.751 
 C                     2.68849  -0.14381   3.97012 
 H                     2.64111  -0.39991   5.03111 
 H                     3.48293  -0.7367    3.51099 
 H                     2.96484   0.91186   3.893 
 C                     0.91067  -1.89212   3.45285 
 H                     0.82288  -2.14322   4.51276 
 H                    -0.05575  -2.07647   2.97938 
 H                     1.6439   -2.56194   2.99977 
 

 GradGradGradGradGradGradGradGradGradGradGradGradGradGradGradGradGradGrad
 Berny optimization.
 Initialization pass.
 Trust Radius=3.00D-01 FncErr=1.00D-07 GrdErr=1.00D-07
 Number of steps in this run=   2 maximum allowed number of steps=   2.
 GradGradGradGradGradGradGradGradGradGradGradGradGradGradGradGradGradGrad

                          Input orientation:                          
 ---------------------------------------------------------------------
 Center     Atomic     Atomic              Coordinates (Angstroms)
 Number     Number      Type              X           Y           Z
 ---------------------------------------------------------------------
    1          8             0       -0.013229    0.050939    0.003766
    2          8             0       -0.008992   -0.057740    1.313339
    3          6             0        1.399831   -0.011672    1.832316
    4          1             0        1.676400    1.043848    1.711908
    5          8             0        2.196301   -0.852394    1.091554
    6          1             0        2.091970   -0.594757    0.165098
    7          6             0        1.339778   -0.427446    3.293479
    8          1             0        0.578023    0.215099    3.751003
    9          6             0        2.688493   -0.143809    3.970118
   10          1             0        2.641112   -0.399907    5.031111
   11          1             0        3.482925   -0.736702    3.510987
   12          1             0        2.964843    0.911859    3.893002
   13          6             0        0.910666   -1.892122    3.452846
   14          1             0        0.822883   -2.143222    4.512755
   15          1             0       -0.055749   -2.076466    2.979384
   16          1             0        1.643904   -2.561939    2.999771
 ---------------------------------------------------------------------
                    Distance matrix (angstroms):
                    1          2          3          4          5
     1  O    0.000000
     2  O    1.314082   0.000000
     3  C    2.311764   1.502079   0.000000
     4  H    2.599705   2.052535   1.097775   0.000000
     5  O    2.623226   2.354566   1.374739   2.061764   0.000000
     6  H    2.207898   2.453749   1.897014   2.291363   0.967255
     7  C    3.589107   2.424215   1.520352   2.186181   2.400560
     8  H    3.797145   2.522149   2.099560   2.459912   3.291054
     9  C    4.803038   3.787124   2.499661   2.744881   3.005075
    10  H    5.702893   4.578423   3.453085   3.745959   3.990327
    11  H    5.014386   4.181403   2.771802   3.109755   2.742707
    12  H    4.973555   4.054439   2.747471   2.536667   3.398729
    13  C    4.065122   2.964493   2.530117   3.498161   2.882636
    14  H    5.083740   3.908646   3.472913   4.327892   3.906038
    15  H    3.658136   2.617852   2.774500   3.787241   3.183392
    16  H    4.306886   3.441966   2.815384   3.829014   2.620874
                    6          7          8          9         10
     6  H    0.000000
     7  C    3.221887   0.000000
     8  H    3.975754   1.096569   0.000000
     9  C    3.877805   1.535357   2.151955   0.000000
    10  H    4.900776   2.171081   2.504645   1.092491   0.000000
    11  H    3.626276   2.176242   3.066266   1.092449   1.769988
    12  H    4.114495   2.189521   2.490492   1.093961   1.766585
    13  C    3.726650   1.534539   2.154050   2.546534   2.777061
    14  H    4.786486   2.167418   2.490362   2.787940   2.571730
    15  H    3.837755   2.182984   2.499667   3.499654   3.780674
    16  H    3.479359   2.175964   3.067962   2.807150   3.129720
                   11         12         13         14         15
    11  H    0.000000
    12  H    1.769773   0.000000
    13  C    2.820442   3.503668   0.000000
    14  H    3.171382   3.782275   1.092778   0.000000
    15  H    3.820966   4.346120   1.091836   1.768524   0.000000
    16  H    2.640990   3.822305   1.091590   1.771587   1.767744
                   16
    16  H    0.000000
 Symmetry turned off by external request.
 Stoichiometry    C4H9O3(2)
 Framework group  C1[X(C4H9O3)]
 Deg. of freedom    42
 Full point group                 C1
 Rotational constants (GHZ):      4.6113058      1.7147102      1.5676490
 Standard basis: CBSB7 (5D, 7F)
 Integral buffers will be    131072 words long.
 Raffenetti 2 integral format.
 Two-electron integral symmetry is turned off.
   180 basis functions,   296 primitive gaussians,   187 cartesian basis functions
    29 alpha electrons       28 beta electrons
       nuclear repulsion energy       333.4154384692 Hartrees.
 NAtoms=   16 NActive=   16 NUniq=   16 SFac= 7.50D-01 NAtFMM=   80 NAOKFM=F Big=F
 One-electron integrals computed using PRISM.
 NBasis=   180 RedAO= T  NBF=   180
 NBsUse=   180 1.00D-06 NBFU=   180
 Harris functional with IExCor=  402 diagonalized for initial guess.
 ExpMin= 1.03D-01 ExpMax= 8.59D+03 ExpMxC= 1.30D+03 IAcc=1 IRadAn=         1 AccDes= 1.00D-06
 HarFok:  IExCor= 402 AccDes= 1.00D-06 IRadAn=         1 IDoV=1
 ScaDFX=  1.000000  1.000000  1.000000  1.000000
 <S**2> of initial guess= 0.7500
 Requested convergence on RMS density matrix=1.00D-08 within 128 cycles.
 Requested convergence on MAX density matrix=1.00D-06.
 Requested convergence on             energy=1.00D-06.
 No special actions if energy rises.
 Integral accuracy reduced to 1.0D-05 until final iterations.
 Initial convergence to 1.0D-05 achieved.  Increase integral accuracy.
 SCF Done:  E(UB+HF-LYP) =  -383.500638095     A.U. after   20 cycles
             Convg  =    0.4811D-08             -V/T =  2.0033
             S**2   =   0.7534
 Annihilation of the first spin contaminant:
 S**2 before annihilation     0.7534,   after     0.7500
 Range of M.O.s used for correlation:     1   180
 NBasis=   180 NAE=    29 NBE=    28 NFC=     0 NFV=     0
 NROrb=    180 NOA=    29 NOB=    28 NVA=   151 NVB=   152
 Symmetrizing basis deriv contribution to polar:
 IMax=3 JMax=2 DiffMx= 0.00D+00
 G2DrvN: will do   17 centers at a time, making    1 passes doing MaxLOS=2.
 FoFDir/FoFCou used for L=0 through L=2.
 DoAtom=TTTTTTTTTTTTTTTT
          Differentiating once with respect to electric field.
                with respect to dipole field.
          Differentiating once with respect to nuclear coordinates.
 Symmetry not used in FoFDir.
 MinBra= 0 MaxBra= 2 Meth= 1.
 IRaf=       0 NMat=  51 IRICut=      51 DoRegI=T DoRafI=T ISym2E= 0 JSym2E=0.
          There are  51 degrees of freedom in the 1st order CPHF.
    48 vectors were produced by pass  0.
 AX will form  48 AO Fock derivatives at one time.
    48 vectors were produced by pass  1.
    48 vectors were produced by pass  2.
    48 vectors were produced by pass  3.
    48 vectors were produced by pass  4.
    47 vectors were produced by pass  5.
    22 vectors were produced by pass  6.
     3 vectors were produced by pass  7.
     3 vectors were produced by pass  8.
 Inv2:  IOpt= 1 Iter= 1 AM= 3.20D-15 Conv= 1.00D-12.
 Inverted reduced A of dimension  315 with in-core refinement.
 Isotropic polarizability for W=    0.000000       58.26 Bohr**3.
 End of Minotr Frequency-dependent properties file   721 does not exist.

 **********************************************************************

            Population analysis using the SCF density.

 **********************************************************************

 Alpha  occ. eigenvalues --  -19.23967 -19.19645 -19.14666 -10.28952 -10.19445
 Alpha  occ. eigenvalues --  -10.17118 -10.16307  -1.20470  -1.06510  -0.87995
 Alpha  occ. eigenvalues --   -0.80578  -0.69718  -0.67864  -0.58617  -0.57525
 Alpha  occ. eigenvalues --   -0.53813  -0.49837  -0.47796  -0.46101  -0.44193
 Alpha  occ. eigenvalues --   -0.41004  -0.39590  -0.39465  -0.36162  -0.35386
 Alpha  occ. eigenvalues --   -0.35014  -0.32419  -0.29135  -0.28546
 Alpha virt. eigenvalues --    0.03119   0.05818   0.06724   0.07206   0.08700
 Alpha virt. eigenvalues --    0.10407   0.11276   0.12672   0.13618   0.14311
 Alpha virt. eigenvalues --    0.15648   0.18141   0.21262   0.22624   0.25131
 Alpha virt. eigenvalues --    0.28408   0.29393   0.32936   0.35126   0.36634
 Alpha virt. eigenvalues --    0.41640   0.42132   0.43049   0.46733   0.50902
 Alpha virt. eigenvalues --    0.53106   0.55917   0.56451   0.56969   0.57368
 Alpha virt. eigenvalues --    0.58540   0.59064   0.60822   0.62462   0.63326
 Alpha virt. eigenvalues --    0.64047   0.69269   0.72938   0.74261   0.76552
 Alpha virt. eigenvalues --    0.83012   0.85241   0.87043   0.89376   0.90074
 Alpha virt. eigenvalues --    0.92176   0.94567   0.98898   1.03814   1.08119
 Alpha virt. eigenvalues --    1.12943   1.18481   1.19955   1.24846   1.32385
 Alpha virt. eigenvalues --    1.36436   1.36979   1.38712   1.40593   1.44161
 Alpha virt. eigenvalues --    1.45252   1.46525   1.49623   1.49913   1.51214
 Alpha virt. eigenvalues --    1.53865   1.54685   1.56775   1.60102   1.61954
 Alpha virt. eigenvalues --    1.64700   1.68966   1.70272   1.71530   1.74828
 Alpha virt. eigenvalues --    1.76081   1.77514   1.81371   1.88324   1.93916
 Alpha virt. eigenvalues --    1.94152   1.97536   2.00096   2.05402   2.08006
 Alpha virt. eigenvalues --    2.08731   2.13296   2.23378   2.26956   2.28663
 Alpha virt. eigenvalues --    2.34089   2.36145   2.40792   2.41300   2.43565
 Alpha virt. eigenvalues --    2.45019   2.47644   2.48474   2.50704   2.52801
 Alpha virt. eigenvalues --    2.54848   2.55859   2.58677   2.61214   2.63366
 Alpha virt. eigenvalues --    2.63804   2.66418   2.69303   2.73471   2.78845
 Alpha virt. eigenvalues --    2.81062   2.85114   2.87985   2.89399   2.91282
 Alpha virt. eigenvalues --    3.00304   3.03123   3.13382   3.14962   3.20022
 Alpha virt. eigenvalues --    3.27891   3.32578   3.40822   3.43181   3.72841
 Alpha virt. eigenvalues --    3.75250   3.77364   3.77848   3.79448   3.81675
 Alpha virt. eigenvalues --    3.84814   3.91581   4.01384   4.23777   4.29051
 Alpha virt. eigenvalues --    4.64800   4.72127   4.77941   4.84770   4.90441
 Alpha virt. eigenvalues --    5.14286   5.30647   5.62901   5.92078  23.64917
 Alpha virt. eigenvalues --   23.81437  23.91895  23.93434  49.67636  49.77156
 Alpha virt. eigenvalues --   49.89318
  Beta  occ. eigenvalues --  -19.22933 -19.17718 -19.14659 -10.28989 -10.19445
  Beta  occ. eigenvalues --  -10.17120 -10.16305  -1.17832  -1.06292  -0.85492
  Beta  occ. eigenvalues --   -0.79539  -0.69704  -0.67127  -0.58570  -0.56840
  Beta  occ. eigenvalues --   -0.52187  -0.48768  -0.45864  -0.44508  -0.41768
  Beta  occ. eigenvalues --   -0.40799  -0.39430  -0.38327  -0.35804  -0.35065
  Beta  occ. eigenvalues --   -0.34979  -0.32025  -0.27117
  Beta virt. eigenvalues --   -0.11924   0.03200   0.06002   0.06804   0.07594
  Beta virt. eigenvalues --    0.08806   0.10468   0.11700   0.12775   0.14234
  Beta virt. eigenvalues --    0.14438   0.15996   0.18405   0.21469   0.22684
  Beta virt. eigenvalues --    0.25328   0.28424   0.29441   0.32991   0.35152
  Beta virt. eigenvalues --    0.36722   0.41696   0.42231   0.43094   0.46906
  Beta virt. eigenvalues --    0.50986   0.53156   0.55969   0.56612   0.57005
  Beta virt. eigenvalues --    0.57384   0.58623   0.59103   0.60875   0.62579
  Beta virt. eigenvalues --    0.63491   0.64217   0.69441   0.73563   0.75829
  Beta virt. eigenvalues --    0.78617   0.83805   0.86475   0.87466   0.89920
  Beta virt. eigenvalues --    0.91690   0.92467   0.94667   0.99334   1.04047
  Beta virt. eigenvalues --    1.08295   1.13311   1.18523   1.20535   1.24965
  Beta virt. eigenvalues --    1.32749   1.36477   1.37073   1.38909   1.40689
  Beta virt. eigenvalues --    1.44429   1.45308   1.46630   1.49800   1.49928
  Beta virt. eigenvalues --    1.51296   1.53904   1.54890   1.56823   1.60290
  Beta virt. eigenvalues --    1.62031   1.64734   1.69037   1.70330   1.71592
  Beta virt. eigenvalues --    1.74896   1.76119   1.77647   1.81418   1.88453
  Beta virt. eigenvalues --    1.94040   1.94333   1.97613   2.00111   2.05481
  Beta virt. eigenvalues --    2.08045   2.08748   2.13375   2.23402   2.27049
  Beta virt. eigenvalues --    2.28921   2.34366   2.37280   2.41431   2.42314
  Beta virt. eigenvalues --    2.44212   2.45067   2.47848   2.48612   2.50758
  Beta virt. eigenvalues --    2.52925   2.55150   2.55962   2.59040   2.61331
  Beta virt. eigenvalues --    2.63588   2.64933   2.68724   2.70006   2.74050
  Beta virt. eigenvalues --    2.81736   2.84384   2.87158   2.88580   2.90177
  Beta virt. eigenvalues --    2.92102   3.01825   3.03192   3.13533   3.15034
  Beta virt. eigenvalues --    3.20661   3.30717   3.34458   3.41521   3.43459
  Beta virt. eigenvalues --    3.73364   3.76091   3.77391   3.78211   3.79822
  Beta virt. eigenvalues --    3.81936   3.85133   3.91855   4.01437   4.23845
  Beta virt. eigenvalues --    4.29057   4.71496   4.73412   4.79298   4.86923
  Beta virt. eigenvalues --    4.94050   5.15192   5.30736   5.63015   5.93463
  Beta virt. eigenvalues --   23.64878  23.81438  23.91893  23.93436  49.69550
  Beta virt. eigenvalues --   49.78150  49.89377
          Condensed to atoms (all electrons):
              1          2          3          4          5          6
     1  O    8.152043   0.049938  -0.060180   0.002750  -0.008921   0.030443
     2  O    0.049938   8.059001   0.141276  -0.042289  -0.042753  -0.008655
     3  C   -0.060180   0.141276   4.868151   0.408192   0.314577  -0.039058
     4  H    0.002750  -0.042289   0.408192   0.590609  -0.036631  -0.003594
     5  O   -0.008921  -0.042753   0.314577  -0.036631   7.862690   0.311691
     6  H    0.030443  -0.008655  -0.039058  -0.003594   0.311691   0.448815
     7  C    0.006541  -0.022076   0.288310  -0.057613  -0.069397   0.010659
     8  H    0.000013   0.003904  -0.047170  -0.001950   0.004597  -0.000526
     9  C   -0.000139   0.002707  -0.060717  -0.004648  -0.001142  -0.000236
    10  H    0.000007  -0.000104   0.007355  -0.000102  -0.000095   0.000077
    11  H   -0.000008   0.000280  -0.008423  -0.000691   0.010217  -0.000588
    12  H   -0.000016  -0.000087  -0.004118   0.004845  -0.000661  -0.000082
    13  C   -0.000023  -0.006376  -0.053576   0.009412   0.000573  -0.000547
    14  H    0.000013  -0.000077   0.008266  -0.000302  -0.000070   0.000044
    15  H   -0.000362   0.009566  -0.007286   0.000824   0.000696   0.000099
    16  H    0.000007  -0.000091  -0.008952   0.000639   0.012456  -0.000664
              7          8          9         10         11         12
     1  O    0.006541   0.000013  -0.000139   0.000007  -0.000008  -0.000016
     2  O   -0.022076   0.003904   0.002707  -0.000104   0.000280  -0.000087
     3  C    0.288310  -0.047170  -0.060717   0.007355  -0.008423  -0.004118
     4  H   -0.057613  -0.001950  -0.004648  -0.000102  -0.000691   0.004845
     5  O   -0.069397   0.004597  -0.001142  -0.000095   0.010217  -0.000661
     6  H    0.010659  -0.000526  -0.000236   0.000077  -0.000588  -0.000082
     7  C    5.216949   0.402873   0.350164  -0.031619  -0.037908  -0.032264
     8  H    0.402873   0.585737  -0.034966  -0.006543   0.008293  -0.005901
     9  C    0.350164  -0.034966   4.884674   0.404681   0.404441   0.397176
    10  H   -0.031619  -0.006543   0.404681   0.569596  -0.027257  -0.027387
    11  H   -0.037908   0.008293   0.404441  -0.027257   0.557049  -0.028322
    12  H   -0.032264  -0.005901   0.397176  -0.027387  -0.028322   0.585038
    13  C    0.319477  -0.035212  -0.063872  -0.005572  -0.005004   0.008107
    14  H   -0.033128  -0.007140  -0.005875   0.003704  -0.000767   0.000039
    15  H   -0.033355  -0.004271   0.007429   0.000094  -0.000195  -0.000473
    16  H   -0.041511   0.008321  -0.004753  -0.000876   0.004758  -0.000039
             13         14         15         16
     1  O   -0.000023   0.000013  -0.000362   0.000007
     2  O   -0.006376  -0.000077   0.009566  -0.000091
     3  C   -0.053576   0.008266  -0.007286  -0.008952
     4  H    0.009412  -0.000302   0.000824   0.000639
     5  O    0.000573  -0.000070   0.000696   0.012456
     6  H   -0.000547   0.000044   0.000099  -0.000664
     7  C    0.319477  -0.033128  -0.033355  -0.041511
     8  H   -0.035212  -0.007140  -0.004271   0.008321
     9  C   -0.063872  -0.005875   0.007429  -0.004753
    10  H   -0.005572   0.003704   0.000094  -0.000876
    11  H   -0.005004  -0.000767  -0.000195   0.004758
    12  H    0.008107   0.000039  -0.000473  -0.000039
    13  C    4.889241   0.403835   0.402759   0.408920
    14  H    0.403835   0.579280  -0.026531  -0.028809
    15  H    0.402759  -0.026531   0.557322  -0.025380
    16  H    0.408920  -0.028809  -0.025380   0.553571
 Mulliken atomic charges:
              1
     1  O   -0.172106
     2  O   -0.144165
     3  C    0.253354
     4  H    0.130550
     5  O   -0.357827
     6  H    0.252124
     7  C   -0.236102
     8  H    0.129942
     9  C   -0.274923
    10  H    0.114040
    11  H    0.124125
    12  H    0.104144
    13  C   -0.272143
    14  H    0.107518
    15  H    0.119065
    16  H    0.122404
 Sum of Mulliken charges=   0.00000
 Atomic charges with hydrogens summed into heavy atoms:
              1
     1  O   -0.172106
     2  O   -0.144165
     3  C    0.383904
     4  H    0.000000
     5  O   -0.105703
     6  H    0.000000
     7  C   -0.106161
     8  H    0.000000
     9  C    0.067387
    10  H    0.000000
    11  H    0.000000
    12  H    0.000000
    13  C    0.076844
    14  H    0.000000
    15  H    0.000000
    16  H    0.000000
 Sum of Mulliken charges=   0.00000
          Atomic-Atomic Spin Densities.
              1          2          3          4          5          6
     1  O    0.823539  -0.135854  -0.004490   0.003881   0.001959  -0.001581
     2  O   -0.135854   0.452768   0.010091  -0.008082  -0.002690  -0.000445
     3  C   -0.004490   0.010091  -0.021379  -0.001683  -0.000892  -0.000045
     4  H    0.003881  -0.008082  -0.001683   0.024377  -0.003793  -0.001255
     5  O    0.001959  -0.002690  -0.000892  -0.003793   0.006111   0.001717
     6  H   -0.001581  -0.000445  -0.000045  -0.001255   0.001717  -0.001702
     7  C    0.000175  -0.003641   0.004091   0.001350   0.000523   0.000138
     8  H   -0.000071   0.000271   0.001532  -0.001099   0.000168   0.000009
     9  C   -0.000003  -0.000041   0.000604   0.000023  -0.000175  -0.000027
    10  H    0.000000   0.000000   0.000028  -0.000006  -0.000004  -0.000004
    11  H    0.000000  -0.000001  -0.000015   0.000072  -0.000033   0.000001
    12  H    0.000002   0.000003  -0.000193  -0.000016   0.000000  -0.000007
    13  C   -0.000071   0.000672  -0.000924   0.000363  -0.000289  -0.000063
    14  H   -0.000005   0.000078  -0.000004   0.000032  -0.000017  -0.000002
    15  H   -0.000285  -0.000001   0.000040   0.000072  -0.000059  -0.000057
    16  H   -0.000026   0.000121   0.000055   0.000045  -0.000079  -0.000025
              7          8          9         10         11         12
     1  O    0.000175  -0.000071  -0.000003   0.000000   0.000000   0.000002
     2  O   -0.003641   0.000271  -0.000041   0.000000  -0.000001   0.000003
     3  C    0.004091   0.001532   0.000604   0.000028  -0.000015  -0.000193
     4  H    0.001350  -0.001099   0.000023  -0.000006   0.000072  -0.000016
     5  O    0.000523   0.000168  -0.000175  -0.000004  -0.000033   0.000000
     6  H    0.000138   0.000009  -0.000027  -0.000004   0.000001  -0.000007
     7  C   -0.002820  -0.001293   0.000091   0.000003  -0.000144   0.000151
     8  H   -0.001293   0.000294   0.000108  -0.000053  -0.000001   0.000031
     9  C    0.000091   0.000108  -0.002218   0.000187   0.000112   0.000140
    10  H    0.000003  -0.000053   0.000187  -0.000417   0.000042   0.000014
    11  H   -0.000144  -0.000001   0.000112   0.000042   0.000056  -0.000023
    12  H    0.000151   0.000031   0.000140   0.000014  -0.000023  -0.000085
    13  C    0.000692  -0.000088   0.000380  -0.000010   0.000033  -0.000042
    14  H   -0.000287  -0.000146   0.000074  -0.000005   0.000007   0.000003
    15  H    0.000183  -0.000092  -0.000037  -0.000002   0.000006  -0.000003
    16  H   -0.000158  -0.000047   0.000041   0.000001   0.000006  -0.000002
             13         14         15         16
     1  O   -0.000071  -0.000005  -0.000285  -0.000026
     2  O    0.000672   0.000078  -0.000001   0.000121
     3  C   -0.000924  -0.000004   0.000040   0.000055
     4  H    0.000363   0.000032   0.000072   0.000045
     5  O   -0.000289  -0.000017  -0.000059  -0.000079
     6  H   -0.000063  -0.000002  -0.000057  -0.000025
     7  C    0.000692  -0.000287   0.000183  -0.000158
     8  H   -0.000088  -0.000146  -0.000092  -0.000047
     9  C    0.000380   0.000074  -0.000037   0.000041
    10  H   -0.000010  -0.000005  -0.000002   0.000001
    11  H    0.000033   0.000007   0.000006   0.000006
    12  H   -0.000042   0.000003  -0.000003  -0.000002
    13  C    0.000367  -0.000109   0.000434   0.000044
    14  H   -0.000109   0.000545   0.000113   0.000074
    15  H    0.000434   0.000113  -0.000613   0.000082
    16  H    0.000044   0.000074   0.000082   0.000037
 Mulliken atomic spin densities:
              1
     1  O    0.687170
     2  O    0.313247
     3  C   -0.013184
     4  H    0.014280
     5  O    0.002446
     6  H   -0.003348
     7  C   -0.000947
     8  H   -0.000478
     9  C   -0.000743
    10  H   -0.000226
    11  H    0.000118
    12  H   -0.000027
    13  C    0.001390
    14  H    0.000353
    15  H   -0.000220
    16  H    0.000169
 Sum of Mulliken spin densities=   1.00000
 APT atomic charges:
              1
     1  O   -0.139827
     2  O   -0.358116
     3  C    0.816706
     4  H   -0.087386
     5  O   -0.613888
     6  H    0.302343
     7  C    0.078604
     8  H   -0.035904
     9  C    0.054836
    10  H   -0.018286
    11  H    0.003021
    12  H   -0.022535
    13  C    0.032901
    14  H   -0.019036
    15  H   -0.000143
    16  H    0.006708
 Sum of APT charges=   0.00000
 APT Atomic charges with hydrogens summed into heavy atoms:
              1
     1  O   -0.139827
     2  O   -0.358116
     3  C    0.729320
     4  H    0.000000
     5  O   -0.311545
     6  H    0.000000
     7  C    0.042700
     8  H    0.000000
     9  C    0.017037
    10  H    0.000000
    11  H    0.000000
    12  H    0.000000
    13  C    0.020430
    14  H    0.000000
    15  H    0.000000
    16  H    0.000000
 Sum of APT charges=   0.00000
 Electronic spatial extent (au):  <R**2>=  2155.7551
 Charge=     0.0000 electrons
 Dipole moment (field-independent basis, Debye):
    X=     1.3658    Y=     0.7416    Z=     1.2740  Tot=     2.0095
 Quadrupole moment (field-independent basis, Debye-Ang):
   XX=   -43.3289   YY=   -43.1649   ZZ=   -36.6204
   XY=     2.0306   XZ=     1.0389   YZ=     1.1484
 Traceless Quadrupole moment (field-independent basis, Debye-Ang):
   XX=    -2.2908   YY=    -2.1269   ZZ=     4.4177
   XY=     2.0306   XZ=     1.0389   YZ=     1.1484
 Octapole moment (field-independent basis, Debye-Ang**2):
  XXX=  -172.4341  YYY=    68.9680  ZZZ=  -271.4747  XYY=   -57.0742
  XXY=    26.6891  XXZ=  -102.0553  XZZ=   -47.1177  YZZ=    20.5003
  YYZ=   -98.9848  XYZ=     3.0140
 Hexadecapole moment (field-independent basis, Debye-Ang**3):
 XXXX=  -756.7253 YYYY=  -270.9297 ZZZZ= -1814.8235 XXXY=    94.9494
 XXXZ=  -492.7794 YYYX=    89.2673 YYYZ=   205.3170 ZZZX=  -442.8612
 ZZZY=   183.1933 XXYY=  -168.9659 XXZZ=  -438.3309 YYZZ=  -363.5357
 XXYZ=    73.7254 YYXZ=  -159.4781 ZZXY=    26.4285
 N-N= 3.334154384692D+02 E-N=-1.566087219079D+03  KE= 3.822389543898D+02
  Exact polarizability:  54.877   1.066  51.998   6.130  -2.648  67.911
 Approx polarizability:  75.786  -1.781  70.327   3.738  -1.424  92.541
                          Isotropic Fermi Contact Couplings
        Atom                 a.u.       MegaHertz       Gauss      10(-4) cm-1
     1  O(17)              0.05037     -30.53456     -10.89549     -10.18523
     2  O(17)              0.04213     -25.53939      -9.11309      -8.51903
     3  C(13)             -0.00893     -10.04366      -3.58383      -3.35021
     4  H(1)               0.00467      20.88649       7.45282       6.96698
     5  O(17)             -0.00173       1.05122       0.37510       0.35065
     6  H(1)              -0.00007      -0.29702      -0.10598      -0.09908
     7  C(13)             -0.00031      -0.35220      -0.12567      -0.11748
     8  H(1)               0.00002       0.10102       0.03605       0.03370
     9  C(13)             -0.00071      -0.79385      -0.28327      -0.26480
    10  H(1)              -0.00008      -0.34763      -0.12404      -0.11596
    11  H(1)               0.00005       0.20600       0.07351       0.06872
    12  H(1)               0.00004       0.16469       0.05877       0.05494
    13  C(13)              0.00089       1.00483       0.35855       0.33518
    14  H(1)               0.00009       0.39747       0.14183       0.13258
    15  H(1)               0.00030       1.35937       0.48506       0.45344
    16  H(1)               0.00004       0.18902       0.06745       0.06305
 --------------------------------------------------------
       Center         ----  Spin Dipole Couplings  ----
                      3XX-RR        3YY-RR        3ZZ-RR
 --------------------------------------------------------
     1   Atom       -1.496492      3.003772     -1.507280
     2   Atom       -0.809864      1.663390     -0.853526
     3   Atom        0.009472     -0.010655      0.001183
     4   Atom        0.007682     -0.005318     -0.002364
     5   Atom       -0.002505      0.005713     -0.003207
     6   Atom        0.018376     -0.008759     -0.009617
     7   Atom       -0.001399     -0.004401      0.005800
     8   Atom       -0.004167     -0.004310      0.008477
     9   Atom       -0.000344     -0.000986      0.001329
    10   Atom       -0.000190     -0.000928      0.001117
    11   Atom        0.000988     -0.001240      0.000252
    12   Atom        0.000461     -0.001385      0.000924
    13   Atom       -0.001653     -0.001320      0.002973
    14   Atom       -0.001420     -0.000578      0.001998
    15   Atom       -0.004740      0.001683      0.003057
    16   Atom       -0.000953      0.000656      0.000297
 --------------------------------------------------------
                        XY            XZ            YZ
 --------------------------------------------------------
     1   Atom       -0.120985     -0.015456      0.332123
     2   Atom       -0.029222      0.025207      0.192372
     3   Atom       -0.000146      0.010324     -0.001128
     4   Atom        0.008664      0.009132      0.005256
     5   Atom       -0.020642     -0.008070      0.017374
     6   Atom       -0.007511     -0.000998      0.000286
     7   Atom       -0.001180      0.005310     -0.000100
     8   Atom        0.000174      0.003008      0.000816
     9   Atom       -0.000095      0.001727     -0.000137
    10   Atom       -0.000121      0.001370     -0.000195
    11   Atom       -0.000452      0.001994     -0.000458
    12   Atom        0.000509      0.002146      0.000528
    13   Atom       -0.002077      0.003455     -0.004537
    14   Atom       -0.000444      0.000745     -0.001920
    15   Atom        0.000307      0.000152     -0.007143
    16   Atom       -0.002238      0.001894     -0.002804
 --------------------------------------------------------


 ---------------------------------------------------------------------------------
              Anisotropic Spin Dipole Couplings in Principal Axis System
 ---------------------------------------------------------------------------------

       Atom             a.u.   MegaHertz   Gauss  10(-4) cm-1        Axes

              Baa    -1.5329   110.920    39.579    36.999  0.1946 -0.0665  0.9786
     1 O(17)  Bbb    -1.4985   108.428    38.690    36.168  0.9805  0.0405 -0.1922
              Bcc     3.0314  -219.348   -78.269   -73.167 -0.0269  0.9970  0.0730
 
              Baa    -0.8790    63.604    22.696    21.216 -0.3691 -0.0743  0.9264
     2 O(17)  Bbb    -0.7993    57.837    20.638    19.292  0.9293 -0.0178  0.3689
              Bcc     1.6783  -121.441   -43.333   -40.508 -0.0109  0.9971  0.0757
 
              Baa    -0.0108    -1.452    -0.518    -0.484 -0.0711  0.9855  0.1538
     3 C(13)  Bbb    -0.0057    -0.758    -0.271    -0.253 -0.5569 -0.1671  0.8136
              Bcc     0.0165     2.211     0.789     0.737  0.8275 -0.0278  0.5608
 
              Baa    -0.0098    -5.234    -1.868    -1.746 -0.3219  0.9132 -0.2499
     4 H(1)   Bbb    -0.0078    -4.139    -1.477    -1.381 -0.5276  0.0461  0.8483
              Bcc     0.0176     9.374     3.345     3.127  0.7862  0.4049  0.4669
 
              Baa    -0.0216     1.563     0.558     0.521  0.5869  0.7012 -0.4049
     5 O(17)  Bbb    -0.0108     0.784     0.280     0.261  0.6143 -0.0599  0.7868
              Bcc     0.0324    -2.347    -0.837    -0.783 -0.5274  0.7105  0.4658
 
              Baa    -0.0107    -5.709    -2.037    -1.904  0.2492  0.9681 -0.0262
     6 H(1)   Bbb    -0.0097    -5.150    -1.838    -1.718  0.0401  0.0168  0.9991
              Bcc     0.0204    10.859     3.875     3.622  0.9676 -0.2500 -0.0346
 
              Baa    -0.0053    -0.715    -0.255    -0.238  0.6057  0.7438 -0.2824
     7 C(13)  Bbb    -0.0033    -0.446    -0.159    -0.149 -0.6411  0.6665  0.3804
              Bcc     0.0086     1.160     0.414     0.387  0.4712 -0.0494  0.8806
 
              Baa    -0.0048    -2.586    -0.923    -0.863  0.9750  0.0198 -0.2213
     8 H(1)   Bbb    -0.0044    -2.327    -0.830    -0.776 -0.0329  0.9979 -0.0557
              Bcc     0.0092     4.913     1.753     1.639  0.2198  0.0616  0.9736
 
              Baa    -0.0014    -0.191    -0.068    -0.064  0.8476  0.0185 -0.5303
     9 C(13)  Bbb    -0.0010    -0.133    -0.048    -0.044  0.0102  0.9986  0.0512
              Bcc     0.0024     0.325     0.116     0.108  0.5305 -0.0488  0.8463
 
              Baa    -0.0011    -0.562    -0.201    -0.188  0.8451 -0.0134 -0.5344
    10 H(1)   Bbb    -0.0009    -0.505    -0.180    -0.168  0.0531  0.9968  0.0589
              Bcc     0.0020     1.067     0.381     0.356  0.5319 -0.0782  0.8432
 
              Baa    -0.0014    -0.771    -0.275    -0.257 -0.4851  0.5128  0.7083
    11 H(1)   Bbb    -0.0013    -0.697    -0.249    -0.232  0.4371  0.8438 -0.3115
              Bcc     0.0028     1.467     0.524     0.489  0.7574 -0.1584  0.6335
 
              Baa    -0.0015    -0.811    -0.289    -0.271 -0.4151  0.8935  0.1714
    12 H(1)   Bbb    -0.0015    -0.776    -0.277    -0.259 -0.6266 -0.4174  0.6581
              Bcc     0.0030     1.587     0.566     0.529  0.6595  0.1658  0.7332
 
              Baa    -0.0042    -0.564    -0.201    -0.188 -0.0992  0.8188  0.5655
    13 C(13)  Bbb    -0.0034    -0.456    -0.163    -0.152  0.9114  0.3028 -0.2785
              Bcc     0.0076     1.020     0.364     0.340  0.3993 -0.4878  0.7763
 
              Baa    -0.0016    -0.872    -0.311    -0.291  0.6102  0.7452  0.2689
    14 H(1)   Bbb    -0.0016    -0.827    -0.295    -0.276  0.7704 -0.4790 -0.4209
              Bcc     0.0032     1.699     0.606     0.567  0.1848 -0.4640  0.8663
 
              Baa    -0.0051    -2.724    -0.972    -0.909  0.6713 -0.5515 -0.4952
    15 H(1)   Bbb    -0.0044    -2.370    -0.846    -0.791  0.7412  0.4935  0.4550
              Bcc     0.0095     5.094     1.818     1.699 -0.0066 -0.6725  0.7401
 
              Baa    -0.0025    -1.353    -0.483    -0.451  0.7450  0.6508  0.1462
    16 H(1)   Bbb    -0.0022    -1.198    -0.428    -0.400 -0.4879  0.3822  0.7848
              Bcc     0.0048     2.551     0.910     0.851 -0.4549  0.6560 -0.6023
 

 ---------------------------------------------------------------------------------

 Use density number 0.
 Entering OneElI...
 Calculate overlap and kinetic energy integrals
    NBasis = 187  MinDer = 2  MaxDer = 2
 Requested accuracy = 0.1000D-12
 PrsmSu:  NPrtUS=   1 ThrOK=F
 PRISM was handed   130759749 working-precision words and  2542 shell-pairs
 Entering OneElI...
 Calculate potential energy integrals
    NBasis = 187  MinDer = 2  MaxDer = 2
 Requested accuracy = 0.1000D-12
 PrsmSu:  NPrtUS=   8 ThrOK=T
 PRISM was handed    16301175 working-precision words and  2388 shell-pairs
 PRISM was handed    16301175 working-precision words and  2388 shell-pairs
 PRISM was handed    16301175 working-precision words and  2388 shell-pairs
 PRISM was handed    16301175 working-precision words and  2388 shell-pairs
 PRISM was handed    16301175 working-precision words and  2388 shell-pairs
 PRISM was handed    16301175 working-precision words and  2388 shell-pairs
 PRISM was handed    16301175 working-precision words and  2388 shell-pairs
 PRISM was handed    16301175 working-precision words and  2388 shell-pairs
 Polarizability after L701:
                1             2             3
      1  0.548773D+02
      2  0.106579D+01  0.519983D+02
      3  0.613027D+01 -0.264796D+01  0.679110D+02
 Dipole Derivatives after L701:
               1            2            3            4            5
      1-0.265011D+00 0.262548D-03-0.142178D+00-0.375803D+00 0.354467D-01
      2 0.808434D-02-0.160461D+00-0.259489D-01 0.584586D-01-0.186133D+00
      3-0.217138D-01-0.126556D-01 0.599159D-02-0.972959D-01 0.256585D-01
               6            7            8            9           10
      1-0.683601D-01 0.885433D+00-0.213690D+00-0.225058D-01-0.378467D-01
      2 0.507856D-01-0.194960D+00 0.723430D+00 0.109366D+00-0.724300D-02
      3-0.512410D+00 0.136250D+00 0.382678D-01 0.841255D+00-0.474838D-01
              11           12           13           14           15
      1-0.297562D-01 0.109470D-01-0.681671D+00 0.163309D+00 0.222155D+00
      2-0.180419D+00 0.598841D-01 0.972113D-01-0.547361D+00-0.219339D+00
      3-0.435541D-02-0.438915D-01 0.116732D+00-0.172102D+00-0.612632D+00
              16           17           18           19           20
      1 0.374236D+00 0.216509D-01 0.335731D-02 0.973877D-01-0.224659D-02
      2 0.200444D-01 0.261059D+00 0.267030D-01-0.554731D-02 0.109376D+00
      3-0.776950D-01 0.767926D-01 0.271735D+00-0.298571D-01 0.489871D-01
              21           22           23           24           25
      1 0.856992D-02-0.644220D-01 0.687796D-01 0.276342D-01 0.392383D-01
      2 0.629176D-02 0.676245D-01-0.625184D-01-0.322261D-01-0.115216D-01
      3 0.290471D-01 0.417324D-01-0.258974D-01 0.192289D-01 0.696041D-02
              26           27           28           29           30
      1-0.172809D-01-0.443763D-01 0.377337D-01-0.249244D-02-0.263641D-01
      2 0.796697D-01 0.808923D-02-0.127724D-01 0.622536D-01 0.430879D-01
      3 0.218694D-01 0.456005D-01 0.663474D-02 0.650679D-01-0.154844D+00
              31           32           33           34           35
      1-0.398509D-01 0.855605D-01 0.711944D-01 0.185814D-01-0.839560D-01
      2 0.466667D-01 0.726822D-02-0.564104D-01-0.488084D-01-0.156677D+00
      3 0.217471D-01-0.437317D-01 0.416465D-01-0.142730D-01 0.381882D-02
              36           37           38           39           40
      1-0.370809D-02 0.444405D-01-0.244923D-01-0.249846D-01 0.776324D-01
      2 0.343553D-01-0.466823D-01 0.284177D-02 0.138690D-01-0.778656D-02
      3 0.704920D-01-0.143483D-01-0.791217D-02 0.514202D-01 0.373396D-02
              41           42           43           44           45
      1-0.115184D-01 0.225352D-01-0.860860D-01-0.292831D-01-0.870320D-01
      2 0.232185D-01 0.728492D-01-0.550371D-01 0.355011D-01-0.304238D-01
      3 0.426041D-01-0.157958D+00-0.788538D-01-0.270923D-01 0.501552D-01
              46           47           48
      1-0.239919D-01 0.397069D-01 0.531160D-01
      2 0.922687D-01-0.110475D-01-0.609331D-01
      3 0.477303D-01-0.293189D-01 0.551638D-01
 Hessian after L701:
                1             2             3             4             5
      1  0.634121D+01
      2  0.635930D+00  0.949276D+01
      3 -0.149225D+01  0.160223D+01 -0.589569D+01
      4 -0.707283D+01 -0.185918D-01  0.324525D+00  0.562219D+01
      5 -0.265881D-02 -0.870104D+01 -0.115327D+01  0.581255D+00  0.156687D+02
      6  0.262866D+00 -0.118615D+01  0.605161D+01 -0.415523D+01  0.200789D+01
      7  0.450986D+00 -0.902686D-02  0.195273D+00  0.999478D+00  0.915154D-01
      8 -0.678373D-01  0.200573D-01 -0.197825D-01  0.633754D-01 -0.652579D+01
      9  0.287525D+00  0.770834D-01 -0.434245D+00  0.295851D+01 -0.107520D+00
     10 -0.190245D-01  0.232594D-01  0.595766D-01 -0.191059D+00 -0.118326D+00
     11  0.711560D-01 -0.219972D-01  0.806914D-01 -0.939620D-01  0.233584D+00
     12  0.435976D-01  0.267760D-01  0.490779D-02 -0.980915D-01 -0.362522D-01
     13  0.335434D+00 -0.348312D+00  0.419465D+00  0.972596D+00 -0.234013D+00
     14 -0.397545D+00 -0.295369D+00 -0.205946D+00 -0.234174D+00 -0.280639D+00
     15  0.572586D+00 -0.247734D+00 -0.193439D+00  0.690648D-01 -0.705381D-01
     16  0.245021D+00 -0.193930D+00  0.825587D-01 -0.320220D-01  0.286858D-01
     17 -0.157540D+00 -0.177281D+00 -0.251116D-01  0.468638D-01 -0.109338D-01
     18 -0.938004D-01  0.309585D-01 -0.247901D+00 -0.593358D-01  0.509644D-02
     19 -0.123877D+00 -0.408908D-01  0.245437D+00 -0.116950D+00 -0.169274D+00
     20 -0.429020D-01 -0.174158D+00 -0.123514D+00 -0.192609D+00 -0.163549D+00
     21  0.230937D+00 -0.113930D+00  0.437415D+00  0.336309D+00 -0.176079D+00
     22 -0.228097D-01 -0.171456D-03 -0.156393D-01 -0.621476D-01 -0.408179D-02
     23  0.294573D-02 -0.177591D-01  0.209683D-01  0.131725D-01 -0.771605D-01
     24  0.322583D-02  0.649898D-02  0.551111D-01  0.896815D-01 -0.121303D-01
     25 -0.222274D-01 -0.229809D-02  0.658542D-01  0.966534D-01 -0.370021D-02
     26 -0.538090D-02 -0.699065D-01 -0.895749D-02 -0.618850D-02 -0.156205D+00
     27  0.824962D-01 -0.604000D-02  0.451890D-01  0.257788D+00 -0.542778D-02
     28 -0.276110D-02 -0.506042D-03  0.550440D-02 -0.441157D-04 -0.913270D-03
     29 -0.239800D-02 -0.537254D-02 -0.429429D-02 -0.413560D-02 -0.962809D-02
     30  0.134416D-01 -0.271680D-02  0.194848D-01  0.273781D-01 -0.419294D-02
     31  0.141712D-01 -0.525785D-02  0.205675D-01  0.390140D-01 -0.114321D-01
     32 -0.106305D-01 -0.600567D-02 -0.952576D-02 -0.210677D-01 -0.111555D-01
     33  0.671000D-02 -0.133210D-02 -0.225443D-02  0.140464D-01 -0.259344D-02
     34  0.359552D-02  0.355354D-02  0.151830D-01  0.146561D-01  0.104355D-01
     35  0.146719D-01 -0.418563D-02  0.175434D-01  0.311975D-01 -0.494331D-02
     36  0.116432D-01  0.332364D-02  0.565397D-02  0.204619D-01  0.726667D-02
     37 -0.998608D-01 -0.442793D-01  0.775747D-01 -0.158813D+00 -0.159117D+00
     38 -0.242415D-01 -0.533714D-01 -0.998541D-01 -0.898911D-01 -0.686720D-01
     39  0.623794D-01 -0.143492D+00  0.122244D+00  0.167754D+00 -0.289849D+00
     40 -0.756987D-02 -0.108786D-02  0.247527D-02 -0.159380D-01 -0.382206D-02
     41 -0.242423D-02 -0.138403D-02 -0.129857D-01 -0.814550D-02  0.100383D-02
     42  0.619809D-02 -0.165298D-01  0.257019D-01  0.151912D-01 -0.356958D-01
     43 -0.197141D-01  0.227182D-01 -0.288093D-01 -0.102449D+00  0.437758D-01
     44  0.528231D-02  0.262701D-02 -0.310780D-01 -0.268723D-01  0.730803D-01
     45 -0.480264D-02 -0.180690D-01  0.697113D-02  0.221439D-01 -0.112163D+00
     46  0.256968D-03 -0.211094D-01  0.227024D-01  0.766606D-02 -0.483296D-01
     47 -0.164276D-01  0.123816D-01 -0.271122D-01 -0.402272D-01  0.333078D-01
     48  0.724722D-02 -0.108790D-01 -0.758200D-03  0.980028D-02 -0.145383D-01
                6             7             8             9            10
      6 -0.159713D+01
      7  0.306274D+01  0.163317D+02
      8 -0.109982D+00  0.327679D+01  0.199934D+02
      9 -0.489135D+01  0.730170D+00 -0.158938D+01  0.165205D+02
     10 -0.843104D-01 -0.482594D+01  0.104606D+01 -0.855586D-01  0.489746D+01
     11 -0.168924D-01  0.102808D+01 -0.156498D+01 -0.223134D+00 -0.124281D+01
     12  0.168687D+00 -0.774288D-01 -0.222525D+00 -0.514347D+01 -0.122383D+00
     13 -0.377311D-02 -0.641729D+01 -0.450292D+01 -0.406630D+01  0.119379D-02
     14 -0.449607D-01 -0.449635D+01 -0.588485D+01  0.376047D+01  0.304403D+00
     15 -0.362749D+00 -0.400280D+01  0.370854D+01 -0.635780D+01  0.126189D+00
     16  0.943780D-02  0.102594D+00 -0.371200D-02  0.107720D+00  0.118036D-01
     17 -0.194860D-01 -0.931522D-03  0.103366D+00 -0.100111D+00  0.144889D-01
     18  0.239513D-01 -0.227796D-01 -0.871341D-02  0.601060D-02  0.191652D-01
     19  0.367553D+00 -0.650858D+01  0.564851D-01 -0.506698D-01  0.182907D+00
     20 -0.216023D+00  0.595279D-01 -0.628814D+01 -0.136550D+01 -0.960831D-01
     21  0.242174D+00 -0.113231D+00 -0.137347D+01 -0.654781D+00  0.100379D+00
     22  0.204453D-01  0.598393D-01  0.189538D-01  0.116912D+00  0.270976D-02
     23  0.362535D-01  0.306021D-01  0.147518D+00 -0.598125D-01 -0.714053D-02
     24  0.135734D+00  0.178522D+00 -0.798091D-01 -0.139357D-01  0.739535D-02
     25  0.232418D+00 -0.121720D+00  0.435940D-01  0.667882D-02 -0.808954D-02
     26 -0.546970D-02 -0.155228D-01 -0.262670D-01 -0.522689D-01 -0.915461D-03
     27  0.777077D-01  0.460553D-01  0.132431D-01  0.370903D+00 -0.134793D-02
     28  0.109173D-01 -0.205693D-01 -0.124484D-01  0.794709D-01 -0.186321D-02
     29 -0.672189D-02 -0.127878D-01 -0.474720D-01 -0.277735D-01  0.225112D-03
     30  0.270461D-01  0.888946D-01 -0.237525D-01  0.170965D+00 -0.131270D-02
     31  0.350312D-01 -0.186063D-01  0.498888D-02 -0.150485D-01 -0.188813D-02
     32 -0.128284D-01 -0.185179D-01  0.734906D-02 -0.155239D-01 -0.745621D-04
     33 -0.705223D-02 -0.398116D-01  0.359531D-02 -0.221774D-01 -0.100297D-02
     34  0.263907D-01 -0.103651D-01  0.184095D-01  0.179649D-01 -0.325816D-02
     35  0.267386D-01  0.348297D-01  0.134405D-01  0.449337D-01  0.165197D-02
     36  0.158489D-02  0.117212D-01  0.195363D-01  0.592248D-02  0.302208D-01
     37  0.213926D+00 -0.139157D-01  0.397844D-01 -0.444037D-01 -0.435045D-01
     38 -0.234885D+00  0.267336D-01  0.792138D-01 -0.229237D+00  0.607536D-01
     39  0.105718D+00 -0.323411D-01 -0.235894D+00  0.337503D+00 -0.422107D-01
     40  0.671635D-02 -0.454348D-01  0.273048D-01 -0.360820D-01 -0.238619D-03
     41 -0.300752D-01  0.242688D-01  0.421178D-01 -0.125852D+00  0.804335D-03
     42  0.443182D-01 -0.321781D-01 -0.127789D+00  0.112611D+00 -0.246241D-02
     43 -0.364249D-01  0.202604D-01  0.166154D-01 -0.222796D-01  0.447190D-02
     44 -0.148897D+00 -0.174092D-02 -0.260004D-01 -0.267236D-02  0.108114D-01
     45 -0.386145D-02  0.411397D-02  0.139243D-01 -0.203343D-02 -0.270996D-02
     46  0.312954D-01  0.175479D-01 -0.254432D-01  0.153935D-01 -0.568109D-02
     47 -0.385085D-01 -0.174686D-01 -0.429273D-01  0.163021D-01  0.289455D-02
     48 -0.163811D-01  0.308331D-02  0.322599D-01 -0.462187D-02  0.373557D-03
               11            12            13            14            15
     11  0.104726D+01
     12  0.283375D+00  0.488721D+01
     13  0.286969D+00  0.121974D+00  0.126305D+02
     14  0.227686D+00 -0.134062D+00  0.446830D+01  0.138587D+02
     15 -0.138505D+00  0.702344D-01  0.335208D+01 -0.186691D+01  0.720814D+01
     16  0.198384D-01  0.167748D-01 -0.702929D+01 -0.929921D-01  0.148315D+00
     17 -0.347447D-01 -0.491732D-01 -0.148927D+00 -0.678693D+01 -0.973704D+00
     18 -0.280668D-01 -0.269837D-01  0.538883D+00 -0.117720D+01 -0.149121D+01
     19 -0.121147D+00  0.106818D+00  0.157914D-01  0.316814D+00  0.635548D-01
     20 -0.695204D-01  0.253051D+00  0.333932D+00 -0.191666D+00 -0.407864D+00
     21  0.255863D+00  0.411946D-01  0.114086D-01 -0.367056D+00  0.106738D+00
     22  0.609785D-02  0.715192D-02  0.251571D-01 -0.557327D-01 -0.110054D+00
     23 -0.442453D-02  0.100708D-01 -0.564573D-01 -0.114526D-01  0.834963D-01
     24 -0.312410D-03 -0.147880D-01 -0.109190D+00  0.810213D-01  0.914825D-01
     25 -0.439110D-02 -0.146220D-02 -0.260012D+00  0.110654D-01  0.374398D-01
     26  0.382375D-02 -0.229359D-02  0.326185D-01 -0.238613D+00  0.190404D+00
     27 -0.206338D-01 -0.300291D-01  0.103464D+00  0.191672D+00  0.403731D+00
     28 -0.126389D-02  0.110853D-02 -0.154150D-01  0.715229D-03  0.383461D-02
     29  0.269984D-02 -0.329967D-02  0.378733D-03 -0.173694D-01 -0.903761D-03
     30 -0.140008D-01  0.659965D-02  0.182177D-02  0.116509D-01  0.532341D-01
     31 -0.116845D-01  0.254801D-02 -0.311937D-01  0.153768D-01  0.155119D+00
     32  0.826295D-02 -0.284898D-02 -0.113248D-01 -0.100251D+00 -0.192548D-01
     33  0.217461D-02 -0.309379D-02  0.815837D-01  0.170154D-01  0.120702D+00
     34 -0.127047D-01  0.381274D-01 -0.200951D-01  0.161471D-01  0.190668D-01
     35 -0.341045D-01  0.890629D-02  0.149887D-01  0.242419D-01  0.572840D-01
     36 -0.154985D-01  0.356390D-01  0.122596D-01  0.316167D-01  0.149321D-01
     37  0.612526D-01 -0.348327D-01 -0.135550D+00  0.953933D-01 -0.341230D+00
     38  0.161482D+00 -0.119328D+00  0.568229D-01 -0.300364D+00 -0.847448D-01
     39 -0.148365D+00  0.900077D-02 -0.356091D+00 -0.151503D+00  0.261340D+00
     40  0.661416D-03  0.611177D-03 -0.100968D-01  0.511663D-02 -0.179726D-01
     41  0.163226D-02  0.267310D-02  0.982326D-02 -0.107993D-01 -0.208911D-01
     42 -0.853969D-02  0.703100D-03 -0.284469D-01 -0.169425D-01  0.438644D-01
     43  0.217230D-01 -0.567534D-02  0.518732D-01  0.384935D-01 -0.618653D-01
     44  0.175072D-01 -0.719668D-02  0.334951D-01 -0.220501D-01 -0.242640D-01
     45 -0.397442D-02 -0.300729D-02 -0.270028D-01 -0.133782D-01 -0.124890D-01
     46 -0.781193D-02  0.116246D-02 -0.113646D+00  0.496982D-02 -0.133255D-01
     47  0.258365D-01 -0.787297D-02  0.646255D-01  0.297027D-01 -0.184407D+00
     48 -0.418028D-02 -0.280702D-02 -0.521346D-01 -0.115484D+00  0.432992D-01
               16            17            18            19            20
     16  0.678390D+01
     17  0.240829D+00  0.700083D+01
     18 -0.276892D+00  0.117742D+01  0.131663D+01
     19 -0.550694D-01 -0.186818D-02 -0.894103D-01  0.170073D+02
     20 -0.200922D-02 -0.727594D-01  0.102295D-01 -0.105573D+01  0.173421D+02
     21 -0.953423D-01  0.166256D-01  0.316361D+00 -0.153774D+01  0.109722D+01
     22 -0.988494D-03  0.218592D-02 -0.484214D-02 -0.332812D+01 -0.122516D+01
     23  0.624382D-03 -0.270492D-03  0.477754D-02 -0.125475D+01 -0.381075D+01
     24  0.564501D-02 -0.471945D-02 -0.218614D-02 -0.953769D+00  0.771050D+00
     25 -0.115839D-01  0.156308D-02 -0.277914D-02 -0.201976D+01  0.881526D+00
     26  0.103530D-02 -0.119310D-01  0.321865D-02  0.888698D+00 -0.567293D+01
     27  0.806994D-02 -0.288862D-02  0.471431D-01  0.209816D+01  0.505189D+00
     28 -0.102367D-02  0.152849D-04  0.612234D-03  0.272298D-01  0.273510D-01
     29 -0.151470D-03 -0.787550D-03 -0.171098D-02  0.452933D-02  0.490139D-01
     30  0.816232D-03 -0.167036D-02  0.153584D-01 -0.839795D-02  0.292718D-01
     31  0.626887D-03 -0.188253D-02  0.669363D-02  0.980937D-02  0.153473D-01
     32 -0.938807D-03  0.108421D-02 -0.679559D-02 -0.386530D-01  0.106016D+00
     33 -0.234072D-02 -0.104611D-04 -0.839577D-02 -0.728390D-01  0.223203D-01
     34 -0.821525D-03 -0.247205D-03  0.400545D-02  0.100598D-01 -0.573693D-01
     35  0.103751D-02 -0.173848D-02  0.126276D-01 -0.157822D-01  0.811926D-01
     36  0.676392D-03  0.705194D-04  0.394881D-02 -0.269495D-01 -0.413227D-01
     37 -0.126872D-01  0.392142D-02 -0.106258D-01 -0.537613D+01  0.141158D+01
     38  0.103059D-02 -0.916098D-02 -0.610517D-02  0.145413D+01 -0.116662D+01
     39 -0.420170D-02 -0.168115D-01  0.409125D-01 -0.146060D+00 -0.578051D+00
     40 -0.923560D-03  0.443528D-03 -0.264312D-02  0.579513D-01 -0.667072D-02
     41  0.496700D-03  0.167721D-03 -0.460794D-02  0.586359D-02  0.175136D-01
     42 -0.131469D-02 -0.352667D-02  0.135552D-01 -0.143517D-01  0.213606D-01
     43  0.973182D-03  0.444177D-02 -0.153035D-01  0.921245D-01 -0.822978D-02
     44  0.137068D-02 -0.335858D-04 -0.567216D-02 -0.581458D-01  0.127342D-01
     45 -0.163339D-02 -0.105809D-02 -0.147322D-04  0.303449D-01  0.579005D-02
     46 -0.513292D-03 -0.335632D-02  0.905298D-02  0.125253D+00 -0.425053D-01
     47 -0.121493D-02  0.111819D-02 -0.545294D-02  0.297149D-01  0.149577D-02
     48  0.171073D-02  0.415584D-02 -0.717831D-02 -0.116876D-01  0.167930D-01
               21            22            23            24            25
     21  0.142188D+02
     22 -0.799259D+00  0.314800D+01
     23  0.664192D+00  0.148650D+01  0.368529D+01
     24 -0.437075D+01  0.958658D+00 -0.867859D+00  0.394130D+01
     25  0.200761D+01 -0.236348D-01 -0.485643D-01 -0.680903D-01  0.129645D+02
     26  0.474421D+00 -0.354897D-01  0.111445D+00  0.246306D-01 -0.691054D+00
     27 -0.489060D+01 -0.737520D-01  0.217846D-01  0.895173D-01 -0.150610D+01
     28 -0.591371D-01 -0.307238D-01  0.147107D-01 -0.284050D-01 -0.411503D+01
     29 -0.157235D-01  0.971214D-02  0.147475D-01  0.863686D-02  0.840051D-02
     30  0.741842D-01 -0.224373D-01  0.243025D-02 -0.426013D-02 -0.797327D-01
     31  0.634496D-02  0.128443D+00 -0.645782D-01 -0.295824D-01 -0.273221D+01
     32  0.648207D-02 -0.573119D-01 -0.994759D-02  0.896842D-02 -0.108623D+01
     33  0.102208D+00 -0.171117D-01  0.562097D-02 -0.309858D-01 -0.777916D+00
     34  0.524625D-02 -0.406924D-01 -0.193074D-01 -0.338277D-02 -0.396220D+01
     35  0.752808D-02 -0.849487D-02  0.534013D-02 -0.536135D-02  0.681003D+00
     36  0.593331D-01 -0.783189D-02 -0.104468D-02  0.154436D-01 -0.300290D-01
     37 -0.846007D-01  0.129799D+00 -0.355362D-01 -0.287316D-01  0.121823D+00
     38 -0.442912D+00 -0.556679D-01 -0.658522D-01  0.113747D-01  0.998887D-01
     39 -0.592483D+01 -0.315602D-01  0.296008D-01  0.109326D+00  0.709045D-01
     40  0.199980D-01  0.176997D-01  0.523600D-02 -0.181217D-02  0.154516D-02
     41  0.747799D-01  0.478327D-02 -0.475928D-01  0.211747D-01  0.413854D-02
     42  0.562626D-01  0.512584D-02  0.167037D-01  0.887868D-02 -0.172412D-01
     43 -0.175556D-01  0.173027D-02 -0.463186D-02  0.995546D-03  0.106878D+00
     44 -0.540929D-01 -0.154751D-01 -0.311514D-01 -0.154049D-01  0.102960D+00
     45  0.728448D-01 -0.721477D-02 -0.732971D-02  0.982605D-02  0.533027D-01
     46 -0.113742D-01 -0.426738D-02 -0.628216D-01 -0.211602D-01 -0.149688D-01
     47 -0.538506D-01 -0.706486D-01  0.112015D+00  0.522407D-01  0.209603D-02
     48  0.113470D+00 -0.185908D-01  0.401470D-01 -0.197185D-01  0.913904D-02
               26            27            28            29            30
     26  0.150694D+02
     27 -0.600602D+00  0.135389D+02
     28 -0.229062D-01  0.457431D-01  0.405985D+01
     29 -0.396017D+01 -0.565507D+00 -0.279970D-01  0.390478D+01
     30 -0.662022D+00 -0.155540D+01 -0.156918D+00  0.565731D+00  0.120573D+01
     31 -0.123734D+01 -0.102901D+01  0.430033D-01  0.171883D-01  0.687540D-01
     32 -0.351402D+01  0.668719D+00 -0.286127D-03  0.729758D-01 -0.141489D-01
     33  0.573382D+00 -0.388644D+01  0.730396D-01 -0.473218D-01 -0.358593D-01
     34  0.799664D+00 -0.891418D-01  0.654359D-01 -0.229491D-01  0.228848D-01
     35 -0.164678D+01 -0.238561D+00 -0.109193D-01 -0.427650D-02  0.645076D-01
     36 -0.613529D-01 -0.418595D+01  0.187585D-01  0.907780D-01  0.209554D-01
     37  0.189500D+00  0.807605D-02 -0.223157D-01  0.320747D-02  0.184859D-01
     38  0.104930D+00 -0.250136D-02  0.111690D-02 -0.596825D-02  0.127872D-01
     39  0.836697D-01  0.871470D-02  0.486585D-03  0.465128D-02  0.138268D-01
     40  0.996730D-02 -0.917249D-02  0.124407D-01  0.261834D-01  0.184605D-01
     41 -0.171566D-01 -0.966287D-02  0.299456D-01  0.938876D-02  0.198024D-01
     42 -0.245473D-01  0.295388D-02  0.914903D-04  0.143728D-02 -0.260174D-01
     43  0.108066D+00  0.599223D-01  0.423941D-02  0.203630D-02  0.146345D-01
     44  0.185705D-01  0.420280D-01  0.353217D-02 -0.124597D-02  0.581498D-02
     45  0.388123D-01 -0.296968D-01  0.456510D-02  0.154394D-02  0.668856D-02
     46 -0.147533D-01 -0.124961D-02 -0.245265D-02 -0.144235D-02 -0.677353D-02
     47  0.578036D-02  0.918869D-02 -0.146677D-03 -0.131730D-02  0.105075D-01
     48  0.289753D-01 -0.662551D-02  0.327910D-03  0.477983D-03  0.746498D-02
               31            32            33            34            35
     31  0.243640D+01
     32  0.116710D+01  0.352387D+01
     33  0.753783D+00 -0.553970D+00  0.373386D+01
     34  0.779151D-01  0.618628D-01  0.220636D-02  0.383969D+01
     35  0.487055D-01 -0.737247D-01 -0.156838D-01 -0.919472D+00  0.150754D+01
     36  0.125349D-01 -0.583600D-01  0.751581D-01 -0.676176D-01  0.127951D-03
     37  0.956152D-02 -0.684797D-02 -0.233873D-01  0.288586D-01  0.119473D+00
     38  0.325590D-02 -0.103541D-01 -0.646828D-02  0.116393D+00  0.117721D+00
     39  0.217798D-02 -0.855299D-03 -0.169873D-01  0.115764D-01  0.217314D-01
     40  0.296451D-02 -0.226344D-02 -0.325936D-02  0.117281D-02  0.657016D-02
     41  0.361783D-02 -0.338136D-02 -0.270720D-02  0.602742D-02  0.865856D-02
     42 -0.112124D-01  0.324101D-02  0.485862D-02 -0.511100D-02 -0.114997D-01
     43  0.118438D-01 -0.317875D-02 -0.330983D-02 -0.780550D-03  0.459320D-02
     44  0.334766D-02 -0.248103D-02 -0.810448D-03 -0.497794D-02 -0.111238D-02
     45  0.423602D-02 -0.120584D-02 -0.284852D-02  0.798252D-03  0.300974D-02
     46  0.101459D-01  0.283557D-01  0.960995D-02 -0.317658D-02 -0.405327D-02
     47  0.532415D-01  0.117631D-01  0.678887D-02  0.453466D-02  0.127340D-01
     48  0.170687D-01  0.790705D-02 -0.206875D-01  0.180287D-02  0.616780D-02
               36            37            38            39            40
     36  0.399917D+01
     37  0.170610D-01  0.151184D+02
     38  0.273394D-01 -0.977270D+00  0.128648D+02
     39 -0.497691D-01  0.181768D+00  0.933334D+00  0.146241D+02
     40 -0.112683D-02 -0.416819D+01  0.605709D-01 -0.262232D+00  0.406313D+01
     41 -0.175513D-02  0.524127D-01 -0.398887D+01 -0.779792D+00 -0.154076D+00
     42 -0.660508D-03 -0.199846D+00 -0.664607D+00 -0.167906D+01  0.281311D+00
     43 -0.179805D-02 -0.216143D+01  0.420214D+00  0.122117D+01  0.454444D-01
     44 -0.241955D-02  0.612211D+00 -0.436471D+01  0.352723D+00  0.709773D-02
     45  0.239570D-03  0.100522D+01  0.209976D+00 -0.395187D+01 -0.879555D-01
     46  0.154616D-04 -0.321601D+01 -0.115384D+01 -0.843518D+00  0.460378D-01
     47  0.169426D-02 -0.136568D+01 -0.329421D+01  0.918902D+00  0.187685D-01
     48 -0.160384D-02 -0.754456D+00  0.695832D+00 -0.401015D+01  0.926842D-01
               41            42            43            44            45
     41  0.383092D+01
     42  0.914856D+00  0.148062D+01
     43  0.962306D-02 -0.589392D-01  0.201589D+01
     44  0.750591D-01 -0.328097D-02 -0.719258D+00  0.417790D+01
     45  0.367528D-02 -0.400517D-01 -0.101986D+01 -0.119020D+00  0.386719D+01
     46  0.128409D-01  0.631864D-01 -0.713591D-01  0.463616D-01  0.264565D-01
     47  0.827197D-01 -0.446406D-01  0.429971D-01  0.713106D-01 -0.533100D-03
     48 -0.486315D-01 -0.485358D-01 -0.248944D-01  0.142435D-01  0.821096D-01
               46            47            48
     46  0.322517D+01
     47  0.129294D+01  0.293829D+01
     48  0.718526D+00 -0.653246D+00  0.389273D+01
 ReadGW:  IGet=0 IStart=         114 Next=        7227 LGW=        7113.
 ICntrl=12127.
 Symmetry not used in FoFDir.
 MinBra= 0 MaxBra= 2 Meth= 1.
 IRaf=       0 NMat=   1 IRICut=       1 DoRegI=T DoRafI=F ISym2E= 0 JSym2E=0.
 PrsmSu:  NPrtUS=   8 ThrOK=T
 PRISM was handed    16287287 working-precision words and  2463 shell-pairs
 PRISM was handed    16287287 working-precision words and  2463 shell-pairs
 PRISM was handed    16287287 working-precision words and  2463 shell-pairs
 PRISM was handed    16287287 working-precision words and  2463 shell-pairs
 PRISM was handed    16287287 working-precision words and  2463 shell-pairs
 PRISM was handed    16287287 working-precision words and  2463 shell-pairs
 PRISM was handed    16287287 working-precision words and  2463 shell-pairs
 PRISM was handed    16287287 working-precision words and  2463 shell-pairs
 Pruned (  75, 302) grid will be used in CalDFT.
 CkSvGd:  ISavGI=        -1 IRadAn=       4 IRASav=       4 ISavGd=        -1.
 CalDSu:  NPrtUS=   8 ThrOK=T
 IPart= 0 IRanGd=          0 ScrnBf=T ScrnGd=T RCrit=4.00D+00 DoMicB=T.
 IPart= 5 IRanGd=          0 ScrnBf=T ScrnGd=T RCrit=4.00D+00 DoMicB=T.
 IPart= 3 IRanGd=          0 ScrnBf=T ScrnGd=T RCrit=4.00D+00 DoMicB=T.
 IPart= 1 IRanGd=          0 ScrnBf=T ScrnGd=T RCrit=4.00D+00 DoMicB=T.
 CutRad = 1000.00    CtRdIn =    0.00    XCrit =  15.00   ICut = 0
 IPart= 7 IRanGd=          0 ScrnBf=T ScrnGd=T RCrit=4.00D+00 DoMicB=T.
 IPart= 4 IRanGd=          0 ScrnBf=T ScrnGd=T RCrit=4.00D+00 DoMicB=T.
 CutRad = 1000.00    CtRdIn =    0.00    XCrit =  15.00   ICut = 0
 CutRad = 1000.00    CtRdIn =    0.00    XCrit =  15.00   ICut = 0
 CutRad = 1000.00    CtRdIn =    0.00    XCrit =  15.00   ICut = 0
 CutRad = 1000.00    CtRdIn =    0.00    XCrit =  15.00   ICut = 0
 IPart= 2 IRanGd=          0 ScrnBf=T ScrnGd=T RCrit=4.00D+00 DoMicB=T.
 IPart= 6 IRanGd=          0 ScrnBf=T ScrnGd=T RCrit=4.00D+00 DoMicB=T.
 CutRad = 1000.00    CtRdIn =    0.00    XCrit =  15.00   ICut = 0
 CutRad = 1000.00    CtRdIn =    0.00    XCrit =  15.00   ICut = 0
 CutRad = 1000.00    CtRdIn =    0.00    XCrit =  15.00   ICut = 0
 IPart= 6        13260 of        15632 points in      32 batches and       89 microbatches, Max-NSigAt=      16 Max-NSgAt2=      16
 IPart= 3        14842 of        16618 points in      35 batches and      110 microbatches, Max-NSigAt=      16 Max-NSgAt2=      16
 IPart= 0        13470 of        15474 points in      31 batches and       85 microbatches, Max-NSigAt=      16 Max-NSgAt2=      16
 IPart= 2        13518 of        15244 points in      32 batches and      108 microbatches, Max-NSigAt=      16 Max-NSgAt2=      16
 IPart= 5        13905 of        15724 points in      33 batches and      100 microbatches, Max-NSigAt=      16 Max-NSgAt2=      16
 IPart= 1        14468 of        16478 points in      32 batches and       92 microbatches, Max-NSigAt=      16 Max-NSgAt2=      16
 IPart= 4        14173 of        16196 points in      32 batches and       80 microbatches, Max-NSigAt=      16 Max-NSgAt2=      16
 IPart= 7        14221 of        16424 points in      35 batches and      111 microbatches, Max-NSigAt=      16 Max-NSgAt2=      16
 Polarizability after L703:
                1             2             3
      1  0.548773D+02
      2  0.106579D+01  0.519983D+02
      3  0.613027D+01 -0.264796D+01  0.679110D+02
 Dipole Derivatives after L703:
               1            2            3            4            5
      1-0.265011D+00 0.262548D-03-0.142178D+00-0.375803D+00 0.354467D-01
      2 0.808434D-02-0.160461D+00-0.259489D-01 0.584586D-01-0.186133D+00
      3-0.217138D-01-0.126556D-01 0.599159D-02-0.972959D-01 0.256585D-01
               6            7            8            9           10
      1-0.683601D-01 0.885433D+00-0.213690D+00-0.225058D-01-0.378467D-01
      2 0.507856D-01-0.194960D+00 0.723430D+00 0.109366D+00-0.724300D-02
      3-0.512410D+00 0.136250D+00 0.382678D-01 0.841255D+00-0.474838D-01
              11           12           13           14           15
      1-0.297562D-01 0.109470D-01-0.681671D+00 0.163309D+00 0.222155D+00
      2-0.180419D+00 0.598841D-01 0.972113D-01-0.547361D+00-0.219339D+00
      3-0.435541D-02-0.438915D-01 0.116732D+00-0.172102D+00-0.612632D+00
              16           17           18           19           20
      1 0.374236D+00 0.216509D-01 0.335731D-02 0.973877D-01-0.224659D-02
      2 0.200444D-01 0.261059D+00 0.267030D-01-0.554731D-02 0.109376D+00
      3-0.776950D-01 0.767926D-01 0.271735D+00-0.298571D-01 0.489871D-01
              21           22           23           24           25
      1 0.856992D-02-0.644220D-01 0.687796D-01 0.276342D-01 0.392383D-01
      2 0.629176D-02 0.676245D-01-0.625184D-01-0.322261D-01-0.115216D-01
      3 0.290471D-01 0.417324D-01-0.258974D-01 0.192289D-01 0.696041D-02
              26           27           28           29           30
      1-0.172809D-01-0.443763D-01 0.377337D-01-0.249244D-02-0.263641D-01
      2 0.796697D-01 0.808923D-02-0.127724D-01 0.622536D-01 0.430879D-01
      3 0.218694D-01 0.456005D-01 0.663474D-02 0.650679D-01-0.154844D+00
              31           32           33           34           35
      1-0.398509D-01 0.855605D-01 0.711944D-01 0.185814D-01-0.839560D-01
      2 0.466667D-01 0.726822D-02-0.564104D-01-0.488084D-01-0.156677D+00
      3 0.217471D-01-0.437317D-01 0.416465D-01-0.142730D-01 0.381882D-02
              36           37           38           39           40
      1-0.370809D-02 0.444405D-01-0.244923D-01-0.249846D-01 0.776324D-01
      2 0.343553D-01-0.466823D-01 0.284177D-02 0.138690D-01-0.778656D-02
      3 0.704920D-01-0.143483D-01-0.791217D-02 0.514202D-01 0.373396D-02
              41           42           43           44           45
      1-0.115184D-01 0.225352D-01-0.860860D-01-0.292831D-01-0.870320D-01
      2 0.232185D-01 0.728492D-01-0.550371D-01 0.355011D-01-0.304238D-01
      3 0.426041D-01-0.157958D+00-0.788538D-01-0.270923D-01 0.501552D-01
              46           47           48
      1-0.239919D-01 0.397069D-01 0.531160D-01
      2 0.922687D-01-0.110475D-01-0.609331D-01
      3 0.477303D-01-0.293189D-01 0.551638D-01
 Hessian after L703:
                1             2             3             4             5
      1  0.608041D-01
      2 -0.296759D-02  0.643308D-02
      3  0.256951D-01 -0.341006D-01  0.444553D+00
      4 -0.561141D-01 -0.421422D-02 -0.346709D-02  0.234878D+00
      5 -0.475132D-02 -0.489336D-02  0.322604D-01  0.141653D-01  0.511812D-01
      6  0.344119D-01  0.290046D-01 -0.400722D+00 -0.214924D-01 -0.280830D-01
      7 -0.315449D-02  0.771225D-02 -0.267157D-01 -0.839195D-01 -0.230954D-01
      8  0.933194D-02 -0.526344D-02  0.786583D-02 -0.311759D-01 -0.495248D-01
      9 -0.446139D-01  0.897480D-03 -0.509693D-01  0.417212D-01 -0.296846D-02
     10  0.244832D-02 -0.106395D-03  0.299060D-02 -0.315057D-01 -0.275989D-01
     11  0.162737D-02  0.116538D-02 -0.118160D-02 -0.727463D-02  0.413601D-03
     12  0.590293D-03  0.197246D-03  0.338691D-02 -0.165852D-01 -0.122133D-01
     13  0.543594D-03  0.194257D-02  0.785447D-02 -0.638559D-01  0.302145D-01
     14 -0.259958D-03  0.356063D-02 -0.250937D-02  0.247673D-01  0.533019D-03
     15 -0.113227D-01  0.441120D-02  0.632461D-03  0.122428D-01  0.211351D-02
     16  0.237967D-02 -0.266452D-02  0.109845D-02 -0.214437D-02  0.186483D-02
     17 -0.257880D-02 -0.224340D-02 -0.853945D-03  0.331286D-02  0.128600D-02
     18 -0.131201D-02 -0.664827D-03  0.300167D-02 -0.521528D-02  0.258633D-02
     19 -0.799043D-02  0.591098D-03 -0.883928D-02  0.417502D-03  0.795829D-02
     20 -0.824123D-03  0.852135D-03 -0.252452D-02  0.203258D-03  0.830982D-03
     21 -0.679871D-03  0.536440D-04  0.227972D-02 -0.109982D-01  0.379855D-02
     22  0.309358D-03 -0.318918D-03  0.658669D-03  0.140606D-03 -0.100104D-03
     23 -0.383110D-03  0.481247D-04 -0.138140D-03  0.439105D-03  0.351660D-03
     24 -0.336030D-03  0.668195D-04  0.700921D-03 -0.971721D-04 -0.383422D-04
     25  0.919103D-03 -0.202882D-03  0.165817D-02  0.856773D-03 -0.388407D-03
     26  0.941148D-03  0.761390D-05  0.145273D-02  0.930823D-04 -0.214135D-03
     27 -0.211677D-02  0.317053D-03 -0.232755D-02  0.193824D-02  0.798223D-03
     28 -0.644319D-03  0.953310D-04 -0.978135D-03  0.388010D-03  0.247298D-03
     29 -0.171684D-03  0.503322D-04 -0.115295D-03  0.247869D-03  0.317792D-03
     30 -0.455103D-03  0.530407D-04 -0.537850D-03  0.472701D-03  0.460241D-04
     31  0.174239D-03 -0.737000D-04 -0.119897D-03  0.140313D-03 -0.164729D-03
     32 -0.503832D-05  0.158984D-04 -0.217516D-04 -0.197091D-03  0.139917D-04
     33  0.114702D-03 -0.137048D-05 -0.632918D-04  0.255870D-03 -0.206516D-03
     34  0.727645D-04  0.360468D-04  0.723553D-04  0.252069D-03  0.368410D-03
     35 -0.532053D-04  0.442032D-04 -0.596783D-04  0.231717D-03  0.401958D-03
     36  0.893886D-04  0.119485D-05  0.100886D-03  0.273746D-03  0.241091D-03
     37 -0.435200D-03  0.148461D-03 -0.465654D-03 -0.680953D-04 -0.549649D-03
     38 -0.458173D-03  0.109027D-03 -0.634834D-03 -0.814232D-04 -0.900664D-03
     39 -0.153033D-03 -0.281695D-03  0.176857D-03  0.672078D-03  0.606330D-03
     40  0.223304D-03  0.906943D-05  0.182329D-03  0.191466D-03  0.490879D-03
     41  0.118032D-03  0.550665D-04  0.180086D-03 -0.333244D-03  0.290229D-03
     42 -0.375341D-04 -0.415135D-04  0.338035D-04  0.198539D-03  0.337075D-03
     43  0.334054D-03 -0.293925D-05  0.404178D-03  0.340092D-03  0.121077D-02
     44  0.553046D-03  0.600827D-04  0.245914D-03  0.127244D-03 -0.203717D-03
     45  0.187103D-04  0.372558D-04 -0.180989D-03  0.155797D-04  0.754954D-03
     46  0.129956D-03  0.163329D-04 -0.285862D-04  0.281789D-05  0.128105D-03
     47 -0.118548D-03 -0.137666D-05  0.134811D-03 -0.311288D-03  0.116216D-03
     48  0.106889D-03  0.505137D-04 -0.650970D-04  0.646359D-04 -0.328686D-04
                6             7             8             9            10
      6  0.476414D+00
      7  0.199323D-01  0.337018D+00
      8 -0.938632D-02  0.256669D-01  0.602823D+00
      9 -0.523434D-01 -0.770383D-01 -0.861224D-02  0.554223D+00
     10 -0.623261D-02 -0.572419D-01 -0.647948D-01  0.797421D-02  0.802392D-01
     11  0.272822D-02 -0.621399D-01 -0.272148D+00  0.329735D-01  0.622374D-01
     12 -0.161975D-02  0.160095D-01  0.386102D-01 -0.625394D-01 -0.100773D-01
     13  0.907387D-02 -0.106411D+00  0.751177D-01  0.324470D-01  0.325045D-02
     14  0.329104D-02  0.611906D-01 -0.170022D+00 -0.407531D-01  0.307035D-01
     15  0.885082D-02  0.516577D-01 -0.699485D-01 -0.155021D+00  0.691413D-02
     16 -0.123093D-02  0.289127D-02 -0.729936D-02  0.325572D-01 -0.686008D-03
     17  0.188250D-02 -0.366869D-02  0.654398D-02 -0.326448D-01 -0.480133D-04
     18 -0.627437D-02  0.922614D-02  0.245461D-02 -0.313643D-01 -0.135869D-02
     19 -0.324966D-01 -0.756556D-01 -0.420673D-02  0.106009D-01  0.198784D-02
     20 -0.250500D-02 -0.138892D-02 -0.967009D-01  0.416720D-01 -0.119456D-02
     21 -0.200743D-01  0.913491D-02  0.309641D-01 -0.166754D+00  0.734919D-04
     22 -0.133579D-02 -0.308317D-02  0.200061D-02  0.891203D-03  0.168543D-03
     23  0.224808D-03 -0.618660D-02  0.356071D-02  0.230626D-02 -0.291138D-03
     24  0.899402D-03  0.247846D-01 -0.222518D-01 -0.139627D-01 -0.169099D-03
     25  0.194141D-02 -0.934290D-03  0.127134D-02 -0.116145D-01  0.565574D-03
     26  0.272256D-02  0.649685D-02  0.174696D-02 -0.347220D-03  0.859975D-03
     27 -0.483251D-02 -0.326360D-01 -0.548612D-02 -0.197723D-01 -0.307118D-04
     28 -0.163472D-02 -0.604100D-02 -0.177905D-02  0.545791D-03 -0.496291D-04
     29 -0.184633D-03 -0.833462D-03 -0.570896D-03 -0.520206D-04  0.158982D-04
     30 -0.587055D-03 -0.256982D-02 -0.962027D-03  0.111337D-02  0.688818D-04
     31 -0.254067D-03 -0.105843D-02  0.104718D-02  0.276413D-02  0.162671D-04
     32  0.170234D-03  0.125592D-02 -0.309590D-03 -0.910583D-03  0.157919D-04
     33  0.594058D-04 -0.100924D-02  0.137713D-02  0.121910D-02  0.110179D-03
     34  0.281627D-03  0.355196D-03 -0.139598D-02  0.869479D-03  0.163436D-03
     35 -0.176539D-03  0.427694D-04 -0.614910D-03  0.995135D-03 -0.493990D-05
     36  0.173750D-03 -0.482333D-03 -0.202902D-02  0.584467D-03 -0.139240D-03
     37 -0.299128D-04 -0.252408D-03 -0.221071D-02  0.344674D-02  0.579185D-03
     38  0.507124D-04 -0.400521D-02 -0.127021D-01  0.129314D-01  0.171582D-03
     39  0.839890D-03  0.102970D-01  0.376608D-01 -0.637461D-02 -0.212374D-03
     40 -0.246206D-03 -0.107400D-02 -0.176954D-02 -0.602293D-04  0.700380D-04
     41 -0.421569D-03 -0.179196D-02 -0.737169D-02 -0.178820D-02  0.411963D-04
     42 -0.105423D-03 -0.299169D-03 -0.636408D-03  0.953475D-03  0.282752D-04
     43 -0.474561D-03 -0.113433D-02 -0.749071D-03 -0.150980D-02 -0.666372D-05
     44  0.555016D-03 -0.119894D-02  0.120457D-02 -0.117030D-02  0.193201D-03
     45 -0.551042D-03  0.798844D-03 -0.196692D-03  0.515654D-03 -0.139907D-03
     46 -0.213343D-03 -0.303932D-03  0.945521D-03  0.101877D-02  0.114418D-05
     47  0.127361D-03  0.194382D-02 -0.650544D-03 -0.252886D-02 -0.199839D-03
     48 -0.127947D-03 -0.109057D-02  0.576525D-03  0.491812D-03  0.200186D-03
               11            12            13            14            15
     11  0.301063D+00
     12 -0.284632D-01  0.629882D-01
     13  0.741971D-02  0.228740D-02  0.193373D+00
     14 -0.265714D-01 -0.270850D-01 -0.146930D+00  0.252609D+00
     15 -0.968832D-02  0.233945D-02 -0.273069D-01 -0.438085D-01  0.626990D+00
     16  0.118125D-02 -0.687910D-03 -0.263943D-01  0.346409D-01 -0.630183D-01
     17  0.111728D-03 -0.682316D-03  0.306884D-01 -0.704835D-01  0.143253D+00
     18  0.137349D-02  0.186922D-02 -0.314270D-01  0.107655D+00 -0.447121D+00
     19 -0.300690D-02  0.769732D-02 -0.227994D-02 -0.234692D-02  0.289702D-01
     20 -0.663138D-02  0.291852D-01  0.139176D-02  0.793673D-02 -0.281622D-01
     21  0.106239D-02 -0.235833D-02  0.744086D-02 -0.123740D-02 -0.277067D-01
     22 -0.379802D-03  0.274404D-03  0.550365D-03 -0.632529D-03  0.148198D-03
     23  0.395015D-03 -0.685423D-03  0.597209D-04  0.494763D-03  0.245535D-02
     24  0.680393D-03  0.750177D-03 -0.380767D-03  0.282172D-02 -0.841844D-02
     25 -0.169246D-03  0.122020D-02 -0.121389D-02  0.896232D-03  0.132574D-02
     26  0.508133D-04  0.719502D-03  0.474946D-03  0.145282D-03  0.407221D-03
     27 -0.678689D-03  0.145854D-02 -0.276745D-03 -0.655990D-04  0.342960D-03
     28  0.139713D-03  0.733713D-04  0.778878D-03 -0.209876D-03 -0.101064D-03
     29  0.361980D-03 -0.323477D-03 -0.157412D-03  0.222638D-03 -0.216753D-03
     30  0.570132D-05  0.191788D-03 -0.232587D-03 -0.541374D-04 -0.127316D-03
     31 -0.893278D-04 -0.188962D-03  0.971545D-03 -0.528489D-03 -0.228490D-04
     32  0.578179D-05 -0.161010D-04 -0.882481D-03  0.205907D-03 -0.248442D-04
     33 -0.799192D-04 -0.693056D-04 -0.190094D-04 -0.133286D-03 -0.410318D-03
     34  0.505924D-03 -0.543555D-03  0.156816D-04  0.356633D-03  0.103679D-04
     35  0.548867D-03 -0.589192D-03  0.140985D-03  0.295250D-03 -0.329867D-03
     36  0.378688D-03 -0.319648D-03  0.147442D-03  0.465152D-03 -0.755450D-04
     37 -0.188455D-04 -0.439079D-03 -0.103392D-03 -0.369467D-03 -0.855649D-03
     38  0.133266D-02 -0.534672D-03  0.733694D-03 -0.123851D-02 -0.690943D-03
     39  0.118538D-02 -0.608862D-02  0.314678D-03  0.489069D-03  0.810090D-03
     40 -0.104309D-03  0.445021D-03  0.322976D-03 -0.365402D-03  0.845224D-04
     41 -0.392498D-03  0.195689D-02  0.496135D-04  0.116231D-02 -0.406682D-03
     42  0.372835D-04 -0.105045D-03  0.749966D-04  0.613804D-03  0.794654D-04
     43  0.338634D-04  0.107505D-03  0.554871D-03  0.427048D-03  0.597872D-03
     44  0.258453D-04 -0.220530D-03  0.345939D-03 -0.128134D-03  0.196353D-03
     45 -0.542921D-04  0.121344D-03 -0.311940D-03 -0.721202D-04 -0.942756D-04
     46  0.377342D-04 -0.182945D-03 -0.102838D-03 -0.133965D-02  0.675953D-03
     47  0.268592D-03  0.144240D-03 -0.609823D-03  0.127849D-02  0.439704D-03
     48 -0.279036D-03 -0.557473D-05  0.314186D-03  0.382500D-03 -0.107037D-02
               16            17            18            19            20
     16  0.266680D-01
     17 -0.313103D-01  0.666933D-01
     18  0.287088D-01 -0.109497D+00  0.480573D+00
     19 -0.309729D-02  0.358792D-02  0.209718D-02  0.525467D+00
     20  0.338273D-02 -0.297283D-02 -0.425695D-02 -0.527118D-01  0.515634D+00
     21  0.185847D-02 -0.905088D-03 -0.746376D-03 -0.340041D-01  0.243380D-01
     22 -0.443043D-05  0.225394D-03 -0.345170D-03 -0.165274D+00  0.101025D+00
     23  0.577766D-05  0.596925D-03  0.485966D-03  0.101668D+00 -0.132114D+00
     24  0.142480D-02 -0.123163D-02 -0.870120D-03  0.731618D-01 -0.587089D-01
     25  0.931056D-05  0.218738D-03  0.192561D-03 -0.156610D+00 -0.145881D-01
     26  0.246012D-03  0.524075D-04 -0.139492D-04 -0.127655D-01 -0.802896D-01
     27 -0.354268D-03  0.351340D-03  0.357424D-03 -0.382723D-01 -0.714590D-02
     28  0.798122D-05  0.706291D-05 -0.990746D-04  0.120739D-03  0.698220D-02
     29 -0.768028D-04 -0.329710D-04  0.536716D-04  0.329843D-03  0.227780D-04
     30 -0.919531D-04  0.357025D-04  0.153868D-03  0.762461D-03  0.338204D-02
     31  0.326855D-03 -0.149075D-03 -0.234611D-03 -0.230755D-01  0.165896D-01
     32  0.682642D-05 -0.281282D-04  0.121947D-03 -0.426648D-02  0.293141D-02
     33  0.979433D-04 -0.918669D-04 -0.108879D-03 -0.119048D-01  0.890612D-02
     34  0.532320D-04 -0.753278D-04 -0.480057D-04 -0.651439D-02 -0.287798D-01
     35 -0.118113D-03 -0.364370D-04 -0.298110D-04 -0.351522D-03 -0.449986D-02
     36 -0.366132D-04 -0.404825D-04 -0.120097D-03 -0.224381D-02 -0.146569D-01
     37  0.447857D-03  0.180504D-03  0.596821D-04 -0.852114D-01 -0.221027D-01
     38  0.395801D-03 -0.132396D-03 -0.488302D-03 -0.243061D-01 -0.169907D+00
     39 -0.323793D-03  0.302273D-03  0.700011D-03  0.341088D-02  0.769070D-02
     40 -0.121415D-03 -0.196201D-03 -0.112002D-03 -0.206900D-02 -0.153362D-02
     41  0.598695D-04  0.547471D-04 -0.753612D-04 -0.335574D-02 -0.891568D-02
     42 -0.870160D-04  0.611362D-04  0.136263D-03 -0.315666D-03 -0.240146D-04
     43 -0.248066D-03 -0.173709D-03  0.000000D+00 -0.691245D-02 -0.840159D-03
     44 -0.246948D-03  0.629409D-04  0.497856D-04 -0.289216D-01 -0.436489D-02
     45  0.516544D-04  0.379729D-04 -0.806995D-04  0.477260D-02  0.458214D-03
     46 -0.882202D-04 -0.207838D-04 -0.132171D-03  0.669767D-02 -0.561122D-02
     47 -0.678745D-04  0.527559D-03  0.244847D-03  0.221045D-01 -0.218127D-01
     48  0.334419D-04  0.227034D-04 -0.105718D-03 -0.339672D-02  0.235208D-02
               21            22            23            24            25
     21  0.496424D+00
     22  0.762969D-01  0.184568D+00
     23 -0.612015D-01 -0.108070D+00  0.146939D+00
     24 -0.959428D-01 -0.802268D-01  0.658790D-01  0.106746D+00
     25 -0.362065D-01 -0.236345D-01 -0.492969D-02 -0.126038D-01  0.480245D+00
     26 -0.570825D-02  0.157435D-01  0.360096D-02  0.932751D-02 -0.171494D-01
     27 -0.962819D-01  0.114463D-01  0.279484D-02  0.686529D-02 -0.436005D-01
     28 -0.310988D-01  0.137081D-02  0.507998D-03  0.572175D-03 -0.466746D-01
     29 -0.618254D-02  0.208068D-03 -0.814998D-04  0.480982D-03 -0.304107D-02
     30 -0.140352D-01 -0.164184D-03  0.207867D-03  0.710629D-03  0.145099D-01
     31  0.115046D-01 -0.427099D-02 -0.152000D-02 -0.339988D-02 -0.181860D+00
     32  0.376254D-02 -0.163982D-02  0.664134D-03 -0.502691D-03  0.103451D+00
     33  0.643853D-02 -0.328507D-02 -0.499857D-03 -0.953734D-03  0.827442D-01
     34  0.313529D-02  0.839352D-03  0.249061D-03  0.843035D-03 -0.623024D-01
[...]
    Z6        0.31199  -0.00001   0.00000  -0.00008  -0.00008   0.31191
    X7        2.53181   0.00000   0.00000  -0.00016  -0.00015   2.53166
    Y7       -0.80776   0.00000   0.00000  -0.00012  -0.00005  -0.80781
    Z7        6.22377   0.00002   0.00000   0.00007   0.00003   6.22380
    X8        1.09231   0.00000   0.00000  -0.00020  -0.00019   1.09212
    Y8        0.40648   0.00000   0.00000  -0.00013  -0.00004   0.40644
    Z8        7.08837   0.00001   0.00000   0.00002  -0.00005   7.08832
    X9        5.08052   0.00000   0.00000  -0.00015  -0.00017   5.08035
    Y9       -0.27176   0.00000   0.00000   0.00011   0.00013  -0.27163
    Z9        7.50244   0.00000   0.00000   0.00000   0.00003   7.50247
   X10        4.99098   0.00001   0.00000   0.00007  -0.00001   4.99096
   Y10       -0.75571   0.00000   0.00000   0.00009   0.00011  -0.75560
   Z10        9.50742   0.00000   0.00000   0.00000   0.00003   9.50745
   X11        6.58177   0.00000   0.00000  -0.00007  -0.00008   6.58169
   Y11       -1.39217   0.00000   0.00000   0.00033   0.00031  -1.39185
   Z11        6.63480  -0.00001   0.00000  -0.00015  -0.00008   6.63473
   X12        5.60274   0.00000   0.00000  -0.00041  -0.00038   5.60236
   Y12        1.72316   0.00001   0.00000   0.00018   0.00019   1.72335
   Z12        7.35671  -0.00001   0.00000  -0.00005   0.00000   7.35671
   X13        1.72091   0.00000   0.00000   0.00006   0.00000   1.72091
   Y13       -3.57559   0.00000   0.00000  -0.00016  -0.00008  -3.57567
   Z13        6.52493   0.00000   0.00000   0.00021   0.00015   6.52509
   X14        1.55502   0.00001   0.00000   0.00090   0.00078   1.55581
   Y14       -4.05010   0.00000   0.00000  -0.00028  -0.00019  -4.05029
   Z14        8.52787   0.00000   0.00000   0.00026   0.00020   8.52807
   X15       -0.10535   0.00000   0.00000  -0.00027  -0.00031  -0.10566
   Y15       -3.92395  -0.00001   0.00000  -0.00027  -0.00015  -3.92410
   Z15        5.63022   0.00001   0.00000   0.00092   0.00081   5.63103
   X16        3.10653   0.00001   0.00000  -0.00017  -0.00023   3.10630
   Y16       -4.84136   0.00000   0.00000  -0.00003   0.00002  -4.84134
   Z16        5.66875   0.00000   0.00000  -0.00035  -0.00038   5.66837
         Item               Value     Threshold  Converged?
 Maximum Force            0.000060     0.000450     YES
 RMS     Force            0.000013     0.000300     YES
 Maximum Displacement     0.001132     0.001800     YES
 RMS     Displacement     0.000331     0.001200     YES
 Predicted change in Energy=-2.982262D-08
 Optimization completed.
    -- Stationary point found.
 GradGradGradGradGradGradGradGradGradGradGradGradGradGradGradGradGradGrad


 Test job not archived.
 1\1\GINC-NODE28\Freq\UB3LYP\CBSB7\C4H9O3(2)\NYEE\15-Jul-2014\0\\# freq
  nosymm b3lyp/cbsb7 iop(7/33=1)\\Title Card Required\\0,2\O,-0.013229,
 0.050939,0.003766\O,-0.008992,-0.05774,1.313339\C,1.399831,-0.011672,1
 .832316\H,1.6764,1.043848,1.711908\O,2.196301,-0.852394,1.091554\H,2.0
 9197,-0.594757,0.165098\C,1.339778,-0.427446,3.293479\H,0.578023,0.215
 099,3.751003\C,2.688493,-0.143809,3.970118\H,2.641112,-0.399907,5.0311
 11\H,3.482925,-0.736702,3.510987\H,2.964843,0.911859,3.893002\C,0.9106
 66,-1.892122,3.452846\H,0.822883,-2.143222,4.512755\H,-0.055749,-2.076
 466,2.979384\H,1.643904,-2.561939,2.999771\\Version=AM64L-G03RevD.01\H
 F=-383.5006381\S2=0.753401\S2-1=0.\S2A=0.750008\RMSD=4.811e-09\RMSF=1.
 299e-05\ZeroPoint=0.132545\Thermal=0.1409949\Dipole=0.5373345,0.291748
 6,0.5012161\DipoleDeriv=-0.2650114,0.0080843,-0.0217138,0.0002625,-0.1
 604611,-0.0126556,-0.1421776,-0.0259489,0.0059916,-0.3758035,0.0584586
 ,-0.0972959,0.0354467,-0.1861333,0.0256585,-0.0683601,0.0507856,-0.512
 4104,0.8854335,-0.1949599,0.1362499,-0.2136898,0.72343,0.0382678,-0.02
 25058,0.1093657,0.8412549,-0.0378467,-0.007243,-0.0474838,-0.0297562,-
 0.180419,-0.0043554,0.010947,0.0598841,-0.0438915,-0.681671,0.0972113,
 0.1167318,0.1633085,-0.5473612,-0.1721025,0.2221546,-0.2193387,-0.6126
 322,0.374236,0.0200444,-0.077695,0.0216509,0.2610587,0.0767926,0.00335
 73,0.026703,0.2717352,0.0973877,-0.0055473,-0.0298571,-0.0022466,0.109
 3761,0.0489871,0.0085699,0.0062918,0.0290471,-0.064422,0.0676245,0.041
 7324,0.0687796,-0.0625184,-0.0258974,0.0276342,-0.0322261,0.0192289,0.
 0392383,-0.0115216,0.0069604,-0.0172809,0.0796697,0.0218694,-0.0443763
 ,0.0080892,0.0456005,0.0377337,-0.0127724,0.0066347,-0.0024924,0.06225
 36,0.0650679,-0.0263641,0.0430879,-0.1548439,-0.0398509,0.0466667,0.02
 17471,0.0855605,0.0072682,-0.0437317,0.0711944,-0.0564104,0.0416465,0.
 0185814,-0.0488084,-0.014273,-0.083956,-0.1566774,0.0038188,-0.0037081
 ,0.0343553,0.070492,0.0444405,-0.0466823,-0.0143483,-0.0244923,0.00284
 18,-0.0079122,-0.0249846,0.013869,0.0514202,0.0776324,-0.0077866,0.003
 734,-0.0115184,0.0232185,0.0426041,0.0225352,0.0728492,-0.1579577,-0.0
 86086,-0.0550371,-0.0788538,-0.0292831,0.0355011,-0.0270923,-0.087032,
 -0.0304238,0.0501552,-0.0239919,0.0922687,0.0477303,0.0397069,-0.01104
 75,-0.0293189,0.053116,-0.0609331,0.0551638\Polar=54.8772895,1.0657858
 ,51.9982929,6.1302656,-2.6479555,67.9110181\PG=C01 [X(C4H9O3)]\NImag=0
 \\0.06080414,-0.00296759,0.00643308,0.02569507,-0.03410064,0.44455266,
 -0.05611406,-0.00421422,-0.00346709,0.23487805,-0.00475132,-0.00489336
 ,0.03226040,0.01416533,0.05118117,0.03441195,0.02900461,-0.40072185,-0
 .02149239,-0.02808299,0.47641440,-0.00315449,0.00771225,-0.02671565,-0
 .08391953,-0.02309536,0.01993225,0.33701789,0.00933194,-0.00526344,0.0
 0786583,-0.03117589,-0.04952475,-0.00938632,0.02566691,0.60282329,-0.0
 4461394,0.00089748,-0.05096926,0.04172125,-0.00296846,-0.05234345,-0.0
 7703826,-0.00861224,0.55422341,0.00244832,-0.00010639,0.00299060,-0.03
 150571,-0.02759889,-0.00623261,-0.05724194,-0.06479484,0.00797421,0.08
 023915,0.00162737,0.00116538,-0.00118160,-0.00727463,0.00041360,0.0027
 2822,-0.06213994,-0.27214829,0.03297354,0.06223744,0.30106330,0.000590
 29,0.00019725,0.00338691,-0.01658522,-0.01221332,-0.00161975,0.0160094
 7,0.03861018,-0.06253936,-0.01007732,-0.02846323,0.06298819,0.00054359
 ,0.00194257,0.00785447,-0.06385593,0.03021455,0.00907387,-0.10641121,0
 .07511767,0.03244700,0.00325045,0.00741971,0.00228740,0.19337315,-0.00
 025996,0.00356063,-0.00250937,0.02476732,0.00053302,0.00329104,0.06119
 056,-0.17002243,-0.04075308,0.03070353,-0.02657139,-0.02708503,-0.1469
 2989,0.25260890,-0.01132270,0.00441120,0.00063246,0.01224275,0.0021135
 1,0.00885082,0.05165771,-0.06994850,-0.15502109,0.00691413,-0.00968832
 ,0.00233945,-0.02730686,-0.04380847,0.62699001,0.00237967,-0.00266452,
 0.00109845,-0.00214437,0.00186483,-0.00123093,0.00289127,-0.00729936,0
 .03255723,-0.00068601,0.00118125,-0.00068791,-0.02639433,0.03464086,-0
 .06301827,0.02666796,-0.00257880,-0.00224340,-0.00085394,0.00331286,0.
 00128600,0.00188250,-0.00366869,0.00654398,-0.03264485,-0.00004801,0.0
 0011173,-0.00068232,0.03068844,-0.07048346,0.14325322,-0.03131032,0.06
 669333,-0.00131201,-0.00066483,0.00300167,-0.00521528,0.00258633,-0.00
 627437,0.00922614,0.00245461,-0.03136428,-0.00135869,0.00137349,0.0018
 6922,-0.03142698,0.10765521,-0.44712118,0.02870877,-0.10949666,0.48057
 326,-0.00799043,0.00059110,-0.00883928,0.00041750,0.00795829,-0.032496
 57,-0.07565563,-0.00420673,0.01060091,0.00198784,-0.00300690,0.0076973
 2,-0.00227994,-0.00234692,0.02897016,-0.00309729,0.00358792,0.00209718
 ,0.52546674,-0.00082412,0.00085214,-0.00252452,0.00020326,0.00083098,-
 0.00250500,-0.00138892,-0.09670086,0.04167199,-0.00119456,-0.00663138,
 0.02918523,0.00139176,0.00793673,-0.02816218,0.00338273,-0.00297283,-0
 .00425695,-0.05271175,0.51563446,-0.00067987,0.00005364,0.00227972,-0.
 01099824,0.00379855,-0.02007428,0.00913491,0.03096410,-0.16675421,0.00
 007349,0.00106239,-0.00235833,0.00744086,-0.00123740,-0.02770673,0.001
 85847,-0.00090509,-0.00074638,-0.03400415,0.02433801,0.49642373,0.0003
 0936,-0.00031892,0.00065867,0.00014061,-0.00010010,-0.00133579,-0.0030
 8317,0.00200061,0.00089120,0.00016854,-0.00037980,0.00027440,0.0005503
 7,-0.00063253,0.00014820,-0.00000443,0.00022539,-0.00034517,-0.1652744
 2,0.10102540,0.07629686,0.18456763,-0.00038311,0.00004812,-0.00013814,
 0.00043910,0.00035166,0.00022481,-0.00618660,0.00356071,0.00230626,-0.
 00029114,0.00039502,-0.00068542,0.00005972,0.00049476,0.00245535,0.000
 00578,0.00059693,0.00048597,0.10166759,-0.13211372,-0.06120147,-0.1080
 7039,0.14693931,-0.00033603,0.00006682,0.00070092,-0.00009717,-0.00003
 834,0.00089940,0.02478465,-0.02225182,-0.01396271,-0.00016910,0.000680
 39,0.00075018,-0.00038077,0.00282172,-0.00841844,0.00142480,-0.0012316
 3,-0.00087012,0.07316181,-0.05870891,-0.09594275,-0.08022682,0.0658789
 6,0.10674562,0.00091910,-0.00020288,0.00165817,0.00085677,-0.00038841,
 0.00194141,-0.00093429,0.00127134,-0.01161448,0.00056557,-0.00016925,0
 .00122020,-0.00121389,0.00089623,0.00132574,0.00000931,0.00021874,0.00
 019256,-0.15661002,-0.01458809,-0.03620648,-0.02363452,-0.00492969,-0.
 01260384,0.48024471,0.00094115,0.00000761,0.00145273,0.00009308,-0.000
 21413,0.00272256,0.00649685,0.00174696,-0.00034722,0.00085997,0.000050
 81,0.00071950,0.00047495,0.00014528,0.00040722,0.00024601,0.00005241,-
 0.00001395,-0.01276551,-0.08028963,-0.00570825,0.01574355,0.00360096,0
 .00932751,-0.01714945,0.56591605,-0.00211677,0.00031705,-0.00232755,0.
 00193824,0.00079822,-0.00483251,-0.03263597,-0.00548612,-0.01977233,-0
 .00003071,-0.00067869,0.00145854,-0.00027675,-0.00006560,0.00034296,-0
 .00035427,0.00035134,0.00035742,-0.03827228,-0.00714590,-0.09628191,0.
 01144625,0.00279484,0.00686529,-0.04360048,-0.01018534,0.55083121,-0.0
 0064432,0.00009533,-0.00097813,0.00038801,0.00024730,-0.00163472,-0.00
 604100,-0.00177905,0.00054579,-0.00004963,0.00013971,0.00007337,0.0007
 7888,-0.00020988,-0.00010106,0.00000798,0.00000706,-0.00009907,0.00012
 074,0.00698220,-0.03109876,0.00137081,0.00050800,0.00057217,-0.0466746
 4,-0.00362026,0.01631798,0.05169648,-0.00017168,0.00005033,-0.00011529
 ,0.00024787,0.00031779,-0.00018463,-0.00083346,-0.00057090,-0.00005202
 ,0.00001590,0.00036198,-0.00032348,-0.00015741,0.00022264,-0.00021675,
 -0.00007680,-0.00003297,0.00005367,0.00032984,0.00002278,-0.00618254,0
 .00020807,-0.00008150,0.00048098,-0.00304107,-0.06155331,0.06099109,0.
 00502231,0.06284671,-0.00045510,0.00005304,-0.00053785,0.00047270,0.00
 004602,-0.00058705,-0.00256982,-0.00096203,0.00111337,0.00006888,0.000
 00570,0.00019179,-0.00023259,-0.00005414,-0.00012732,-0.00009195,0.000
 03570,0.00015387,0.00076246,0.00338204,-0.01403521,-0.00016418,0.00020
 787,0.00071063,0.01450988,0.06005726,-0.29412052,-0.01391783,-0.066625
 84,0.31948300,0.00017424,-0.00007370,-0.00011990,0.00014031,-0.0001647
 3,-0.00025407,-0.00105843,0.00104718,0.00276413,0.00001627,-0.00008933
 ,-0.00018896,0.00097155,-0.00052849,-0.00002285,0.00032685,-0.00014908
 ,-0.00023461,-0.02307555,0.01658961,0.01150457,-0.00427099,-0.00152000
 ,-0.00339988,-0.18186023,0.10217157,0.08069253,-0.00087736,-0.00002412
 ,0.00053012,0.20099441,-0.00000504,0.00001590,-0.00002175,-0.00019709,
 0.00001399,0.00017023,0.00125592,-0.00030959,-0.00091058,0.00001579,0.
 00000578,-0.00001610,-0.00088248,0.00020591,-0.00002484,0.00000683,-0.
 00002813,0.00012195,-0.00426648,0.00293141,0.00376254,-0.00163982,0.00
 066413,-0.00050269,0.10345118,-0.12724868,-0.06114726,-0.00727135,0.00
 463565,0.00338847,-0.11281396,0.13401220,0.00011470,-0.00000137,-0.000
 06329,0.00025587,-0.00020652,0.00005941,-0.00100924,0.00137713,0.00121
 910,0.00011018,-0.00007992,-0.00006931,-0.00001901,-0.00013329,-0.0004
 1032,0.00009794,-0.00009187,-0.00010888,-0.01190484,0.00890612,0.00643
 853,-0.00328507,-0.00049986,-0.00095373,0.08274418,-0.06225183,-0.0959
 4405,0.02233045,-0.01810784,-0.01241312,-0.08711868,0.06841924,0.10108
 285,0.00007276,0.00003605,0.00007236,0.00025207,0.00036841,0.00028163,
 0.00035520,-0.00139598,0.00086948,0.00016344,0.00050592,-0.00054355,0.
 00001568,0.00035663,0.00001037,0.00005323,-0.00007533,-0.00004801,-0.0
 0651439,-0.02877981,0.00313529,0.00083935,0.00024906,0.00084303,-0.062
 30242,-0.05846785,0.00448106,-0.00136766,-0.00152663,0.00044134,0.0067
 1705,0.02264767,-0.00329266,0.06713295,-0.00005321,0.00004420,-0.00005
 968,0.00023172,0.00040196,-0.00017654,0.00004277,-0.00061491,0.0009951
 4,-0.00000494,0.00054887,-0.00058919,0.00014099,0.00029525,-0.00032987
 ,-0.00011811,-0.00003644,-0.00002981,-0.00035152,-0.00449986,0.0003118
 5,-0.00045780,0.00067036,-0.00003491,-0.05979975,-0.28924658,0.0189303
 0,-0.00100926,-0.00674250,0.00053634,-0.00436946,-0.01622783,0.0021862
 6,0.06730324,0.31419082,0.00008939,0.00000119,0.00010089,0.00027375,0.
 00024109,0.00017375,-0.00048233,-0.00202902,0.00058447,-0.00013924,0.0
 0037869,-0.00031965,0.00014744,0.00046515,-0.00007554,-0.00003661,-0.0
 0004048,-0.00012010,-0.00224381,-0.01465692,-0.00041328,0.00047739,0.0
 0044774,0.00044450,0.00463318,0.01957219,-0.04906620,0.00740220,0.0310
 4209,-0.00102675,-0.00433732,-0.01378586,0.00079532,-0.00269487,-0.021
 16606,0.04936166,-0.00043520,0.00014846,-0.00046565,-0.00006810,-0.000
 54965,-0.00002991,-0.00025241,-0.00221071,0.00344674,0.00057919,-0.000
 01885,-0.00043908,-0.00010339,-0.00036947,-0.00085565,0.00044786,0.000
 18050,0.00005968,-0.08521138,-0.02210270,0.00227723,0.00713373,0.02098
 694,-0.00331069,-0.01178484,-0.03252856,0.00123036,0.00135195,0.000149
 40,0.00104204,0.00129622,-0.00059309,0.00060762,-0.00522356,-0.0018262
 2,-0.00249016,0.56592109,-0.00045817,0.00010903,-0.00063483,-0.0000814
 2,-0.00090066,0.00005071,-0.00400521,-0.01270210,0.01293142,0.00017158
 ,0.00133266,-0.00053467,0.00073369,-0.00123851,-0.00069094,0.00039580,
 -0.00013240,-0.00048830,-0.02430610,-0.16990695,0.00611059,-0.00628658
 ,-0.02178393,0.00293190,-0.00761504,-0.00934737,-0.00209164,0.00109726
 ,0.00046482,0.00054464,0.00130349,0.00115095,0.00058444,0.00049210,0.0
 0113463,0.00017793,-0.02934628,0.46654688,-0.00015303,-0.00028170,0.00
 017686,0.00067208,0.00060633,0.00083989,0.01029704,0.03766077,-0.00637
 461,-0.00021237,0.00118538,-0.00608862,0.00031468,0.00048907,0.0008100
 9,-0.00032379,0.00030227,0.00070001,0.00341088,0.00769070,-0.08065415,
 -0.00451754,-0.01367618,0.00195761,-0.00441921,-0.01550207,0.00208539,
 -0.00017591,-0.00087057,0.00036388,0.00064080,0.00074702,0.00025127,-0
 .00343438,-0.00093428,-0.00130376,0.00559520,0.01187082,0.57397669,0.0
 0022330,0.00000907,0.00018233,0.00019147,0.00049088,-0.00024621,-0.001
 07400,-0.00176954,-0.00006023,0.00007004,-0.00010431,0.00044502,0.0003
 2298,-0.00036540,0.00008452,-0.00012142,-0.00019620,-0.00011200,-0.002
 06900,-0.00153362,0.00870532,0.00026576,0.00025119,-0.00048865,0.00028
 387,0.00017704,0.00104169,-0.00009811,-0.00034771,-0.00035205,-0.00003
 617,-0.00002898,0.00010697,0.00008254,0.00021505,-0.00018879,-0.048560
 15,-0.00409618,0.01931161,0.04820160,0.00011803,0.00005507,0.00018009,
 -0.00033324,0.00029023,-0.00042157,-0.00179196,-0.00737169,-0.00178820
 ,0.00004120,-0.00039250,0.00195689,0.00004961,0.00116231,-0.00040668,0
 .00005987,0.00005475,-0.00007536,-0.00335574,-0.00891568,0.03276407,0.
 00071942,0.00123180,-0.00013363,0.00103614,0.00140504,0.00079348,-0.00
 044165,0.00004182,-0.00059253,-0.00007930,-0.00002108,-0.00013098,0.00
 038389,0.00014848,-0.00023297,-0.00411399,-0.05793615,0.05412974,0.006
 59558,0.06513455,-0.00003753,-0.00004151,0.00003380,0.00019854,0.00033
 708,-0.00010542,-0.00029917,-0.00063641,0.00095348,0.00002828,0.000037
 28,-0.00010504,0.00007500,0.00061380,0.00007947,-0.00008702,0.00006114
 ,0.00013626,-0.00031567,-0.00002401,-0.00269079,-0.00016710,0.00053522
 ,0.00047920,-0.00025035,-0.00063243,0.00038552,0.00039437,0.00009414,0
 .00049375,-0.00004732,0.00001258,-0.00004203,0.00003262,0.00001578,0.0
 0034423,0.02041712,0.05603101,-0.29500820,-0.02161524,-0.06146037,0.31
 988814,0.00033405,-0.00000294,0.00040418,0.00034009,0.00121077,-0.0004
 7456,-0.00113433,-0.00074907,-0.00150980,-0.00000666,0.00003386,0.0001
 0750,0.00055487,0.00042705,0.00059787,-0.00024807,-0.00017371,-0.00000
 034,-0.00691245,-0.00084016,-0.00197644,0.00061988,-0.00031459,0.00010
 186,0.00073843,-0.00231906,0.00059254,0.00006668,0.00016476,-0.0000224
 1,0.00042717,0.00015425,0.00001671,-0.00038050,-0.00011029,-0.00045020
 ,-0.25504133,-0.03713847,-0.10134851,0.00376001,0.00137163,0.00153650,
 0.27526846,0.00055305,0.00006008,0.00024591,0.00012724,-0.00020372,0.0
 0055502,-0.00119894,0.00120457,-0.00117030,0.00019320,0.00002585,-0.00
 022053,0.00034594,-0.00012813,0.00019635,-0.00024695,0.00006294,0.0000
 4979,-0.02892156,-0.00436489,-0.01445602,0.00044035,0.00104428,-0.0005
 5325,-0.00047981,-0.00641669,0.00168712,0.00034635,0.00001866,-0.00001
 076,-0.00011423,0.00003255,0.00018378,-0.00195254,-0.00043934,-0.00075
 502,-0.03477619,-0.05413696,-0.01718183,0.00688580,0.00028973,0.002373
 56,0.04182906,0.05948063,0.00001871,0.00003726,-0.00018099,0.00001558,
 0.00075495,-0.00055104,0.00079884,-0.00019669,0.00051565,-0.00013991,-
 0.00005429,0.00012134,-0.00031194,-0.00007212,-0.00009428,0.00005165,0
 .00003797,-0.00008070,0.00477260,0.00045821,0.00083609,-0.00025306,-0.
 00029889,-0.00000599,0.00024856,0.00058493,0.00009766,0.00023261,0.000
 11132,0.00043270,-0.00024389,0.00001342,-0.00004846,0.00001562,0.00018
 523,0.00053094,-0.10236626,-0.01855864,-0.09799407,-0.02832763,-0.0051
 3496,-0.01275396,0.11248716,0.01895889,0.10257583,0.00012996,0.0000163
 3,-0.00002859,0.00000282,0.00012811,-0.00021334,-0.00030393,0.00094552
 ,0.00101877,0.00000114,0.00003773,-0.00018294,-0.00010284,-0.00133965,
 0.00067595,-0.00008822,-0.00002078,-0.00013217,0.00669767,-0.00561122,
 -0.00546306,0.00030149,-0.00247188,0.00012462,0.00139708,-0.00035347,-
 0.00045343,-0.00002881,0.00004074,-0.00002149,0.00011466,0.00016663,0.
 00024489,0.00010425,0.00016681,0.00004000,-0.17004968,0.10913953,0.074
 34247,-0.00144271,-0.00025948,0.00013699,-0.01838630,0.01696922,0.0130
 0136,0.18165341,-0.00011855,-0.00000138,0.00013481,-0.00031129,0.00011
 622,0.00012736,0.00194382,-0.00065054,-0.00252886,-0.00019984,0.000268
 59,0.00014424,-0.00060982,0.00127849,0.00043970,-0.00006787,0.00052756
 ,0.00024485,0.02210448,-0.02181270,-0.01347498,-0.00247686,-0.00561890
 ,0.00126689,0.00148980,0.00139129,0.00013711,-0.00011407,-0.00000201,-
 0.00001180,-0.00118546,0.00016685,-0.00015351,-0.00014484,0.00037289,0
 .00034026,0.10697039,-0.14265392,-0.06623548,-0.00618266,0.00482332,0.
 00268315,-0.00354309,0.00347044,0.00317342,-0.11755415,0.15832381,0.00
 010689,0.00005051,-0.00006510,0.00006464,-0.00003287,-0.00012795,-0.00
 109057,0.00057653,0.00049181,0.00020019,-0.00027904,-0.00000557,0.0003
 1419,0.00038250,-0.00107037,0.00003344,0.00002270,-0.00010572,-0.00339
 672,0.00235208,0.00167994,0.00010176,0.00116294,0.00060039,0.00022096,
 -0.00020280,-0.00007891,0.00013654,-0.00009433,-0.00009514,-0.00016468
 ,-0.00022637,0.00020672,-0.00016930,0.00015944,-0.00001045,0.07528142,
 -0.06823443,-0.09373828,0.02151334,-0.01944701,-0.01208840,-0.01006208
 ,0.01009730,0.00659928,-0.08309001,0.07371283,0.09780773\\0.00006007,-
 0.00000199,0.00000206,-0.00002435,-0.00000632,0.00003110,-0.00001034,0
 .00001963,-0.00001717,0.00001129,0.00000294,0.00000122,-0.00001192,-0.
 00002268,-0.00000783,0.00000870,0.00001666,0.00001029,0.00000361,0.000
 00026,-0.00001540,-0.00000129,0.00000056,-0.00000674,-0.00000201,-0.00
 000149,0.00000143,-0.00000746,-0.00000398,0.00000235,-0.00000313,-0.00
 000449,0.00000684,0.00000018,-0.00000556,0.00000574,-0.00000436,-0.000
 00100,-0.00000343,-0.00000978,0.00000185,-0.00000425,-0.00000340,0.000
 00517,-0.00000614,-0.00000580,0.00000044,-0.00000006\\\@


 LAW OF COMPENSATION:
      NO CALCULATION IS EVER A COMPLETE FAILURE; IT 
      CAN ALWAYS SERVE AS A BAD EXAMPLE.

                                           -- ANON
 Job cpu time:  0 days  1 hours  7 minutes  0.4 seconds.
 File lengths (MBytes):  RWF=    124 Int=      0 D2E=      0 Chk=     12 Scr=      1
 Normal termination of Gaussian 03 at Tue Jul 15 22:34:30 2014.
