 Entering Gaussian System, Link 0=g03
 Input=g-Q4-freq.gjf
 Output=g-Q4-freq.log
 Initial command:
 /opt/g03/l1.exe /scratch/shamel/Gau-17242.inp -scrdir=/scratch/shamel/
 Entering Link 1 = /opt/g03/l1.exe PID=     17244.
  
 Copyright (c) 1988,1990,1992,1993,1995,1998,2003,2004, Gaussian, Inc.
                  All Rights Reserved.
  
 This is the Gaussian(R) 03 program.  It is based on the
 the Gaussian(R) 98 system (copyright 1998, Gaussian, Inc.),
 the Gaussian(R) 94 system (copyright 1995, Gaussian, Inc.),
 the Gaussian 92(TM) system (copyright 1992, Gaussian, Inc.),
 the Gaussian 90(TM) system (copyright 1990, Gaussian, Inc.),
 the Gaussian 88(TM) system (copyright 1988, Gaussian, Inc.),
 the Gaussian 86(TM) system (copyright 1986, Carnegie Mellon
 University), and the Gaussian 82(TM) system (copyright 1983,
 Carnegie Mellon University). Gaussian is a federally registered
 trademark of Gaussian, Inc.
  
 This software contains proprietary and confidential information,
 including trade secrets, belonging to Gaussian, Inc.
  
 This software is provided under written license and may be
 used, copied, transmitted, or stored only in accord with that
 written license.
  
 The following legend is applicable only to US Government
 contracts under FAR:
  
                    RESTRICTED RIGHTS LEGEND
  
 Use, reproduction and disclosure by the US Government is
 subject to restrictions as set forth in subparagraphs (a)
 and (c) of the Commercial Computer Software - Restricted
 Rights clause in FAR 52.227-19.
  
 Gaussian, Inc.
 340 Quinnipiac St., Bldg. 40, Wallingford CT 06492
  
  
 ---------------------------------------------------------------
 Warning -- This program may not be used in any manner that
 competes with the business of Gaussian, Inc. or will provide
 assistance to any competitor of Gaussian, Inc.  The licensee
 of this program is prohibited from giving any competitor of
 Gaussian, Inc. access to this program.  By using this program,
 the user acknowledges that Gaussian, Inc. is engaged in the
 business of creating and licensing software in the field of
 computational chemistry and represents and warrants to the
 licensee that it is not a competitor of Gaussian, Inc. and that
 it will not use this program in any manner prohibited above.
 ---------------------------------------------------------------
  

 Cite this work as:
 Gaussian 03, Revision D.01,
 M. J. Frisch, G. W. Trucks, H. B. Schlegel, G. E. Scuseria, 
 M. A. Robb, J. R. Cheeseman, J. A. Montgomery, Jr., T. Vreven, 
 K. N. Kudin, J. C. Burant, J. M. Millam, S. S. Iyengar, J. Tomasi, 
 V. Barone, B. Mennucci, M. Cossi, G. Scalmani, N. Rega, 
 G. A. Petersson, H. Nakatsuji, M. Hada, M. Ehara, K. Toyota, 
 R. Fukuda, J. Hasegawa, M. Ishida, T. Nakajima, Y. Honda, O. Kitao, 
 H. Nakai, M. Klene, X. Li, J. E. Knox, H. P. Hratchian, J. B. Cross, 
 V. Bakken, C. Adamo, J. Jaramillo, R. Gomperts, R. E. Stratmann, 
 O. Yazyev, A. J. Austin, R. Cammi, C. Pomelli, J. W. Ochterski, 
 P. Y. Ayala, K. Morokuma, G. A. Voth, P. Salvador, J. J. Dannenberg, 
 V. G. Zakrzewski, S. Dapprich, A. D. Daniels, M. C. Strain, 
 O. Farkas, D. K. Malick, A. D. Rabuck, K. Raghavachari, 
 J. B. Foresman, J. V. Ortiz, Q. Cui, A. G. Baboul, S. Clifford, 
 J. Cioslowski, B. B. Stefanov, G. Liu, A. Liashenko, P. Piskorz, 
 I. Komaromi, R. L. Martin, D. J. Fox, T. Keith, M. A. Al-Laham, 
 C. Y. Peng, A. Nanayakkara, M. Challacombe, P. M. W. Gill, 
 B. Johnson, W. Chen, M. W. Wong, C. Gonzalez, and J. A. Pople, 
 Gaussian, Inc., Wallingford CT, 2004.
 
 ******************************************
 Gaussian 03:  AM64L-G03RevD.01 13-Oct-2005
                18-Jun-2013 
 ******************************************
 %chk=g-Q4-freq.chk
 %mem=1000mb
 %nproc=8
 Will use up to    8 processors via shared memory.
 -------------------------------------
 # freq nosymm b3lyp/cbsb7 iop(7/33=1)
 -------------------------------------
 1/10=4,30=1,38=1/1,3;
 2/15=1,17=6,18=5,40=1/2;
 3/5=4,6=6,7=700,11=2,16=1,25=1,30=1,74=-5/1,2,3;
 4//1;
 5/5=2,38=5/2;
 8/6=4,10=90,11=11/1;
 11/6=1,8=1,9=11,15=111,16=1,31=1/1,2,10;
 10/6=1,31=1/2;
 6/7=2,8=2,9=2,10=2,18=1,28=1/1;
 7/8=1,10=1,25=1,30=1,33=1/1,2,3,16;
 1/10=4,30=1/3;
 99//99;
 -------------------
 Title Card Required
 -------------------
 Symbolic Z-matrix:
 Charge =  0 Multiplicity = 2
 C                    -0.66448   0.55259   0.13381 
 H                    -1.622     0.0567   -0.06288 
 H                     0.13981  -0.18828   0.06538 
 C                    -0.6828    1.22171   1.51425 
 H                     0.26939   1.7452    1.66483 
 C                    -0.85329   0.18094   2.5684 
 H                    -1.44388  -0.71025   2.38895 
 H                    -0.50938   0.36447   3.57828 
 C                    -1.78582   2.31938   1.60769 
 H                    -2.74519   1.88426   1.28785 
 H                    -1.89318   2.62441   2.65046 
 O                    -1.47034   3.49138   0.8822 
 H                    -1.30513   3.22059  -0.02979 
 O                    -0.45913   1.57288  -0.84928 
 O                    -0.61895   0.95633  -2.15271 
 H                     0.28474   1.02977  -2.49056 
 

 GradGradGradGradGradGradGradGradGradGradGradGradGradGradGradGradGradGrad
 Berny optimization.
 Initialization pass.
 Trust Radius=3.00D-01 FncErr=1.00D-07 GrdErr=1.00D-07
 Number of steps in this run=   2 maximum allowed number of steps=   2.
 GradGradGradGradGradGradGradGradGradGradGradGradGradGradGradGradGradGrad

                          Input orientation:                          
 ---------------------------------------------------------------------
 Center     Atomic     Atomic              Coordinates (Angstroms)
 Number     Number      Type              X           Y           Z
 ---------------------------------------------------------------------
    1          6             0       -0.664484    0.552589    0.133805
    2          1             0       -1.621996    0.056704   -0.062883
    3          1             0        0.139814   -0.188284    0.065379
    4          6             0       -0.682796    1.221705    1.514247
    5          1             0        0.269392    1.745200    1.664834
    6          6             0       -0.853286    0.180938    2.568400
    7          1             0       -1.443879   -0.710251    2.388945
    8          1             0       -0.509377    0.364471    3.578275
    9          6             0       -1.785823    2.319379    1.607692
   10          1             0       -2.745186    1.884258    1.287846
   11          1             0       -1.893183    2.624413    2.650464
   12          8             0       -1.470340    3.491384    0.882197
   13          1             0       -1.305127    3.220592   -0.029793
   14          8             0       -0.459131    1.572884   -0.849279
   15          8             0       -0.618947    0.956325   -2.152714
   16          1             0        0.284740    1.029774   -2.490559
 ---------------------------------------------------------------------
                    Distance matrix (angstroms):
                    1          2          3          4          5
     1  C    0.000000
     2  H    1.096092   0.000000
     3  H    1.095660   1.783380   0.000000
     4  C    1.534168   2.174089   2.182653   0.000000
     5  H    2.153717   3.068122   2.512649   1.096989   0.000000
     6  C    2.470025   2.744084   2.718030   1.491141   2.126912
     7  H    2.699607   2.575152   2.859981   2.253175   3.080402
     8  H    3.453088   3.819774   3.614889   2.241681   2.484784
     9  C    2.559549   2.817332   3.517838   1.558938   2.134679
    10  H    2.726623   2.534951   3.756738   2.178001   3.041239
    11  H    3.483637   3.745521   4.327471   2.173388   2.534011
    12  O    3.137835   3.565558   4.098749   2.484181   2.586184
    13  H    2.748714   3.179888   3.703694   2.601327   2.743657
    14  O    1.431651   2.066271   2.072932   2.399918   2.623205
    15  O    2.322336   2.486527   2.608790   3.677106   3.998142
    16  H    2.831257   3.236683   2.835046   4.124492   4.216558
                    6          7          8          9         10
     6  C    0.000000
     7  H    1.084077   0.000000
     8  H    1.082500   1.855486   0.000000
     9  C    2.522997   3.147370   3.055189   0.000000
    10  H    2.849632   3.104399   3.543255   1.100913   0.000000
    11  H    2.656820   3.374944   2.807684   1.091762   1.769312
    12  O    3.766044   4.463712   4.239089   1.414026   2.091085
    13  H    4.024210   4.617475   4.669989   1.929925   2.365530
    14  O    3.711253   4.082711   4.589774   2.890341   3.144885
    15  O    4.790100   4.907612   5.762511   4.166554   4.149627
    16  H    5.254397   5.461261   6.156622   4.769274   4.918022
                   11         12         13         14         15
    11  H    0.000000
    12  O    2.014250   0.000000
    13  H    2.808027   0.965582   0.000000
    14  O    3.925611   2.775103   2.025391   0.000000
    15  O    5.241824   4.045007   3.178764   1.450734   0.000000
    16  H    5.806577   4.529383   3.658241   1.882050   0.967566
                   16
    16  H    0.000000
 Symmetry turned off by external request.
 Stoichiometry    C4H9O3(2)
 Framework group  C1[X(C4H9O3)]
 Deg. of freedom    42
 Full point group                 C1
 Rotational constants (GHZ):      3.4694428      1.8409729      1.2801011
 Standard basis: CBSB7 (5D, 7F)
 Integral buffers will be    131072 words long.
 Raffenetti 2 integral format.
 Two-electron integral symmetry is turned off.
   180 basis functions,   296 primitive gaussians,   187 cartesian basis functions
    29 alpha electrons       28 beta electrons
       nuclear repulsion energy       323.9059440264 Hartrees.
 NAtoms=   16 NActive=   16 NUniq=   16 SFac= 7.50D-01 NAtFMM=   80 NAOKFM=F Big=F
 One-electron integrals computed using PRISM.
 NBasis=   180 RedAO= T  NBF=   180
 NBsUse=   180 1.00D-06 NBFU=   180
 Harris functional with IExCor=  402 diagonalized for initial guess.
 ExpMin= 1.03D-01 ExpMax= 8.59D+03 ExpMxC= 1.30D+03 IAcc=1 IRadAn=         1 AccDes= 1.00D-06
 HarFok:  IExCor= 402 AccDes= 1.00D-06 IRadAn=         1 IDoV=1
 ScaDFX=  1.000000  1.000000  1.000000  1.000000
 <S**2> of initial guess= 0.7500
 Requested convergence on RMS density matrix=1.00D-08 within 128 cycles.
 Requested convergence on MAX density matrix=1.00D-06.
 Requested convergence on             energy=1.00D-06.
 No special actions if energy rises.
 Integral accuracy reduced to 1.0D-05 until final iterations.
 Initial convergence to 1.0D-05 achieved.  Increase integral accuracy.
 SCF Done:  E(UB+HF-LYP) =  -383.452441792     A.U. after   15 cycles
             Convg  =    0.8048D-08             -V/T =  2.0032
             S**2   =   0.7539
 Annihilation of the first spin contaminant:
 S**2 before annihilation     0.7539,   after     0.7500
 Range of M.O.s used for correlation:     1   180
 NBasis=   180 NAE=    29 NBE=    28 NFC=     0 NFV=     0
 NROrb=    180 NOA=    29 NOB=    28 NVA=   151 NVB=   152
 Symmetrizing basis deriv contribution to polar:
 IMax=3 JMax=2 DiffMx= 0.00D+00
 G2DrvN: will do   17 centers at a time, making    1 passes doing MaxLOS=2.
 FoFDir/FoFCou used for L=0 through L=2.
 DoAtom=TTTTTTTTTTTTTTTT
          Differentiating once with respect to electric field.
                with respect to dipole field.
          Differentiating once with respect to nuclear coordinates.
 Symmetry not used in FoFDir.
 MinBra= 0 MaxBra= 2 Meth= 1.
 IRaf=       0 NMat=  51 IRICut=      51 DoRegI=T DoRafI=T ISym2E= 0 JSym2E=0.
          There are  51 degrees of freedom in the 1st order CPHF.
    48 vectors were produced by pass  0.
 AX will form  48 AO Fock derivatives at one time.
    48 vectors were produced by pass  1.
    48 vectors were produced by pass  2.
    48 vectors were produced by pass  3.
    48 vectors were produced by pass  4.
    48 vectors were produced by pass  5.
    30 vectors were produced by pass  6.
     3 vectors were produced by pass  7.
     2 vectors were produced by pass  8.
 Inv2:  IOpt= 1 Iter= 1 AM= 2.57D-15 Conv= 1.00D-12.
 Inverted reduced A of dimension  323 with in-core refinement.
 Isotropic polarizability for W=    0.000000       59.71 Bohr**3.
 End of Minotr Frequency-dependent properties file   721 does not exist.

 **********************************************************************

            Population analysis using the SCF density.

 **********************************************************************

 Alpha  occ. eigenvalues --  -19.19211 -19.18330 -19.09948 -10.23188 -10.21646
 Alpha  occ. eigenvalues --  -10.19225 -10.18859  -1.13522  -1.01233  -0.93129
 Alpha  occ. eigenvalues --   -0.80736  -0.67773  -0.67322  -0.59008  -0.54561
 Alpha  occ. eigenvalues --   -0.52312  -0.49351  -0.47011  -0.43951  -0.43077
 Alpha  occ. eigenvalues --   -0.42787  -0.41491  -0.37615  -0.36394  -0.32552
 Alpha  occ. eigenvalues --   -0.32181  -0.28303  -0.27208  -0.21858
 Alpha virt. eigenvalues --   -0.00043   0.03346   0.04628   0.06832   0.08242
 Alpha virt. eigenvalues --    0.09349   0.10822   0.11737   0.13095   0.13778
 Alpha virt. eigenvalues --    0.15908   0.19759   0.20429   0.24011   0.24940
 Alpha virt. eigenvalues --    0.30749   0.33073   0.35659   0.37798   0.39027
 Alpha virt. eigenvalues --    0.39310   0.42813   0.44241   0.48069   0.48683
 Alpha virt. eigenvalues --    0.50716   0.52403   0.53605   0.56340   0.56454
 Alpha virt. eigenvalues --    0.58359   0.59026   0.60434   0.61773   0.63586
 Alpha virt. eigenvalues --    0.64464   0.67745   0.72317   0.78939   0.81700
 Alpha virt. eigenvalues --    0.83012   0.87145   0.89205   0.89576   0.92457
 Alpha virt. eigenvalues --    0.93210   0.97692   0.99810   1.03015   1.08372
 Alpha virt. eigenvalues --    1.11800   1.15643   1.19884   1.25599   1.28881
 Alpha virt. eigenvalues --    1.33065   1.36730   1.38213   1.39279   1.41569
 Alpha virt. eigenvalues --    1.42810   1.46620   1.46832   1.47495   1.49431
 Alpha virt. eigenvalues --    1.53495   1.54780   1.58891   1.59380   1.61065
 Alpha virt. eigenvalues --    1.62574   1.65124   1.68624   1.70609   1.73091
 Alpha virt. eigenvalues --    1.74575   1.76744   1.82144   1.85842   1.91948
 Alpha virt. eigenvalues --    1.92948   1.93898   1.95993   2.01249   2.05176
 Alpha virt. eigenvalues --    2.07740   2.10273   2.11583   2.16668   2.23875
 Alpha virt. eigenvalues --    2.25860   2.27692   2.35219   2.37920   2.40129
 Alpha virt. eigenvalues --    2.42480   2.45320   2.46035   2.51424   2.53337
 Alpha virt. eigenvalues --    2.56065   2.59003   2.61589   2.62392   2.64490
 Alpha virt. eigenvalues --    2.65979   2.69601   2.72377   2.76732   2.77661
 Alpha virt. eigenvalues --    2.82017   2.85580   2.89061   2.91341   3.02557
 Alpha virt. eigenvalues --    3.06350   3.09377   3.14165   3.17684   3.20039
 Alpha virt. eigenvalues --    3.23896   3.30210   3.30926   3.46387   3.63069
 Alpha virt. eigenvalues --    3.69588   3.71954   3.75897   3.78278   3.86358
 Alpha virt. eigenvalues --    3.92290   3.93337   4.01872   4.19271   4.25234
 Alpha virt. eigenvalues --    4.70982   4.79577   4.89550   4.89778   5.24798
 Alpha virt. eigenvalues --    5.29825   5.40108   5.65132   5.66626  23.73827
 Alpha virt. eigenvalues --   23.80212  23.80949  23.86016  49.75687  49.81686
 Alpha virt. eigenvalues --   49.91777
  Beta  occ. eigenvalues --  -19.19203 -19.18322 -19.09902 -10.23159 -10.21494
  Beta  occ. eigenvalues --  -10.19305 -10.17460  -1.13500  -1.01108  -0.93094
  Beta  occ. eigenvalues --   -0.79758  -0.67472  -0.65197  -0.58371  -0.54367
  Beta  occ. eigenvalues --   -0.52117  -0.49212  -0.46750  -0.43735  -0.42653
  Beta  occ. eigenvalues --   -0.42355  -0.41025  -0.37173  -0.35982  -0.32355
  Beta  occ. eigenvalues --   -0.32066  -0.28236  -0.26553
  Beta virt. eigenvalues --   -0.07258   0.00069   0.03371   0.05021   0.06946
  Beta virt. eigenvalues --    0.08372   0.09658   0.10902   0.12000   0.13216
  Beta virt. eigenvalues --    0.13944   0.16122   0.19933   0.20811   0.24843
  Beta virt. eigenvalues --    0.25469   0.31375   0.33397   0.36559   0.38067
  Beta virt. eigenvalues --    0.39188   0.39419   0.44334   0.46295   0.48484
  Beta virt. eigenvalues --    0.50410   0.51129   0.52907   0.54000   0.56573
  Beta virt. eigenvalues --    0.56974   0.59061   0.59233   0.60743   0.61975
  Beta virt. eigenvalues --    0.63939   0.64971   0.68914   0.72471   0.79080
  Beta virt. eigenvalues --    0.82076   0.83799   0.87252   0.89399   0.89890
  Beta virt. eigenvalues --    0.92668   0.93520   0.97928   0.99959   1.03517
  Beta virt. eigenvalues --    1.10639   1.12048   1.15803   1.19976   1.25874
  Beta virt. eigenvalues --    1.29741   1.33274   1.37199   1.38385   1.39573
  Beta virt. eigenvalues --    1.42279   1.42926   1.46864   1.47496   1.47959
  Beta virt. eigenvalues --    1.49611   1.53711   1.55155   1.59287   1.59976
  Beta virt. eigenvalues --    1.62193   1.63332   1.65414   1.68746   1.70794
  Beta virt. eigenvalues --    1.74193   1.74980   1.77388   1.82398   1.86149
  Beta virt. eigenvalues --    1.92264   1.94118   1.95930   1.96528   2.01474
  Beta virt. eigenvalues --    2.05718   2.07908   2.10788   2.11816   2.17277
  Beta virt. eigenvalues --    2.24211   2.26198   2.28076   2.35304   2.38060
  Beta virt. eigenvalues --    2.40330   2.42630   2.45546   2.46290   2.51584
  Beta virt. eigenvalues --    2.53561   2.56387   2.59133   2.61801   2.63564
  Beta virt. eigenvalues --    2.64963   2.66725   2.71585   2.72513   2.77026
  Beta virt. eigenvalues --    2.78995   2.82122   2.86899   2.89213   2.92292
  Beta virt. eigenvalues --    3.02811   3.06587   3.09409   3.14249   3.17772
  Beta virt. eigenvalues --    3.20096   3.23993   3.30293   3.31142   3.46720
  Beta virt. eigenvalues --    3.63100   3.69745   3.73772   3.75968   3.78343
  Beta virt. eigenvalues --    3.86438   3.92343   3.93468   4.02187   4.20275
  Beta virt. eigenvalues --    4.25460   4.70988   4.79604   4.89574   4.89864
  Beta virt. eigenvalues --    5.24858   5.29896   5.40118   5.65151   5.66706
  Beta virt. eigenvalues --   23.74074  23.80340  23.81241  23.87061  49.75695
  Beta virt. eigenvalues --   49.81695  49.91823
          Condensed to atoms (all electrons):
              1          2          3          4          5          6
     1  C    4.857330   0.394354   0.392492   0.302251  -0.050829  -0.054149
     2  H    0.394354   0.599922  -0.050157  -0.028297   0.010591  -0.001696
     3  H    0.392492  -0.050157   0.611812  -0.033088  -0.011883   0.000843
     4  C    0.302251  -0.028297  -0.033088   5.253169   0.389007   0.297572
     5  H   -0.050829   0.010591  -0.011883   0.389007   0.595055  -0.027758
     6  C   -0.054149  -0.001696   0.000843   0.297572  -0.027758   5.252371
     7  H   -0.006972   0.004900  -0.001076  -0.037160   0.006655   0.398552
     8  H    0.005595  -0.000260   0.000208  -0.032710  -0.008472   0.405988
     9  C   -0.055254  -0.017404   0.010151   0.321777  -0.055569  -0.061857
    10  H   -0.014073   0.005350  -0.000370  -0.053689   0.013727   0.007145
    11  H    0.008528  -0.000454  -0.000324  -0.033240  -0.009910  -0.000684
    12  O    0.001270   0.000488  -0.000642  -0.044895   0.013223   0.005524
    13  H   -0.000936   0.000146   0.000953  -0.005418  -0.002058  -0.000544
    14  O    0.198265  -0.036313  -0.033298  -0.035906   0.004194   0.002514
    15  O   -0.055284   0.004515   0.004352   0.007652  -0.000216  -0.000166
    16  H    0.000342  -0.000715   0.003031  -0.001148   0.000030   0.000034
              7          8          9         10         11         12
     1  C   -0.006972   0.005595  -0.055254  -0.014073   0.008528   0.001270
     2  H    0.004900  -0.000260  -0.017404   0.005350  -0.000454   0.000488
     3  H   -0.001076   0.000208   0.010151  -0.000370  -0.000324  -0.000642
     4  C   -0.037160  -0.032710   0.321777  -0.053689  -0.033240  -0.044895
     5  H    0.006655  -0.008472  -0.055569   0.013727  -0.009910   0.013223
     6  C    0.398552   0.405988  -0.061857   0.007145  -0.000684   0.005524
     7  H    0.553099  -0.034490   0.000021   0.001622  -0.000656  -0.000135
     8  H   -0.034490   0.537497   0.000057  -0.000884   0.003318  -0.000074
     9  C    0.000021   0.000057   4.784848   0.378118   0.394693   0.290802
    10  H    0.001622  -0.000884   0.378118   0.662216  -0.046303  -0.032695
    11  H   -0.000656   0.003318   0.394693  -0.046303   0.602000  -0.030941
    12  O   -0.000135  -0.000074   0.290802  -0.032695  -0.030941   7.879173
    13  H    0.000023   0.000026  -0.045062  -0.007085   0.008286   0.325179
    14  O   -0.000010  -0.000123   0.009229   0.000015   0.000055  -0.009565
    15  O   -0.000039   0.000005  -0.000387  -0.000099   0.000017   0.000155
    16  H    0.000007  -0.000002   0.000095   0.000013  -0.000003  -0.000045
             13         14         15         16
     1  C   -0.000936   0.198265  -0.055284   0.000342
     2  H    0.000146  -0.036313   0.004515  -0.000715
     3  H    0.000953  -0.033298   0.004352   0.003031
     4  C   -0.005418  -0.035906   0.007652  -0.001148
     5  H   -0.002058   0.004194  -0.000216   0.000030
     6  C   -0.000544   0.002514  -0.000166   0.000034
     7  H    0.000023  -0.000010  -0.000039   0.000007
     8  H    0.000026  -0.000123   0.000005  -0.000002
     9  C   -0.045062   0.009229  -0.000387   0.000095
    10  H   -0.007085   0.000015  -0.000099   0.000013
    11  H    0.008286   0.000055   0.000017  -0.000003
    12  O    0.325179  -0.009565   0.000155  -0.000045
    13  H    0.456737   0.026529  -0.000824   0.000097
    14  O    0.026529   8.122063   0.070697  -0.026738
    15  O   -0.000824   0.070697   7.931987   0.287702
    16  H    0.000097  -0.026738   0.287702   0.464825
 Mulliken atomic charges:
              1
     1  C    0.077068
     2  H    0.115029
     3  H    0.106996
     4  C   -0.265876
     5  H    0.134214
     6  C   -0.223688
     7  H    0.115659
     8  H    0.124321
     9  C    0.045741
    10  H    0.086991
    11  H    0.105619
    12  O   -0.396822
    13  H    0.243949
    14  O   -0.291608
    15  O   -0.250067
    16  H    0.272475
 Sum of Mulliken charges=   0.00000
 Atomic charges with hydrogens summed into heavy atoms:
              1
     1  C    0.299094
     2  H    0.000000
     3  H    0.000000
     4  C   -0.131662
     5  H    0.000000
     6  C    0.016292
     7  H    0.000000
     8  H    0.000000
     9  C    0.238351
    10  H    0.000000
    11  H    0.000000
    12  O   -0.152873
    13  H    0.000000
    14  O   -0.291608
    15  O    0.022407
    16  H    0.000000
 Sum of Mulliken charges=   0.00000
          Atomic-Atomic Spin Densities.
              1          2          3          4          5          6
     1  C    0.014089   0.000068  -0.002393   0.009333   0.004315  -0.011302
     2  H    0.000068  -0.000856  -0.000185   0.000600   0.000268  -0.000262
     3  H   -0.002393  -0.000185   0.000203  -0.001783  -0.001532   0.006108
     4  C    0.009333   0.000600  -0.001783  -0.048434   0.006750  -0.060300
     5  H    0.004315   0.000268  -0.001532   0.006750   0.025687  -0.008402
     6  C   -0.011302  -0.000262   0.006108  -0.060300  -0.008402   1.164081
     7  H    0.000708   0.000015  -0.000095  -0.001589  -0.000101   0.003004
     8  H   -0.000071   0.000035  -0.000057  -0.003689   0.001021   0.004564
     9  C   -0.003527  -0.000922   0.001196   0.024871  -0.014112  -0.034749
    10  H    0.000202   0.000367  -0.000260  -0.002588   0.001045   0.009160
    11  H    0.000061   0.000045  -0.000053  -0.001216   0.000988   0.004339
    12  O    0.000278   0.000076  -0.000120  -0.001274   0.002275   0.001538
    13  H   -0.000056  -0.000021   0.000029   0.000020  -0.000196  -0.000098
    14  O   -0.002560  -0.000114   0.001307  -0.000828  -0.000669   0.000356
    15  O    0.000425   0.000131  -0.000521   0.000104   0.000068  -0.000023
    16  H    0.000016   0.000000   0.000010   0.000000  -0.000003   0.000001
              7          8          9         10         11         12
     1  C    0.000708  -0.000071  -0.003527   0.000202   0.000061   0.000278
     2  H    0.000015   0.000035  -0.000922   0.000367   0.000045   0.000076
     3  H   -0.000095  -0.000057   0.001196  -0.000260  -0.000053  -0.000120
     4  C   -0.001589  -0.003689   0.024871  -0.002588  -0.001216  -0.001274
     5  H   -0.000101   0.001021  -0.014112   0.001045   0.000988   0.002275
     6  C    0.003004   0.004564  -0.034749   0.009160   0.004339   0.001538
     7  H   -0.053627   0.004138  -0.000465   0.000081   0.000140   0.000016
     8  H    0.004138  -0.055126   0.000145   0.000117  -0.000177   0.000000
     9  C   -0.000465   0.000145   0.104972  -0.012450  -0.004088  -0.014345
    10  H    0.000081   0.000117  -0.012450   0.005817   0.002043   0.001816
    11  H    0.000140  -0.000177  -0.004088   0.002043  -0.002546   0.000799
    12  O    0.000016   0.000000  -0.014345   0.001816   0.000799   0.023204
    13  H   -0.000007   0.000001   0.000762  -0.000160  -0.000117  -0.000141
    14  O   -0.000030   0.000002   0.000459  -0.000062  -0.000001   0.000034
    15  O    0.000002   0.000000  -0.000080   0.000034   0.000002   0.000009
    16  H    0.000000   0.000000   0.000004  -0.000001   0.000000  -0.000001
             13         14         15         16
     1  C   -0.000056  -0.002560   0.000425   0.000016
     2  H   -0.000021  -0.000114   0.000131   0.000000
     3  H    0.000029   0.001307  -0.000521   0.000010
     4  C    0.000020  -0.000828   0.000104   0.000000
     5  H   -0.000196  -0.000669   0.000068  -0.000003
     6  C   -0.000098   0.000356  -0.000023   0.000001
     7  H   -0.000007  -0.000030   0.000002   0.000000
     8  H    0.000001   0.000002   0.000000   0.000000
     9  C    0.000762   0.000459  -0.000080   0.000004
    10  H   -0.000160  -0.000062   0.000034  -0.000001
    11  H   -0.000117  -0.000001   0.000002   0.000000
    12  O   -0.000141   0.000034   0.000009  -0.000001
    13  H   -0.000527   0.000050  -0.000031   0.000002
    14  O    0.000050   0.005164  -0.001434  -0.000012
    15  O   -0.000031  -0.001434   0.003818   0.000035
    16  H    0.000002  -0.000012   0.000035  -0.000152
 Mulliken atomic spin densities:
              1
     1  C    0.009587
     2  H   -0.000755
     3  H    0.001855
     4  C   -0.080021
     5  H    0.017405
     6  C    1.078015
     7  H   -0.047811
     8  H   -0.049098
     9  C    0.047672
    10  H    0.005160
    11  H    0.000220
    12  O    0.014164
    13  H   -0.000492
    14  O    0.001661
    15  O    0.002540
    16  H   -0.000102
 Sum of Mulliken spin densities=   1.00000
 APT atomic charges:
              1
     1  C    0.426438
     2  H   -0.036836
     3  H   -0.055967
     4  C   -0.029222
     5  H   -0.026849
     6  C   -0.032307
     7  H    0.023092
     8  H    0.019161
     9  C    0.550620
    10  H   -0.080921
    11  H   -0.034480
    12  O   -0.661074
    13  H    0.316093
    14  O   -0.304179
    15  O   -0.324154
    16  H    0.250584
 Sum of APT charges=   0.00000
 APT Atomic charges with hydrogens summed into heavy atoms:
              1
     1  C    0.333635
     2  H    0.000000
     3  H    0.000000
     4  C   -0.056071
     5  H    0.000000
     6  C    0.009946
     7  H    0.000000
     8  H    0.000000
     9  C    0.435219
    10  H    0.000000
    11  H    0.000000
    12  O   -0.344981
    13  H    0.000000
    14  O   -0.304179
    15  O   -0.073570
    16  H    0.000000
 Sum of APT charges=   0.00000
 Electronic spatial extent (au):  <R**2>=  1590.5487
 Charge=     0.0000 electrons
 Dipole moment (field-independent basis, Debye):
    X=     1.3579    Y=    -2.4130    Z=    -0.2167  Tot=     2.7774
 Quadrupole moment (field-independent basis, Debye-Ang):
   XX=   -43.4553   YY=   -55.4553   ZZ=   -39.1804
   XY=     4.9423   XZ=    -3.6545   YZ=    -2.7607
 Traceless Quadrupole moment (field-independent basis, Debye-Ang):
   XX=     2.5750   YY=    -9.4250   ZZ=     6.8499
   XY=     4.9423   XZ=    -3.6545   YZ=    -2.7607
 Octapole moment (field-independent basis, Debye-Ang**2):
  XXX=   123.4683  YYY=  -237.0748  ZZZ=   -78.6097  XYY=    59.3297
  XXY=   -67.2353  XXZ=   -26.7762  XZZ=    49.6994  YZZ=   -55.5207
  YYZ=   -41.8501  XYZ=     1.1307
 Hexadecapole moment (field-independent basis, Debye-Ang**3):
 XXXX=  -361.8938 YYYY= -1097.0826 ZZZZ=  -684.8669 XXXY=   228.4314
 XXXZ=   123.0668 YYYX=   298.6587 YYYZ=  -185.3293 ZZZX=    93.1354
 ZZZY=  -102.0342 XXYY=  -234.2591 XXZZ=  -191.1276 YYZZ=  -269.7073
 XXYZ=   -43.0763 YYXZ=    57.0732 ZZXY=    80.9541
 N-N= 3.239059440264D+02 E-N=-1.547621664255D+03  KE= 3.822249037395D+02
  Exact polarizability:  49.333  -1.677  58.031  -3.252  -1.609  71.776
 Approx polarizability:  69.178   1.254  79.862  -1.175  -0.651  91.483
                          Isotropic Fermi Contact Couplings
        Atom                 a.u.       MegaHertz       Gauss      10(-4) cm-1
     1  C(13)              0.01511      16.98519       6.06074       5.66565
     2  H(1)              -0.00038      -1.68642      -0.60176      -0.56253
     3  H(1)              -0.00028      -1.26788      -0.45241      -0.42292
     4  C(13)             -0.02808     -31.57000     -11.26496     -10.53062
     5  H(1)               0.00896      40.06261      14.29533      13.36345
     6  C(13)              0.06948      78.10507      27.86983      26.05305
     7  H(1)              -0.01346     -60.18257     -21.47464     -20.07474
     8  H(1)              -0.01356     -60.60104     -21.62396     -20.21433
     9  C(13)              0.07874      88.51321      31.58371      29.52483
    10  H(1)              -0.00040      -1.76588      -0.63011      -0.58903
    11  H(1)              -0.00055      -2.46004      -0.87780      -0.82058
    12  O(17)              0.00022      -0.13169      -0.04699      -0.04393
    13  H(1)              -0.00023      -1.00958      -0.36024      -0.33676
    14  O(17)              0.00526      -3.19037      -1.13840      -1.06419
    15  O(17)              0.00018      -0.10776      -0.03845      -0.03594
    16  H(1)              -0.00006      -0.26601      -0.09492      -0.08873
 --------------------------------------------------------
       Center         ----  Spin Dipole Couplings  ----
                      3XX-RR        3YY-RR        3ZZ-RR
 --------------------------------------------------------
     1   Atom       -0.007815     -0.010276      0.018092
     2   Atom       -0.003558     -0.005474      0.009032
     3   Atom       -0.005891     -0.004998      0.010889
     4   Atom       -0.001541      0.003031     -0.001490
     5   Atom       -0.003358      0.007343     -0.003984
     6   Atom        0.668410     -0.200407     -0.468003
     7   Atom        0.020907      0.043395     -0.064302
     8   Atom       -0.006239     -0.052693      0.058932
     9   Atom        0.017382      0.017504     -0.034885
    10   Atom        0.006055     -0.002147     -0.003908
    11   Atom       -0.007169      0.010052     -0.002883
    12   Atom       -0.029477      0.051915     -0.022437
    13   Atom       -0.004427      0.000517      0.003910
    14   Atom       -0.000966      0.004570     -0.003604
    15   Atom       -0.004767     -0.010028      0.014795
    16   Atom       -0.000561     -0.001389      0.001951
 --------------------------------------------------------
                        XY            XZ            YZ
 --------------------------------------------------------
     1   Atom        0.002218      0.007428      0.001478
     2   Atom        0.000268      0.004680      0.001137
     3   Atom       -0.001945     -0.005770      0.001943
     4   Atom       -0.008600     -0.003514     -0.014869
     5   Atom        0.009180     -0.005473     -0.008486
     6   Atom       -0.676635     -0.354824      0.196959
     7   Atom        0.036916     -0.000978      0.029673
     8   Atom       -0.019696      0.029914      0.032311
     9   Atom       -0.057208      0.007045     -0.007744
    10   Atom       -0.005031      0.006639     -0.005260
    11   Atom       -0.008011     -0.004604      0.003646
    12   Atom       -0.044678      0.021645     -0.040747
    13   Atom       -0.001351     -0.000301     -0.003025
    14   Atom       -0.014977     -0.000605     -0.006094
    15   Atom        0.000440      0.007911     -0.003128
    16   Atom        0.000108     -0.000956     -0.000443
 --------------------------------------------------------


 ---------------------------------------------------------------------------------
              Anisotropic Spin Dipole Couplings in Principal Axis System
 ---------------------------------------------------------------------------------

       Atom             a.u.   MegaHertz   Gauss  10(-4) cm-1        Axes

              Baa    -0.0119    -1.595    -0.569    -0.532 -0.6342  0.7639  0.1195
     1 C(13)  Bbb    -0.0083    -1.116    -0.398    -0.372  0.7280  0.6420 -0.2407
              Bcc     0.0202     2.711     0.967     0.904  0.2606  0.0657  0.9632
 
              Baa    -0.0056    -2.977    -1.062    -0.993  0.1798  0.9746 -0.1334
     2 H(1)   Bbb    -0.0051    -2.713    -0.968    -0.905  0.9326 -0.2120 -0.2921
              Bcc     0.0107     5.690     2.030     1.898  0.3130  0.0719  0.9470
 
              Baa    -0.0082    -4.396    -1.569    -1.466  0.8891  0.3970  0.2279
     3 H(1)   Bbb    -0.0048    -2.547    -0.909    -0.850 -0.3441  0.9079 -0.2394
              Bcc     0.0130     6.943     2.477     2.316 -0.3019  0.1344  0.9438
 
              Baa    -0.0184    -2.475    -0.883    -0.826  0.4500  0.6231  0.6397
     4 C(13)  Bbb     0.0015     0.206     0.073     0.069  0.8569 -0.0997 -0.5057
              Bcc     0.0169     2.269     0.810     0.757 -0.2513  0.7758 -0.5788
 
              Baa    -0.0092    -4.888    -1.744    -1.630  0.7328 -0.0591  0.6778
     5 H(1)   Bbb    -0.0082    -4.385    -1.565    -1.463 -0.5033  0.6233  0.5985
              Bcc     0.0174     9.273     3.309     3.093  0.4579  0.7798 -0.4270
 
              Baa    -0.5729   -76.875   -27.431   -25.643 -0.1730 -0.6873  0.7055
     6 C(13)  Bbb    -0.5676   -76.165   -27.178   -25.406  0.4963  0.5579  0.6651
              Bcc     1.1405   153.040    54.608    51.049  0.8507 -0.4652 -0.2446
 
              Baa    -0.0732   -39.036   -13.929   -13.021  0.1200 -0.2804  0.9523
     7 H(1)   Bbb    -0.0016    -0.849    -0.303    -0.283  0.8231 -0.5083 -0.2534
              Bcc     0.0748    39.885    14.232    13.304  0.5551  0.8142  0.1698
 
              Baa    -0.0728   -38.861   -13.866   -12.963  0.3926  0.8687 -0.3021
     8 H(1)   Bbb    -0.0022    -1.182    -0.422    -0.394  0.8701 -0.4573 -0.1840
              Bcc     0.0750    40.042    14.288    13.357  0.2980  0.1906  0.9353
 
              Baa    -0.0398    -5.344    -1.907    -1.783  0.6943  0.7093  0.1217
     9 C(13)  Bbb    -0.0358    -4.806    -1.715    -1.603 -0.1526 -0.0202  0.9881
              Bcc     0.0756    10.150     3.622     3.386 -0.7033  0.7046 -0.0942
 
              Baa    -0.0087    -4.661    -1.663    -1.555 -0.1998  0.5136  0.8344
    10 H(1)   Bbb    -0.0039    -2.073    -0.740    -0.691  0.5883  0.7439 -0.3170
              Bcc     0.0126     6.733     2.403     2.246  0.7836 -0.4276  0.4508
 
              Baa    -0.0115    -6.121    -2.184    -2.042  0.8916  0.2703  0.3632
    11 H(1)   Bbb    -0.0032    -1.721    -0.614    -0.574 -0.2432 -0.3905  0.8879
              Bcc     0.0147     7.842     2.798     2.616 -0.3819  0.8800  0.2825
 
              Baa    -0.0503     3.638     1.298     1.213  0.9119  0.2785 -0.3013
    12 O(17)  Bbb    -0.0402     2.905     1.037     0.969  0.1489  0.4597  0.8755
              Bcc     0.0904    -6.543    -2.335    -2.183 -0.3824  0.8432 -0.3778
 
              Baa    -0.0049    -2.624    -0.936    -0.875  0.9403  0.3108  0.1385
    13 H(1)   Bbb    -0.0008    -0.417    -0.149    -0.139 -0.3376  0.8009  0.4946
              Bcc     0.0057     3.041     1.085     1.014  0.0428 -0.5119  0.8580
 
              Baa    -0.0152     1.097     0.391     0.366  0.6820  0.6316  0.3687
    14 O(17)  Bbb    -0.0028     0.199     0.071     0.066 -0.4112 -0.0857  0.9075
              Bcc     0.0179    -1.296    -0.463    -0.432 -0.6048  0.7706 -0.2012
 
              Baa    -0.0109     0.791     0.282     0.264 -0.3430  0.9140  0.2166
    15 O(17)  Bbb    -0.0069     0.502     0.179     0.168  0.8808  0.3931 -0.2640
              Bcc     0.0179    -1.293    -0.462    -0.431  0.3264 -0.1002  0.9399
 
              Baa    -0.0014    -0.772    -0.276    -0.258  0.0274  0.9902  0.1368
    16 H(1)   Bbb    -0.0009    -0.470    -0.168    -0.157  0.9485 -0.0690  0.3093
              Bcc     0.0023     1.242     0.443     0.414 -0.3157 -0.1213  0.9411
 

 ---------------------------------------------------------------------------------

 Use density number 0.
 Entering OneElI...
 Calculate overlap and kinetic energy integrals
    NBasis = 187  MinDer = 2  MaxDer = 2
 Requested accuracy = 0.1000D-12
 PrsmSu:  NPrtUS=   1 ThrOK=F
 PRISM was handed   130761061 working-precision words and  2538 shell-pairs
 Entering OneElI...
 Calculate potential energy integrals
    NBasis = 187  MinDer = 2  MaxDer = 2
 Requested accuracy = 0.1000D-12
 PrsmSu:  NPrtUS=   8 ThrOK=T
 PRISM was handed    16302460 working-precision words and  2341 shell-pairs
 PRISM was handed    16302460 working-precision words and  2341 shell-pairs
 PRISM was handed    16302460 working-precision words and  2341 shell-pairs
 PRISM was handed    16302460 working-precision words and  2341 shell-pairs
 PRISM was handed    16302460 working-precision words and  2341 shell-pairs
 PRISM was handed    16302460 working-precision words and  2341 shell-pairs
 PRISM was handed    16302460 working-precision words and  2341 shell-pairs
 PRISM was handed    16302460 working-precision words and  2341 shell-pairs
 Polarizability after L701:
                1             2             3
      1  0.493329D+02
      2 -0.167666D+01  0.580314D+02
      3 -0.325203D+01 -0.160936D+01  0.717759D+02
 Dipole Derivatives after L701:
               1            2            3            4            5
      1 0.384653D+00-0.122477D-02-0.316983D-01-0.110869D+00-0.447378D-01
      2 0.204701D-01 0.434484D+00-0.174922D+00-0.946739D-01-0.818535D-02
      3-0.497155D-01-0.223699D+00 0.460177D+00-0.146406D-01 0.506799D-01
               6            7            8            9           10
      1-0.253537D-01-0.839181D-01 0.820261D-01 0.391875D-01 0.367579D-01
      2-0.351902D-02 0.125905D+00-0.765582D-01-0.236777D-01 0.124106D+00
      3 0.854632D-02 0.321646D-01 0.343976D-01-0.742447D-02-0.518521D-01
              11           12           13           14           15
      1 0.437044D-01-0.323314D-01-0.777582D-01-0.805185D-01 0.504438D-02
      2-0.167592D+00 0.574857D-01-0.741576D-01-0.146617D-01 0.410277D-02
      3 0.199167D+00 0.431688D-01-0.511337D-02-0.273028D-01 0.118734D-01
              16           17           18           19           20
      1-0.211964D+00 0.191379D+00 0.136846D+00 0.690573D-01-0.857245D-01
      2 0.258678D+00 0.447754D-01-0.866181D-01-0.125322D+00-0.205191D-01
      3 0.637727D-01-0.101737D+00 0.702684D-01-0.152736D-01 0.205266D-01
              21           22           23           24           25
      1-0.552188D-01 0.103410D+00-0.534327D-01-0.411954D-01 0.453492D+00
      2-0.132625D-01-0.562827D-01 0.485371D-01 0.202535D-01-0.611954D-01
      3 0.207384D-01-0.336251D-01-0.575195D-02-0.944656D-01 0.657702D-02
              26           27           28           29           30
      1 0.395225D-01-0.355694D-01-0.172123D+00-0.116622D+00-0.700933D-01
      2 0.792460D+00-0.206361D+00-0.495143D-01-0.778839D-01-0.154390D-01
      3-0.252475D+00 0.405907D+00-0.407849D-01 0.152959D-01 0.724386D-02
              31           32           33           34           35
      1 0.420692D-01 0.176668D-01 0.442994D-01-0.532062D+00 0.519249D-01
      2 0.112754D-01 0.368116D-03-0.507461D-01 0.118559D-01-0.888706D+00
      3 0.106627D-01-0.559944D-01-0.145876D+00 0.613408D-01 0.250981D+00
              36           37           38           39           40
      1 0.228756D-01 0.317627D+00-0.645468D-01-0.747816D-02-0.305419D+00
      2 0.332382D+00-0.860533D-01 0.339157D+00-0.208225D-01-0.474755D-01
      3-0.562454D+00-0.370322D-01 0.148332D-01 0.291496D+00 0.180406D-01
              41           42           43           44           45
      1-0.141387D-03 0.234979D-01-0.715218D-01 0.547981D-01 0.517411D-01
      2-0.398801D+00 0.127216D+00 0.700342D-01-0.321823D+00 0.900135D-01
      3 0.173530D+00-0.208316D+00 0.103613D+00-0.372894D-01-0.579116D+00
              46           47           48
      1 0.158568D+00-0.340734D-01-0.245532D-01
      2-0.276498D-01 0.314950D+00-0.360857D-01
      3-0.481336D-01-0.551615D-01 0.278232D+00
 Hessian after L701:
                1             2             3             4             5
      1  0.195689D+02
      2 -0.207141D+00  0.154971D+02
      3  0.958042D+00  0.208374D+01  0.131717D+02
      4 -0.236350D+01  0.142864D+01  0.354485D+00  0.220031D+01
      5  0.160123D+01 -0.397494D+01  0.214060D+00 -0.176728D+01  0.385762D+01
      6  0.380955D+00  0.207311D+00 -0.482928D+01 -0.279023D+00 -0.334323D+00
      7 -0.318291D+01 -0.162275D+01 -0.600562D-01 -0.301921D+00  0.515432D-01
      8 -0.168335D+01 -0.299071D+01  0.532593D-01  0.868394D-01  0.205247D+00
      9 -0.635007D-01  0.564428D-01 -0.474994D+01 -0.352866D-01  0.560763D-02
     10 -0.613619D+01 -0.124832D+00 -0.223005D+00  0.290182D-01 -0.484262D-01
     11 -0.118841D+00 -0.539483D+01  0.190663D+01  0.152430D-02  0.939704D-01
     12 -0.248845D+00  0.203337D+01 -0.130353D+01 -0.409741D-01 -0.166219D-01
     13  0.165635D+00 -0.721529D-01 -0.395879D-01  0.572466D-01  0.870078D-01
     14 -0.462013D-01  0.316757D-01 -0.957167D-01  0.792142D-01  0.283469D-01
     15 -0.678460D-01 -0.151790D+00  0.547547D-01  0.815260D-01  0.716361D-01
     16 -0.338049D-01 -0.283783D-01 -0.135860D-01 -0.839954D-02  0.877214D-02
     17 -0.456819D-01 -0.100195D+00  0.118849D+00  0.150305D-01 -0.208296D-01
     18 -0.135578D-01 -0.773747D-03  0.270479D+00  0.423198D-01  0.297909D-01
     19 -0.980112D-02  0.149344D-01 -0.219752D-01 -0.270240D-01 -0.211084D-02
     20  0.544471D-02  0.272506D-02 -0.189185D-01 -0.144670D-01 -0.197986D-01
     21  0.494775D-02  0.114126D-01 -0.205150D-02  0.131999D-01 -0.127808D-01
     22 -0.400016D-01 -0.352663D-02  0.226219D-01  0.250042D-02  0.217956D-02
     23  0.913603D-03 -0.454213D-01 -0.119926D-01  0.202543D-02 -0.488409D-03
     24  0.116956D-01 -0.232155D-01  0.168118D+00  0.114656D-01  0.591843D-02
     25  0.516756D-01 -0.371598D-01 -0.643413D-01  0.491207D-01  0.677294D-02
     26 -0.114681D+00  0.974264D-01  0.131958D+00  0.267401D-02 -0.760878D-01
     27 -0.994808D-01  0.847061D-01  0.138485D+00  0.663894D-03 -0.941122D-01
     28 -0.713016D-01  0.702095D-01  0.189500D-01 -0.156078D-01 -0.477617D-01
     29  0.675169D-01 -0.203595D-01 -0.182230D-01 -0.229489D-01  0.225049D-01
     30  0.343983D-01 -0.176089D-01  0.266617D-01 -0.168701D-01  0.368490D-01
     31 -0.193984D-01 -0.586322D-01 -0.736752D-01 -0.177000D-02 -0.384958D-03
     32 -0.551187D-01  0.418032D-01  0.118737D+00  0.397217D-02  0.125612D-02
     33 -0.813219D-01  0.130392D+00  0.103915D+00  0.884641D-02  0.666831D-02
     34 -0.164698D+00 -0.217454D+00 -0.420956D-01 -0.272998D-01  0.192586D-02
     35 -0.218071D+00  0.347056D+00  0.129088D+00  0.451396D-01  0.786734D-01
     36 -0.529332D-01  0.171635D+00 -0.217097D+00  0.206665D-01  0.357228D-01
     37 -0.237792D-01 -0.143549D-01  0.513632D-02 -0.122041D-02  0.208606D-02
     38 -0.200826D-01  0.647722D-01 -0.247101D-01  0.265969D-02  0.263486D-02
     39  0.195461D-01 -0.727163D-01 -0.189108D-01 -0.894535D-02 -0.102508D-01
     40 -0.763314D+01  0.878863D+00 -0.887587D+00  0.469608D+00  0.980980D-01
     41  0.834942D+00 -0.341440D+01 -0.421960D+01  0.104436D+00 -0.150165D+00
     42 -0.865359D+00 -0.432355D+01 -0.292840D+01 -0.626996D-01  0.133095D+00
     43 -0.124751D+00 -0.821446D-02  0.151660D+00 -0.709261D-01  0.142701D-02
     44 -0.107129D-01 -0.111999D+00 -0.350974D+00  0.309861D-01 -0.484669D-01
     45  0.138394D+00 -0.178660D+00  0.648732D-01 -0.873810D-01 -0.703931D-01
     46  0.170305D-01  0.194452D-02 -0.849860D-01  0.986451D-02  0.491749D-02
     47  0.982535D-02 -0.297126D-01 -0.161909D-01  0.155262D-02  0.530131D-03
     48 -0.551341D-01 -0.106988D-01  0.502698D-01 -0.199322D-02 -0.866639D-03
                6             7             8             9            10
      6  0.446524D+01
      7 -0.390166D-01  0.309932D+01
      8  0.910982D-02  0.201133D+01  0.276804D+01
      9  0.202899D+00  0.161701D-01 -0.924602D-01  0.441076D+01
     10 -0.103077D+00  0.654312D-01  0.468801D-01  0.663971D-01  0.181680D+02
     11 -0.229043D-01  0.409972D-01  0.189303D-01 -0.687479D-01  0.148261D+01
     12 -0.122866D-01  0.341545D-01 -0.418302D-01  0.570829D-01  0.502103D+00
     13  0.808568D-01  0.295788D-01 -0.282596D-02 -0.724858D-02 -0.241946D+01
     14  0.632847D-01 -0.458931D-02 -0.397176D-01 -0.616054D-01  0.130687D+01
     15  0.188903D-01 -0.135896D-02 -0.682937D-01 -0.182316D-01  0.435591D+00
     16  0.159307D-01 -0.238907D-01 -0.317420D-02 -0.955668D-02 -0.591305D+01
     17  0.252261D-01 -0.581696D-02 -0.317092D-01 -0.123073D-01  0.413814D+00
     18  0.208080D-01 -0.408705D-01  0.105780D-01  0.284783D-01 -0.411811D+00
     19 -0.273943D-02  0.656572D-02 -0.504750D-02 -0.361149D-02  0.704320D-01
     20 -0.337934D-01  0.995162D-02 -0.726975D-02 -0.424927D-02 -0.733062D-01
     21  0.449157D-01 -0.806839D-03  0.180278D-02 -0.353905D-02  0.532699D-01
     22  0.249294D-02 -0.434717D-02  0.126691D-02 -0.501583D-03  0.733193D-01
     23  0.130033D-02 -0.200428D-02 -0.125457D-02  0.275705D-02  0.162142D-01
     24  0.546378D-02 -0.119105D-01  0.113306D-01  0.134097D-01  0.112603D-01
     25  0.504383D-02  0.397808D-01 -0.125123D+00 -0.704761D-01 -0.359588D+01
     26 -0.909524D-01 -0.130302D+00  0.108212D+00  0.898242D-01 -0.284069D+01
     27 -0.309085D-01 -0.793957D-01  0.100904D+00 -0.144153D-01 -0.656563D-01
     28 -0.311340D-01  0.875658D-02 -0.818040D-02 -0.142620D-02 -0.225924D+00
     29  0.346457D-01  0.730591D-03 -0.191476D-02 -0.153219D-03  0.828646D-01
     30 -0.689352D-04  0.105389D-02 -0.919651D-03 -0.146889D-02 -0.114768D+00
     31 -0.679226D-04  0.583479D-03  0.456973D-03  0.239546D-02  0.113059D+00
     32  0.939187D-03 -0.109082D-02  0.197254D-03 -0.279971D-02  0.280462D-01
     33  0.253856D-02 -0.583849D-02  0.570098D-02 -0.205968D-03  0.642313D-02
     34  0.224183D-02  0.354475D-02 -0.203582D-01 -0.335096D-02  0.226501D-01
     35  0.289968D-01 -0.329790D-01  0.322911D-01  0.519589D-02 -0.281710D+00
     36 -0.167215D-01 -0.151029D-01  0.195028D-01 -0.112124D-01  0.120918D+00
     37  0.727756D-03 -0.129965D-02 -0.820124D-02  0.381649D-03  0.163102D-01
     38  0.159653D-04 -0.989653D-02  0.168779D-01 -0.110126D-02 -0.184507D-01
     39 -0.510558D-02  0.842201D-02 -0.101963D-01 -0.612320D-02  0.364719D-01
     40 -0.242323D-01  0.332914D+00 -0.287227D+00  0.108135D+00 -0.624478D-01
     41  0.153122D+00 -0.278392D+00 -0.320781D-01  0.135874D+00  0.165116D-01
     42  0.541307D-01  0.128149D+00  0.101312D+00  0.109102D-01 -0.281108D+00
     43 -0.127543D-01 -0.487768D-01 -0.187260D-01  0.159401D-01 -0.213127D+00
     44 -0.434082D-01 -0.249906D-01 -0.443925D-01 -0.298061D-01 -0.801497D-02
     45  0.867873D-01  0.602700D-01 -0.662232D-01  0.404688D-01 -0.282893D-01
     46  0.379518D-02 -0.233322D-01  0.154335D-01 -0.144600D-01  0.785780D-02
     47  0.142918D-02 -0.174630D-02 -0.749321D-03 -0.224715D-01  0.161753D-02
     48 -0.730429D-02  0.613745D-02 -0.335768D-01  0.411271D-01 -0.472195D-02
               11            12            13            14            15
     11  0.155490D+02
     12  0.359688D+00  0.139529D+02
     13  0.144102D+01  0.298434D+00  0.201980D+01
     14 -0.404755D+01  0.159225D+00 -0.151665D+01  0.392985D+01
     15  0.265343D+00 -0.479049D+01 -0.543550D+00 -0.165345D+00  0.452782D+01
     16  0.420171D+00 -0.408857D+00  0.158017D+00  0.174030D-01  0.150834D-01
     17 -0.348630D+01 -0.272674D+01  0.166391D-01 -0.433992D-01  0.707686D-01
     18 -0.271833D+01 -0.307888D+01  0.154828D-02  0.640488D-01  0.239438D-01
     19 -0.360740D-01  0.200257D-01  0.258704D-01  0.611741D-01 -0.126774D-01
     20 -0.445824D-02  0.317926D-01  0.798533D-01  0.670751D-01 -0.171825D-01
     21  0.914705D-01  0.811931D-01 -0.190799D-01 -0.221671D-01 -0.220106D-01
     22  0.547387D-02  0.106865D-01  0.105997D-01 -0.149200D-01  0.202421D-01
     23  0.567154D-01  0.839191D-01 -0.190023D-01 -0.720692D-02  0.382597D-01
     24  0.371504D-01 -0.122651D-01  0.130887D-01  0.319196D-01 -0.307549D-01
     25 -0.290893D+01  0.145717D-01 -0.949513D-01  0.136701D+00 -0.198976D-01
     26 -0.257694D+01 -0.300825D-01  0.101185D+00  0.154616D+00  0.127083D-01
     27  0.111323D+00 -0.582521D+01  0.239853D-01  0.539785D-02  0.190379D+00
     28  0.338179D-01 -0.192847D+00  0.222928D+00  0.489524D-03  0.429906D-01
     29  0.204342D+00  0.515558D-01 -0.166316D-02 -0.558916D-01 -0.549709D-03
     30  0.314886D-01  0.162958D+00  0.319071D-01  0.137507D-02 -0.474077D-01
     31  0.391154D-01  0.512250D-01 -0.548930D-01  0.357990D-01  0.355367D-01
     32 -0.461355D-01 -0.109466D+00  0.359265D-01  0.133506D-01 -0.156342D-01
     33 -0.707619D-01  0.310609D-01  0.352672D-01 -0.235136D-01  0.105393D-01
     34 -0.378920D+00  0.153895D+00 -0.275920D-01 -0.737749D-01  0.291507D-01
     35  0.218866D+00  0.171949D+00 -0.168717D+00  0.592671D-01 -0.713592D-01
     36  0.125948D+00 -0.232340D+00  0.215680D-01 -0.359419D-01 -0.966379D-01
     37 -0.111803D-01  0.190628D-01 -0.709734D-02  0.104965D-01 -0.119699D-01
     38 -0.118290D+00  0.530273D-01  0.131297D-01 -0.727515D-02  0.130671D-01
     39 -0.187403D-01  0.308298D-01  0.389722D-02  0.133520D-01 -0.389445D-03
     40 -0.568082D-02 -0.215207D+00 -0.776389D-01  0.313238D-02 -0.163395D-01
     41 -0.278837D+00 -0.108537D+00  0.669497D-03 -0.704822D-01  0.774717D-02
     42 -0.101954D+00  0.401934D+00  0.656389D-01  0.442354D-01  0.151703D+00
     43 -0.920393D-02  0.229516D-01 -0.643760D-03  0.859872D-02  0.182801D-01
     44 -0.183204D+00  0.899231D-01  0.574035D-02 -0.113048D-01  0.101302D-01
     45  0.721622D-01  0.541679D+00  0.290353D-01  0.185872D-01  0.235699D-01
     46  0.409028D-02 -0.203790D-01 -0.740160D-02 -0.374105D-02 -0.476167D-02
     47 -0.526335D-02 -0.118043D-02 -0.163932D-03 -0.135268D-02  0.494281D-03
     48  0.227972D-03 -0.465202D-02  0.423969D-02  0.286419D-02  0.432691D-02
               16            17            18            19            20
     16  0.130212D+02
     17 -0.145202D+01  0.947671D+01
     18 -0.689368D+00  0.225928D+01  0.814170D+01
     19 -0.323042D+01  0.123755D+01  0.268084D+00  0.319597D+01
     20  0.131855D+01 -0.209412D+01  0.468836D+00 -0.123562D+01  0.187582D+01
     21  0.157727D+00  0.269104D+00 -0.408044D+01 -0.103722D+00 -0.176908D+00
     22 -0.369813D+01  0.130428D+00  0.803800D+00  0.310507D-01 -0.893255D-01
     23  0.823783D-01 -0.396405D+01  0.329731D+00 -0.823201D-01  0.135377D-01
     24  0.829424D+00  0.479670D+00 -0.153668D+01 -0.979529D-01 -0.122484D+00
     25  0.126892D+00 -0.183142D+00  0.182027D-01 -0.257678D-01  0.471062D-02
     26 -0.259489D+00  0.111871D+00  0.662925D-01  0.110731D-01  0.831711D-01
     27  0.828276D-01 -0.340438D-01 -0.587438D-01 -0.511161D-02 -0.291051D-01
     28  0.370307D-01 -0.685857D-01  0.689125D-01 -0.608240D-02 -0.265487D-01
     29 -0.432558D-01 -0.228212D-01 -0.397064D-01 -0.830043D-02  0.151142D-01
     30  0.588237D-01 -0.451650D-01 -0.136501D-01  0.255601D-02 -0.159888D-01
     31 -0.398378D-01 -0.704343D-02 -0.315039D-02 -0.210660D-02 -0.115773D-02
     32 -0.338970D-02  0.283206D-01  0.503318D-02  0.358270D-02  0.605041D-02
     33 -0.153187D-01  0.336820D-01 -0.230504D-01  0.423028D-02  0.124230D-01
     34 -0.162906D+00 -0.607535D-01  0.257421D-01 -0.131259D-01 -0.113954D-02
     35 -0.647900D-01  0.301943D+00 -0.241975D+00  0.157349D-01  0.448170D-01
     36  0.217445D-01 -0.227017D+00 -0.658518D-01 -0.670360D-03 -0.102099D-01
     37 -0.100134D-01  0.108131D-02 -0.123285D-02 -0.257209D-03  0.178692D-02
     38 -0.110486D-02  0.640758D-04 -0.630987D-02  0.859711D-04  0.791294D-03
     39  0.671339D-02 -0.264776D-01  0.813156D-02 -0.491966D-02 -0.119049D-01
     40 -0.152079D+00  0.113768D-01 -0.558544D-01 -0.856412D-02  0.154177D-01
     41  0.113208D-01 -0.855182D-01 -0.190564D+00  0.179280D-01  0.145192D-01
     42 -0.466297D-01 -0.170868D+00  0.266675D+00 -0.267175D-01 -0.475974D-01
     43 -0.684562D-01 -0.571566D-03  0.752548D-03 -0.105494D-01 -0.574603D-03
     44 -0.348271D-02 -0.649240D-01 -0.325194D-01  0.659041D-02  0.151332D-02
     45 -0.162534D-02 -0.134831D-01  0.861779D-01 -0.121170D-01 -0.209209D-01
     46 -0.215421D-02 -0.230295D-02 -0.135167D-01  0.380266D-02  0.642394D-02
     47  0.489795D-03 -0.504006D-02 -0.341580D-02  0.820238D-03  0.513110D-03
     48 -0.333320D-02 -0.482812D-03  0.109088D-01 -0.268097D-02 -0.378908D-02
               21            22            23            24            25
     21  0.400917D+01
     22 -0.987807D-01  0.366129D+01
     23 -0.115132D+00  0.407048D-01  0.394248D+01
     24 -0.542931D-02 -0.833886D+00 -0.273194D+00  0.127378D+01
     25  0.168544D-02 -0.129828D-01 -0.159953D-01  0.281179D-01  0.181155D+02
     26 -0.853205D-02 -0.291198D-01 -0.321702D-02 -0.553999D-01  0.609252D+00
     27 -0.275284D-01  0.400733D-01 -0.316546D-01  0.440223D-01  0.130219D+01
     28  0.571688D-02  0.292088D-02  0.243896D-02  0.810359D-02 -0.208452D+01
     29 -0.874254D-02  0.265619D-02 -0.198646D-02  0.370499D-02  0.113638D+01
     30 -0.468088D-02  0.121905D-02  0.190871D-02  0.367966D-02  0.626825D+00
     31 -0.409538D-03  0.119551D-02 -0.215118D-01  0.160655D-01 -0.452442D+01
     32  0.212108D-02 -0.266003D-01  0.214196D-01 -0.276847D-01 -0.764716D-01
     33  0.620410D-03  0.615199D-03 -0.704311D-02 -0.197573D-01 -0.340294D+00
     34 -0.430641D-03 -0.888555D-02 -0.486850D-02  0.151720D-01 -0.780130D+01
     35 -0.470163D-02 -0.172889D-01  0.401035D-02 -0.469609D-01  0.157844D+01
     36 -0.106776D-01  0.118013D-01 -0.162231D-01  0.147287D-01 -0.119379D+01
     37 -0.647413D-05 -0.149576D-02 -0.198353D-03 -0.775888D-03  0.131584D+00
     38 -0.923812D-03 -0.121483D-03  0.235562D-03 -0.107737D-02 -0.192400D-01
     39  0.309203D-03  0.435181D-02 -0.229431D-02  0.127613D-01  0.324743D-01
     40 -0.929724D-02 -0.108170D-01  0.105168D-02 -0.541441D-03 -0.286530D+00
     41 -0.181349D-01 -0.123300D-02 -0.835280D-02 -0.145627D-01 -0.869043D-01
     42  0.104664D-01  0.934939D-02 -0.213728D-02  0.436814D-01 -0.291069D+00
     43 -0.259246D-02 -0.426280D-02  0.803068D-03  0.790034D-02 -0.864930D-01
     44 -0.732395D-02 -0.461937D-03 -0.596129D-02 -0.426059D-02 -0.171992D-01
     45  0.859965D-02  0.504807D-02  0.133614D-02  0.210140D-01 -0.423926D-01
     46 -0.142095D-02 -0.195350D-02 -0.629418D-03 -0.722742D-02 -0.168509D-02
     47 -0.563774D-03 -0.111626D-03 -0.464297D-03 -0.853565D-03 -0.208885D-02
     48  0.108676D-02  0.866794D-03  0.460046D-03  0.422151D-02 -0.685503D-02
               26            27            28            29            30
     26  0.123796D+02
     27  0.265171D+01  0.164995D+02
     28  0.132263D+01  0.808117D+00  0.161521D+01
     29 -0.398265D+01  0.351787D+00 -0.117451D+01  0.393124D+01
     30  0.319934D+00 -0.435833D+01 -0.573133D+00 -0.441169D+00  0.428486D+01
     31 -0.955715D-01 -0.455947D+00  0.813666D-01 -0.819548D-01 -0.158418D+00
     32 -0.442281D+01  0.692582D+00 -0.101709D+00  0.980503D-01 -0.144948D+00
     33  0.652832D+00 -0.164212D+01 -0.186984D+00 -0.140406D+00 -0.793062D-01
     34  0.150731D+01 -0.117822D+01  0.388442D+00  0.751096D-01  0.115175D+00
     35 -0.167302D+01 -0.423398D+01  0.714903D-01 -0.118690D+00  0.220449D+00
     36 -0.398942D+01 -0.557315D+01  0.120203D+00  0.182346D+00  0.348706D-01
     37  0.287932D-01  0.151354D-01 -0.104824D-01 -0.357026D-01  0.405530D-01
     38  0.181107D+00  0.109009D+00 -0.515038D-01 -0.179095D-01  0.442419D-01
     39 -0.688438D-01  0.427739D-01  0.281216D-01  0.314836D-01 -0.138987D-01
     40 -0.833028D-01 -0.301044D+00  0.470870D-01  0.330544D-02 -0.343867D-01
     41 -0.301595D+00  0.234847D+00 -0.133694D-01 -0.340111D-01  0.479120D-02
     42  0.242087D+00  0.498743D+00 -0.796795D-01 -0.661247D-02 -0.161692D-02
     43 -0.243134D-01 -0.671969D-01  0.248235D-02 -0.187493D-02 -0.137448D-01
     44 -0.744889D-01  0.765142D-01 -0.877790D-02 -0.142044D-01  0.448093D-02
     45  0.702890D-01  0.102488D+00 -0.311742D-01  0.662293D-03  0.684837D-02
     46 -0.544514D-02 -0.209445D-01  0.769154D-02  0.165094D-02 -0.119092D-02
     47 -0.524170D-02  0.411955D-02 -0.128760D-03 -0.816249D-03  0.281224D-03
     48  0.559342D-02  0.140508D-01 -0.473719D-02 -0.621976D-03  0.546223D-03
               31            32            33            34            35
     31  0.449137D+01
     32  0.305659D+00  0.448894D+01
     33  0.561863D+00 -0.789920D+00  0.114934D+01
     34 -0.115969D-02 -0.109907D+00  0.965968D-01  0.150893D+02
     35 -0.116287D+00 -0.180669D+00  0.194639D+00 -0.220208D+00  0.758512D+01
     36  0.991758D-01  0.267976D+00  0.196260D+00  0.229827D+01  0.183881D+01
     37 -0.281213D-01  0.647130D-02 -0.451452D-01 -0.692695D+01 -0.231992D+00
     38  0.941776D-02 -0.349958D-01 -0.410345D-01 -0.141683D+00 -0.682877D+01
     39 -0.456531D-01 -0.293032D-01  0.181293D+00 -0.118064D+01  0.133644D+01
     40 -0.102275D-01 -0.645379D-02 -0.282408D-01 -0.235526D+00 -0.286930D+00
     41 -0.567101D-02 -0.110357D-01  0.240814D-01 -0.287313D+00  0.936557D-01
     42 -0.219885D-01  0.220484D-01  0.619654D-01 -0.255668D+00  0.448985D+00
     43 -0.675331D-02 -0.796909D-03 -0.287334D-02 -0.143651D+00 -0.458550D-01
     44 -0.221406D-02 -0.326646D-02  0.119976D-01 -0.626878D-01  0.379231D-01
     45 -0.591173D-02  0.896674D-02  0.227720D-01 -0.630402D-01  0.205804D+00
     46  0.110513D-02 -0.211955D-02 -0.782528D-02  0.917210D-02 -0.259783D-01
     47 -0.196060D-04 -0.484043D-03  0.262504D-03 -0.527647D-02 -0.247404D-02
     48 -0.104024D-02  0.135223D-02  0.413053D-02 -0.128099D-01  0.186273D-01
               36            37            38            39            40
     36  0.752266D+01
     37 -0.106141D+01  0.707050D+01
     38  0.842069D+00  0.383850D+00  0.669054D+01
     39 -0.173090D+01  0.113413D+01 -0.120813D+01  0.172522D+01
     40 -0.298543D+00 -0.183764D+00 -0.138614D+00 -0.383413D-01  0.124123D+02
     41  0.537581D+00 -0.125907D+00  0.385952D-01  0.776942D-01 -0.269134D+00
     42  0.533748D-01 -0.920890D-01  0.198747D+00 -0.196984D+00  0.116166D+01
     43 -0.525052D-01 -0.227649D-01 -0.785866D-02 -0.230386D-02 -0.491290D+01
     44  0.245260D+00 -0.608155D-02  0.110900D-01 -0.310614D-03  0.746904D-01
     45  0.114577D+00 -0.148688D-02  0.214739D-01 -0.248083D-01  0.715080D+00
     46 -0.393974D-01 -0.114331D-02 -0.587587D-03  0.666526D-02  0.311732D+00
     47  0.119589D-01 -0.947683D-03  0.524945D-03  0.202977D-03 -0.859286D-02
     48  0.181168D-01 -0.101278D-02  0.163554D-02 -0.419716D-02 -0.752641D-01
               41            42            43            44            45
     41  0.796632D+01
     42  0.677672D+00 -0.360192D-01
     43  0.133858D+00  0.820830D+00  0.794983D+01
     44 -0.379441D+01  0.289425D+01 -0.215266D+00  0.105322D+02
     45  0.277883D+01  0.183109D+01  0.990249D+00 -0.288841D+01  0.227897D+01
     46 -0.517407D-01 -0.162624D+00 -0.223827D+01  0.241883D+00 -0.166466D+01
     47  0.677944D-01 -0.109710D+00  0.188569D+00 -0.622612D+01  0.599760D-01
     48 -0.808461D-01 -0.221659D+00 -0.187459D+01  0.244603D-01 -0.520511D+01
               46            47            48
     46  0.190768D+01
     47 -0.183799D+00  0.620836D+01
     48  0.203293D+01  0.756613D-01  0.529414D+01
 ReadGW:  IGet=0 IStart=         114 Next=        7248 LGW=        7134.
 ICntrl=12127.
 Symmetry not used in FoFDir.
 MinBra= 0 MaxBra= 2 Meth= 1.
 IRaf=       0 NMat=   1 IRICut=       1 DoRegI=T DoRafI=F ISym2E= 0 JSym2E=0.
 PrsmSu:  NPrtUS=   8 ThrOK=T
 PRISM was handed    16288556 working-precision words and  2423 shell-pairs
 PRISM was handed    16288556 working-precision words and  2423 shell-pairs
 PRISM was handed    16288556 working-precision words and  2423 shell-pairs
 PRISM was handed    16288556 working-precision words and  2423 shell-pairs
 PRISM was handed    16288556 working-precision words and  2423 shell-pairs
 PRISM was handed    16288556 working-precision words and  2423 shell-pairs
 PRISM was handed    16288556 working-precision words and  2423 shell-pairs
 PRISM was handed    16288556 working-precision words and  2423 shell-pairs
 Pruned (  75, 302) grid will be used in CalDFT.
 CkSvGd:  ISavGI=        -1 IRadAn=       4 IRASav=       4 ISavGd=        -1.
 CalDSu:  NPrtUS=   8 ThrOK=T
 IPart= 0 IRanGd=          0 ScrnBf=T ScrnGd=T RCrit=4.00D+00 DoMicB=T.
 IPart= 6 IRanGd=          0 ScrnBf=T ScrnGd=T RCrit=4.00D+00 DoMicB=T.
 IPart= 7 IRanGd=          0 ScrnBf=T ScrnGd=T RCrit=4.00D+00 DoMicB=T.
 IPart= 2 IRanGd=          0 ScrnBf=T ScrnGd=T RCrit=4.00D+00 DoMicB=T.
 CutRad = 1000.00    CtRdIn =    0.00    XCrit =  15.00   ICut = 0
 IPart= 3 IRanGd=          0 ScrnBf=T ScrnGd=T RCrit=4.00D+00 DoMicB=T.
 CutRad = 1000.00    CtRdIn =    0.00    XCrit =  15.00   ICut = 0
 CutRad = 1000.00    CtRdIn =    0.00    XCrit =  15.00   ICut = 0
 CutRad = 1000.00    CtRdIn =    0.00    XCrit =  15.00   ICut = 0
 IPart= 1 IRanGd=          0 ScrnBf=T ScrnGd=T RCrit=4.00D+00 DoMicB=T.
 IPart= 4 IRanGd=          0 ScrnBf=T ScrnGd=T RCrit=4.00D+00 DoMicB=T.
 CutRad = 1000.00    CtRdIn =    0.00    XCrit =  15.00   ICut = 0
 IPart= 5 IRanGd=          0 ScrnBf=T ScrnGd=T RCrit=4.00D+00 DoMicB=T.
 CutRad = 1000.00    CtRdIn =    0.00    XCrit =  15.00   ICut = 0
 CutRad = 1000.00    CtRdIn =    0.00    XCrit =  15.00   ICut = 0
 CutRad = 1000.00    CtRdIn =    0.00    XCrit =  15.00   ICut = 0
 IPart= 1        14542 of        17498 points in      39 batches and      106 microbatches, Max-NSigAt=      16 Max-NSgAt2=      16
 IPart= 4        14370 of        16250 points in      34 batches and      111 microbatches, Max-NSigAt=      16 Max-NSgAt2=      16
 IPart= 2        14049 of        15810 points in      33 batches and       95 microbatches, Max-NSigAt=      16 Max-NSgAt2=      16
 IPart= 5        12309 of        13812 points in      28 batches and       87 microbatches, Max-NSigAt=      16 Max-NSgAt2=      16
 IPart= 0        13980 of        15916 points in      31 batches and       95 microbatches, Max-NSigAt=      16 Max-NSgAt2=      16
 IPart= 3        14160 of        16102 points in      33 batches and       90 microbatches, Max-NSigAt=      16 Max-NSgAt2=      16
 IPart= 6        14457 of        16560 points in      35 batches and       98 microbatches, Max-NSigAt=      16 Max-NSgAt2=      16
 IPart= 7        14669 of        16572 points in      34 batches and      108 microbatches, Max-NSigAt=      16 Max-NSgAt2=      16
 Polarizability after L703:
                1             2             3
      1  0.493329D+02
      2 -0.167666D+01  0.580314D+02
      3 -0.325203D+01 -0.160936D+01  0.717759D+02
 Dipole Derivatives after L703:
               1            2            3            4            5
      1 0.384653D+00-0.122477D-02-0.316983D-01-0.110869D+00-0.447378D-01
      2 0.204701D-01 0.434484D+00-0.174922D+00-0.946739D-01-0.818535D-02
      3-0.497155D-01-0.223699D+00 0.460177D+00-0.146406D-01 0.506799D-01
               6            7            8            9           10
      1-0.253537D-01-0.839181D-01 0.820261D-01 0.391875D-01 0.367579D-01
      2-0.351902D-02 0.125905D+00-0.765582D-01-0.236777D-01 0.124106D+00
      3 0.854632D-02 0.321646D-01 0.343976D-01-0.742447D-02-0.518521D-01
              11           12           13           14           15
      1 0.437044D-01-0.323314D-01-0.777582D-01-0.805185D-01 0.504438D-02
      2-0.167592D+00 0.574857D-01-0.741576D-01-0.146617D-01 0.410277D-02
      3 0.199167D+00 0.431688D-01-0.511337D-02-0.273028D-01 0.118734D-01
              16           17           18           19           20
      1-0.211964D+00 0.191379D+00 0.136846D+00 0.690573D-01-0.857245D-01
      2 0.258678D+00 0.447754D-01-0.866181D-01-0.125322D+00-0.205191D-01
      3 0.637727D-01-0.101737D+00 0.702684D-01-0.152736D-01 0.205266D-01
              21           22           23           24           25
      1-0.552188D-01 0.103410D+00-0.534327D-01-0.411954D-01 0.453492D+00
      2-0.132625D-01-0.562827D-01 0.485371D-01 0.202535D-01-0.611954D-01
      3 0.207384D-01-0.336251D-01-0.575195D-02-0.944656D-01 0.657702D-02
              26           27           28           29           30
      1 0.395225D-01-0.355694D-01-0.172123D+00-0.116622D+00-0.700933D-01
      2 0.792460D+00-0.206361D+00-0.495143D-01-0.778839D-01-0.154390D-01
      3-0.252475D+00 0.405907D+00-0.407849D-01 0.152959D-01 0.724386D-02
              31           32           33           34           35
      1 0.420692D-01 0.176668D-01 0.442994D-01-0.532062D+00 0.519249D-01
      2 0.112754D-01 0.368116D-03-0.507461D-01 0.118559D-01-0.888706D+00
      3 0.106627D-01-0.559944D-01-0.145876D+00 0.613408D-01 0.250981D+00
              36           37           38           39           40
      1 0.228756D-01 0.317627D+00-0.645468D-01-0.747816D-02-0.305419D+00
      2 0.332382D+00-0.860533D-01 0.339157D+00-0.208225D-01-0.474755D-01
      3-0.562454D+00-0.370322D-01 0.148332D-01 0.291496D+00 0.180406D-01
              41           42           43           44           45
      1-0.141387D-03 0.234979D-01-0.715218D-01 0.547981D-01 0.517411D-01
      2-0.398801D+00 0.127216D+00 0.700342D-01-0.321823D+00 0.900135D-01
      3 0.173530D+00-0.208316D+00 0.103613D+00-0.372894D-01-0.579116D+00
              46           47           48
      1 0.158568D+00-0.340734D-01-0.245532D-01
      2-0.276498D-01 0.314950D+00-0.360857D-01
      3-0.481336D-01-0.551615D-01 0.278232D+00
 Hessian after L703:
                1             2             3             4             5
      1  0.600383D+00
      2 -0.154927D-01  0.532818D+00
      3  0.191811D-01  0.470537D-01  0.430417D+00
      4 -0.248384D+00 -0.904451D-01 -0.446083D-01  0.263088D+00
      5 -0.872846D-01 -0.926539D-01 -0.201227D-01  0.105607D+00  0.109646D+00
      6 -0.482863D-01 -0.265433D-01 -0.562689D-01  0.453953D-01  0.179622D-01
      7 -0.199797D+00  0.122238D+00  0.156797D-01 -0.206436D-01  0.183150D-01
      8  0.119565D+00 -0.151172D+00 -0.144341D-01 -0.949125D-02  0.103583D-01
      9  0.157743D-01 -0.186334D-01 -0.492289D-01 -0.585309D-02  0.289264D-02
     10 -0.816923D-01 -0.428025D-02 -0.245983D-02  0.411963D-03 -0.120217D-01
     11 -0.443127D-02 -0.106965D+00 -0.492186D-01  0.520466D-03 -0.646812D-02
     12 -0.226231D-02 -0.417837D-01 -0.138394D+00 -0.254766D-03 -0.456711D-02
     13  0.755664D-03  0.581656D-03 -0.869334D-03  0.105174D-02  0.225682D-04
     14 -0.129282D-01 -0.812669D-02 -0.236350D-02  0.521501D-03 -0.473305D-03
     15 -0.283222D-01 -0.158189D-01 -0.637910D-02  0.510837D-03 -0.206661D-02
     16 -0.972389D-03  0.299223D-02 -0.183638D-03  0.386865D-03  0.513354D-03
     17  0.207133D-02  0.996189D-02 -0.961106D-03 -0.334393D-03  0.352224D-03
     18  0.271098D-02  0.229400D-01 -0.314000D-01  0.148997D-03  0.774012D-03
     19  0.473540D-03 -0.735482D-03 -0.678891D-03  0.648398D-04  0.649758D-04
     20 -0.482584D-04  0.674864D-04 -0.153414D-02  0.417745D-03  0.298579D-03
     21  0.165939D-02  0.156435D-02  0.160256D-02 -0.566242D-03 -0.804353D-04
     22  0.415962D-03 -0.727944D-03  0.929189D-03  0.180372D-03  0.184361D-03
     23 -0.428244D-03 -0.412427D-02  0.688962D-03  0.357397D-03  0.913373D-04
     24  0.103252D-03  0.390569D-02 -0.450963D-03 -0.971832D-04 -0.214567D-04
     25 -0.210934D-02  0.420311D-02  0.595159D-02  0.114740D-02 -0.222906D-02
     26  0.137080D-01 -0.113837D-01 -0.101233D-01  0.631713D-03 -0.231794D-03
     27  0.265861D-01 -0.284294D-01 -0.211982D-02  0.376730D-03  0.750808D-03
     28  0.388789D-03 -0.206661D-02 -0.132740D-02  0.550770D-03  0.973102D-03
     29  0.353330D-03  0.118741D-02  0.116386D-02 -0.601565D-03  0.389519D-04
     30  0.124973D-02  0.796578D-03  0.462675D-03 -0.200362D-03  0.483164D-04
     31 -0.364714D-02  0.300763D-02 -0.993119D-03  0.224465D-03  0.278943D-03
     32  0.415072D-02 -0.288696D-02  0.693039D-03  0.632134D-04  0.251463D-03
     33  0.199549D-03  0.309175D-03  0.644355D-03  0.103368D-04  0.154021D-03
     34 -0.579194D-04 -0.204141D-02  0.269627D-03  0.881227D-04  0.744610D-03
     35 -0.145877D-02  0.137678D-02  0.187332D-02  0.492869D-04  0.160775D-03
     36 -0.156041D-03  0.344173D-02 -0.428369D-02 -0.159004D-03 -0.458261D-03
     37  0.133818D-02  0.951898D-03 -0.122474D-02 -0.310065D-03 -0.649455D-03
     38  0.245881D-03 -0.425594D-02  0.296503D-02  0.224726D-03  0.315371D-03
     39 -0.181424D-02  0.791235D-04  0.408529D-02  0.152222D-03  0.341015D-03
     40 -0.668741D-01 -0.235279D-01  0.362210D-02  0.144323D-02 -0.271252D-01
     41 -0.193688D-01 -0.179324D+00  0.265769D-01 -0.870023D-02 -0.231177D-01
     42  0.161997D-01  0.773358D-01 -0.936399D-01  0.569004D-02  0.607348D-02
     43 -0.655357D-03  0.877668D-02  0.625516D-02  0.577797D-03  0.205312D-02
     44  0.312504D-02  0.164454D-01  0.171339D-01  0.757992D-03  0.140145D-02
     45 -0.542093D-02 -0.222374D-01 -0.495990D-01 -0.220425D-03 -0.130752D-02
     46  0.434734D-03 -0.343417D-02  0.456701D-03  0.122581D-03  0.552696D-03
     47 -0.177811D-02 -0.964042D-03  0.608611D-03  0.421173D-03  0.307696D-04
     48  0.259793D-02 -0.398013D-02 -0.544717D-02 -0.325152D-03 -0.372402D-03
                6             7             8             9            10
      6  0.657995D-01
      7  0.324202D-02  0.204835D+00
      8 -0.991792D-04 -0.133297D+00  0.175506D+00
      9  0.273243D-02 -0.163436D-01  0.782173D-02  0.571428D-01
     10 -0.259892D-01  0.881176D-03  0.984468D-02  0.227365D-01  0.496221D+00
     11 -0.141563D-01 -0.230492D-02 -0.705422D-02 -0.185883D-01  0.988580D-01
     12 -0.746349D-02 -0.104792D-02 -0.257101D-02 -0.203314D-02  0.133945D-01
     13  0.760030D-03  0.766089D-03 -0.101215D-03 -0.439464D-03 -0.233048D+00
     14 -0.234824D-02  0.101504D-03 -0.110415D-03  0.337684D-03 -0.105094D+00
     15 -0.525792D-02  0.561441D-03  0.480447D-03  0.118722D-02 -0.271508D-01
     16 -0.359129D-03  0.773919D-03 -0.620238D-03 -0.404517D-03 -0.579100D-01
     17 -0.138215D-02  0.121445D-03  0.224104D-03 -0.944591D-03 -0.330042D-01
     18  0.155315D-02  0.438820D-04  0.118479D-02  0.122191D-02  0.550864D-02
     19  0.291644D-03 -0.377020D-03  0.125010D-03  0.267285D-03  0.213347D-02
     20  0.838151D-03 -0.420425D-05  0.543475D-04  0.231866D-03 -0.124436D-01
     21 -0.111547D-03  0.123134D-03 -0.257940D-03 -0.117299D-03  0.107026D-01
     22  0.136029D-03 -0.783233D-04 -0.768800D-04  0.125844D-03  0.241324D-02
     23  0.232002D-03 -0.180190D-03  0.578262D-04  0.101697D-04  0.713512D-02
     24  0.199353D-03  0.113456D-03 -0.643305D-04 -0.315858D-04 -0.510971D-02
     25 -0.178666D-02  0.389543D-03 -0.427842D-03 -0.131006D-02 -0.112270D+00
     26  0.119470D-02  0.120423D-04 -0.394059D-03 -0.460079D-03  0.310153D-01
     27  0.136938D-02  0.214162D-03 -0.250038D-02 -0.689492D-02  0.549837D-04
     28  0.111531D-02  0.673367D-03  0.103591D-03 -0.140069D-03 -0.237779D-01
     29  0.552668D-05 -0.203824D-03  0.102180D-03  0.216139D-03  0.211841D-01
     30  0.313959D-03 -0.142032D-03  0.763809D-04  0.130318D-03  0.329496D-02
     31  0.800669D-04  0.247965D-03  0.688305D-03  0.136553D-02 -0.254518D-02
     32  0.385986D-03  0.270999D-03 -0.335500D-03 -0.153652D-02  0.121581D-02
     33  0.132024D-03  0.435551D-04 -0.315176D-04 -0.155442D-04  0.186817D-03
     34  0.416236D-03  0.379514D-04 -0.117264D-03 -0.431516D-03  0.631654D-02
     35 -0.610651D-04  0.365573D-03  0.639363D-04 -0.204784D-03 -0.418822D-02
     36  0.247398D-03 -0.241829D-04 -0.128723D-03  0.123036D-02 -0.224442D-02
     37  0.137484D-03 -0.158569D-03 -0.345679D-03  0.165471D-03  0.164729D-02
     38 -0.284327D-03 -0.177509D-03  0.682023D-03 -0.505993D-03  0.739564D-03
     39 -0.421330D-03  0.118235D-03  0.515330D-03 -0.763552D-03  0.107834D-03
     40  0.246197D-01  0.126438D-01  0.157655D-01 -0.151947D-01  0.551475D-03
     41  0.236197D-01 -0.437111D-02 -0.305715D-01  0.292269D-01  0.177381D-02
     42 -0.723352D-02 -0.124881D-02  0.100023D-01 -0.866725D-02  0.620060D-02
     43  0.641104D-03  0.390835D-03 -0.216077D-02 -0.542912D-03  0.365560D-03
     44  0.813580D-03 -0.135016D-02  0.270366D-02 -0.618710D-03 -0.137664D-02
     45  0.431954D-02 -0.105149D-02 -0.656781D-03  0.417195D-02  0.102204D-02
     46 -0.413695D-03 -0.585425D-03  0.546497D-03  0.224925D-03  0.302177D-03
     47 -0.177167D-03  0.464209D-03 -0.114946D-03  0.755254D-03  0.642430D-03
     48  0.899354D-04 -0.281602D-03  0.662971D-03 -0.648941D-04 -0.255560D-03
               11            12            13            14            15
     11  0.456296D+00
     12 -0.326087D-02  0.471301D+00
     13 -0.104151D+00 -0.309325D-01  0.256672D+00
     14 -0.969962D-01 -0.206994D-01  0.111241D+00  0.115187D+00
     15 -0.183950D-01 -0.560519D-01  0.330775D-01  0.192191D-01  0.605543D-01
     16 -0.276294D-01  0.145421D-02 -0.545339D-03 -0.185450D-01  0.187726D-01
     17 -0.135895D+00  0.710162D-01 -0.178020D-02 -0.165536D-01  0.142038D-01
     18  0.667031D-01 -0.150851D+00  0.338275D-03 -0.706110D-03  0.387534D-02
     19  0.367463D-03 -0.399966D-03  0.257701D-04 -0.121213D-02  0.364736D-03
     20 -0.970211D-02 -0.588105D-02  0.112428D-02 -0.145669D-02  0.242099D-02
     21  0.149979D-01  0.618687D-02  0.579570D-03  0.321157D-02 -0.232285D-02
     22 -0.167656D-02  0.409671D-02  0.785926D-03  0.127134D-02  0.237258D-03
     23  0.720130D-02  0.204710D-01 -0.182672D-03  0.823696D-03 -0.835734D-03
     24 -0.686210D-02 -0.125934D-01  0.249268D-03 -0.244478D-03  0.854147D-03
     25  0.169419D-01  0.149801D-01 -0.290528D-01  0.227167D-01  0.154726D-02
     26 -0.751917D-01 -0.232524D-01 -0.925132D-02  0.666485D-02  0.382567D-03
     27 -0.595303D-02 -0.778066D-01 -0.340837D-02  0.310358D-02  0.180688D-02
     28 -0.421927D-02 -0.908498D-02 -0.265967D-02  0.303937D-02  0.229073D-03
     29  0.575462D-02  0.575687D-02  0.380483D-02 -0.299641D-02 -0.119909D-03
     30 -0.234276D-02  0.205827D-02  0.711107D-03  0.403335D-03  0.536692D-03
     31  0.105666D-01  0.216149D-01  0.693590D-03 -0.708366D-03  0.113752D-03
     32 -0.850767D-02 -0.191518D-01  0.517961D-04  0.735170D-03  0.393783D-03
     33 -0.193430D-02 -0.549327D-03  0.267633D-03  0.814202D-04  0.221353D-03
     34  0.183073D-01 -0.121566D-01  0.490216D-02 -0.139795D-02  0.212075D-04
     35 -0.375875D-01  0.248913D-01 -0.168310D-02  0.262060D-02 -0.100683D-03
     36  0.116236D-01 -0.171040D-02  0.645870D-03 -0.113496D-02 -0.429945D-03
     37 -0.731329D-03 -0.138836D-02 -0.567576D-03  0.161438D-03 -0.387523D-03
     38  0.963036D-03  0.154408D-02  0.130413D-03 -0.755549D-04 -0.127823D-03
     39 -0.215561D-02  0.263729D-02 -0.687122D-03  0.533198D-03 -0.235311D-03
     40  0.108401D-02  0.666099D-03  0.113471D-03  0.650012D-03 -0.188518D-03
     41  0.142760D-01 -0.654259D-02  0.468474D-04  0.658110D-03 -0.143002D-03
     42  0.172107D-01 -0.357824D-01  0.564689D-04  0.654836D-03  0.152177D-02
     43 -0.252694D-02  0.189963D-02  0.130511D-03  0.209979D-03  0.527280D-03
     44 -0.357066D-03  0.366899D-02  0.219686D-03  0.834861D-04  0.455924D-03
     45  0.107874D-01  0.165160D-02 -0.277779D-03  0.274179D-04  0.228263D-03
     46  0.102517D-02 -0.578781D-03 -0.237399D-04 -0.272650D-04  0.860917D-04
     47  0.234252D-03  0.361356D-03 -0.734092D-04  0.157745D-04  0.510821D-04
     48  0.154417D-02 -0.599431D-03 -0.711232D-04 -0.754824D-04 -0.108976D-03
               16            17            18            19            20
     16  0.212149D+00
     17  0.209661D+00  0.462723D+00
     18  0.130167D+00 -0.159652D-01  0.548236D+00
     19 -0.107910D+00 -0.148065D+00 -0.383043D-01  0.107520D+00
     20 -0.143556D+00 -0.236158D+00 -0.353247D-01  0.155713D+00  0.247069D+00
     21 -0.368191D-01 -0.356903D-01 -0.619207D-01  0.379351D-01  0.369183D-01
     22 -0.519902D-01 -0.329714D-01 -0.949722D-01 -0.909448D-03 -0.191014D-02
     23 -0.352963D-01 -0.545889D-01 -0.457597D-01 -0.661342D-02 -0.118959D-03
     24 -0.980224D-01 -0.430340D-01 -0.303327D+00  0.595338D-03  0.190127D-02
     25  0.474424D-02  0.286947D-02 -0.868428D-02 -0.111083D-02 -0.963925D-03
     26  0.883939D-02 -0.274623D-01  0.136914D-01 -0.170829D-03  0.593524D-04
     27 -0.121953D-01  0.154288D-01 -0.270500D-02  0.123501D-03  0.101787D-03
     28  0.379196D-03 -0.112125D-02  0.134295D-02  0.916978D-05  0.595716D-03
     29 -0.193081D-03  0.193725D-02 -0.107047D-02  0.618248D-04 -0.150083D-03
     30  0.392688D-03 -0.316409D-03 -0.337019D-03 -0.690767D-04  0.207677D-03
     31  0.610494D-03 -0.125471D-02  0.111179D-02 -0.449912D-04  0.117612D-04
     32 -0.636250D-03  0.749533D-03 -0.131334D-02  0.210098D-03 -0.153988D-03
     33 -0.341371D-03  0.131168D-02  0.772794D-03 -0.286393D-04  0.405260D-04
     34 -0.292668D-03  0.376659D-02  0.769254D-03  0.120240D-03  0.817145D-03
     35  0.533931D-02 -0.373608D-02 -0.260959D-02 -0.309254D-03 -0.259410D-03
     36 -0.180066D-02  0.164607D-02  0.252206D-02  0.216082D-03  0.146082D-03
     37 -0.425742D-03  0.320098D-03 -0.119190D-03  0.581198D-04 -0.142479D-03
     38  0.143104D-03 -0.539444D-03 -0.401401D-03 -0.856958D-04  0.447318D-04
     39  0.704919D-03 -0.501750D-03 -0.641938D-03 -0.186103D-03 -0.108597D-03
     40  0.357646D-03 -0.747418D-03 -0.504480D-03 -0.178227D-04  0.418299D-03
     41 -0.104355D-02 -0.129306D-02 -0.264336D-02  0.647702D-03  0.388920D-03
     42 -0.540380D-03 -0.224970D-02 -0.439968D-02 -0.293916D-03 -0.211288D-03
     43  0.758158D-03  0.717510D-03  0.716278D-03 -0.529241D-04 -0.313124D-04
     44  0.402712D-04  0.388037D-03  0.598095D-03  0.439857D-04  0.772497D-05
     45 -0.581520D-03 -0.234461D-02 -0.220314D-02  0.141946D-03  0.248709D-03
[...]
    Z7        4.51445   0.00001   0.00000   0.00053   0.00049   4.51494
    X8       -0.96258  -0.00001   0.00000   0.00098   0.00114  -0.96144
    Y8        0.68875   0.00001   0.00000  -0.00022  -0.00002   0.68873
    Z8        6.76196   0.00000   0.00000  -0.00027  -0.00032   6.76164
    X9       -3.37472   0.00000   0.00000  -0.00012  -0.00024  -3.37496
    Y9        4.38299   0.00001   0.00000  -0.00025  -0.00021   4.38278
    Z9        3.03810  -0.00001   0.00000   0.00004   0.00001   3.03811
   X10       -5.18765   0.00000   0.00000  -0.00002  -0.00010  -5.18775
   Y10        3.56073   0.00001   0.00000  -0.00053  -0.00061   3.56012
   Z10        2.43368  -0.00001   0.00000   0.00014   0.00013   2.43380
   X11       -3.57760   0.00000   0.00000  -0.00008  -0.00022  -3.57782
   Y11        4.95942   0.00001   0.00000  -0.00020  -0.00017   4.95925
   Z11        5.00865  -0.00001   0.00000   0.00003   0.00000   5.00865
   X12       -2.77854   0.00001   0.00000  -0.00060  -0.00088  -2.77942
   Y12        6.59776   0.00000   0.00000  -0.00018  -0.00011   6.59765
   Z12        1.66711  -0.00001   0.00000  -0.00002  -0.00006   1.66705
   X13       -2.46633   0.00001   0.00000   0.00015  -0.00012  -2.46645
   Y13        6.08604   0.00000   0.00000  -0.00021  -0.00011   6.08592
   Z13       -0.05630  -0.00001   0.00000   0.00011   0.00007  -0.05623
   X14       -0.86763   0.00001   0.00000   0.00059   0.00051  -0.86712
   Y14        2.97232  -0.00001   0.00000   0.00031   0.00052   2.97284
   Z14       -1.60490   0.00000   0.00000   0.00002  -0.00003  -1.60494
   X15       -1.16964   0.00001   0.00000  -0.00037  -0.00039  -1.17003
   Y15        1.80719  -0.00001   0.00000   0.00115   0.00133   1.80853
   Z15       -4.06804   0.00000   0.00000  -0.00017  -0.00023  -4.06827
   X16        0.53808   0.00000   0.00000   0.00057   0.00053   0.53862
   Y16        1.94599  -0.00002   0.00000  -0.00374  -0.00344   1.94255
   Z16       -4.70647   0.00000   0.00000   0.00123   0.00116  -4.70531
         Item               Value     Threshold  Converged?
 Maximum Force            0.000018     0.000450     YES
 RMS     Force            0.000007     0.000300     YES
 Maximum Displacement     0.003442     0.001800     NO 
 RMS     Displacement     0.000683     0.001200     YES
 Predicted change in Energy=-2.696838D-09
 GradGradGradGradGradGradGradGradGradGradGradGradGradGradGradGradGradGrad


 Test job not archived.
 1\1\GINC-NODE13\Freq\UB3LYP\CBSB7\C4H9O3(2)\SHAMEL\18-Jun-2013\0\\# fr
 eq nosymm b3lyp/cbsb7 iop(7/33=1)\\Title Card Required\\0,2\C,-0.66448
 4,0.552589,0.133805\H,-1.621996,0.056704,-0.062883\H,0.139814,-0.18828
 4,0.065379\C,-0.682796,1.221705,1.514247\H,0.269392,1.7452,1.664834\C,
 -0.853286,0.180938,2.5684\H,-1.443879,-0.710251,2.388945\H,-0.509377,0
 .364471,3.578275\C,-1.785823,2.319379,1.607692\H,-2.745186,1.884258,1.
 287846\H,-1.893183,2.624413,2.650464\O,-1.47034,3.491384,0.882197\H,-1
 .305127,3.220592,-0.029793\O,-0.459131,1.572884,-0.849279\O,-0.618947,
 0.956325,-2.152714\H,0.28474,1.029774,-2.490559\\Version=AM64L-G03RevD
 .01\HF=-383.4524418\S2=0.753876\S2-1=0.\S2A=0.75001\RMSD=8.048e-09\RMS
 F=7.211e-06\ZeroPoint=0.1304696\Thermal=0.1396303\Dipole=0.5342579,-0.
 9493583,-0.085263\DipoleDeriv=0.3846534,0.0204701,-0.0497155,-0.001224
 8,0.4344837,-0.2236988,-0.0316983,-0.174922,0.4601768,-0.1108687,-0.09
 46739,-0.0146406,-0.0447378,-0.0081853,0.0506799,-0.0253537,-0.003519,
 0.0085463,-0.0839181,0.1259054,0.0321646,0.0820261,-0.0765582,0.034397
 6,0.0391875,-0.0236777,-0.0074245,0.0367579,0.1241062,-0.0518521,0.043
 7044,-0.1675924,0.1991668,-0.0323314,0.0574857,0.0431688,-0.0777582,-0
 .0741576,-0.0051134,-0.0805185,-0.0146617,-0.0273028,0.0050444,0.00410
 28,0.0118734,-0.2119641,0.2586777,0.0637727,0.1913795,0.0447754,-0.101
 737,0.1368457,-0.0866181,0.0702684,0.0690573,-0.1253224,-0.0152736,-0.
 0857245,-0.0205191,0.0205266,-0.0552188,-0.0132625,0.0207384,0.1034103
 ,-0.0562827,-0.0336251,-0.0534327,0.0485371,-0.005752,-0.0411954,0.020
 2535,-0.0944656,0.4534918,-0.0611954,0.006577,0.0395225,0.7924604,-0.2
 524755,-0.0355694,-0.2063613,0.405907,-0.1721231,-0.0495143,-0.0407849
 ,-0.1166225,-0.0778839,0.0152959,-0.0700933,-0.015439,0.0072439,0.0420
 692,0.0112754,0.0106627,0.0176668,0.0003681,-0.0559944,0.0442994,-0.05
 07461,-0.1458759,-0.5320618,0.0118559,0.0613408,0.0519249,-0.8887064,0
 .2509812,0.0228756,0.332382,-0.5624538,0.317627,-0.0860533,-0.0370322,
 -0.0645468,0.3391565,0.0148332,-0.0074782,-0.0208225,0.2914963,-0.3054
 193,-0.0474755,0.0180406,-0.0001414,-0.3988011,0.1735301,0.0234979,0.1
 272164,-0.2083156,-0.0715218,0.0700342,0.1036126,0.0547981,-0.3218235,
 -0.0372894,0.0517411,0.0900135,-0.5791161,0.1585683,-0.0276498,-0.0481
 336,-0.0340734,0.3149501,-0.0551615,-0.0245532,-0.0360857,0.2782323\Po
 lar=49.3328792,-1.6766636,58.031429,-3.2520302,-1.6093557,71.7759074\P
 G=C01 [X(C4H9O3)]\NImag=0\\0.60038291,-0.01549272,0.53281783,0.0191811
 1,0.04705370,0.43041700,-0.24838419,-0.09044506,-0.04460826,0.26308772
 ,-0.08728458,-0.09265392,-0.02012266,0.10560729,0.10964558,-0.04828629
 ,-0.02654333,-0.05626887,0.04539532,0.01796216,0.06579951,-0.19979705,
 0.12223834,0.01567973,-0.02064359,0.01831501,0.00324202,0.20483534,0.1
 1956474,-0.15117155,-0.01443408,-0.00949125,0.01035831,-0.00009918,-0.
 13329720,0.17550581,0.01577429,-0.01863339,-0.04922885,-0.00585309,0.0
 0289264,0.00273243,-0.01634357,0.00782173,0.05714283,-0.08169231,-0.00
 428025,-0.00245983,0.00041196,-0.01202170,-0.02598920,0.00088118,0.009
 84468,0.02273650,0.49622099,-0.00443127,-0.10696528,-0.04921857,0.0005
 2047,-0.00646812,-0.01415630,-0.00230492,-0.00705422,-0.01858831,0.098
 85800,0.45629579,-0.00226231,-0.04178366,-0.13839444,-0.00025477,-0.00
 456711,-0.00746349,-0.00104792,-0.00257101,-0.00203314,0.01339452,-0.0
 0326087,0.47130141,0.00075566,0.00058166,-0.00086933,0.00105174,0.0000
 2257,0.00076003,0.00076609,-0.00010122,-0.00043946,-0.23304815,-0.1041
 5132,-0.03093249,0.25667238,-0.01292819,-0.00812669,-0.00236350,0.0005
 2150,-0.00047331,-0.00234824,0.00010150,-0.00011041,0.00033768,-0.1050
 9419,-0.09699623,-0.02069939,0.11124117,0.11518719,-0.02832217,-0.0158
 1894,-0.00637910,0.00051084,-0.00206661,-0.00525792,0.00056144,0.00048
 045,0.00118722,-0.02715079,-0.01839505,-0.05605190,0.03307746,0.019219
 12,0.06055433,-0.00097239,0.00299223,-0.00018364,0.00038686,0.00051335
 ,-0.00035913,0.00077392,-0.00062024,-0.00040452,-0.05790997,-0.0276293
 6,0.00145421,-0.00054534,-0.01854497,0.01877261,0.21214861,0.00207133,
 0.00996189,-0.00096111,-0.00033439,0.00035222,-0.00138215,0.00012144,0
 .00022410,-0.00094459,-0.03300418,-0.13589505,0.07101622,-0.00178020,-
 0.01655358,0.01420384,0.20966075,0.46272320,0.00271098,0.02294005,-0.0
 3140003,0.00014900,0.00077401,0.00155315,0.00004388,0.00118479,0.00122
 191,0.00550864,0.06670306,-0.15085092,0.00033828,-0.00070611,0.0038753
 4,0.13016742,-0.01596515,0.54823638,0.00047354,-0.00073548,-0.00067889
 ,0.00006484,0.00006498,0.00029164,-0.00037702,0.00012501,0.00026728,0.
 00213347,0.00036746,-0.00039997,0.00002577,-0.00121213,0.00036474,-0.1
 0791040,-0.14806501,-0.03830429,0.10752039,-0.00004826,0.00006749,-0.0
 0153414,0.00041774,0.00029858,0.00083815,-0.00000420,0.00005435,0.0002
 3187,-0.01244364,-0.00970211,-0.00588105,0.00112428,-0.00145669,0.0024
 2099,-0.14355647,-0.23615758,-0.03532474,0.15571284,0.24706915,0.00165
 939,0.00156435,0.00160256,-0.00056624,-0.00008044,-0.00011155,0.000123
 13,-0.00025794,-0.00011730,0.01070260,0.01499790,0.00618687,0.00057957
 ,0.00321157,-0.00232285,-0.03681906,-0.03569035,-0.06192071,0.03793512
 ,0.03691830,0.05717518,0.00041596,-0.00072794,0.00092919,0.00018037,0.
 00018436,0.00013603,-0.00007832,-0.00007688,0.00012584,0.00241324,-0.0
 0167656,0.00409671,0.00078593,0.00127134,0.00023726,-0.05199017,-0.032
 97138,-0.09497224,-0.00090945,-0.00191014,-0.01377580,0.04890899,-0.00
 042824,-0.00412427,0.00068896,0.00035740,0.00009134,0.00023200,-0.0001
 8019,0.00005783,0.00001017,0.00713512,0.00720130,0.02047101,-0.0001826
 7,0.00082370,-0.00083573,-0.03529631,-0.05458885,-0.04575970,-0.006613
 42,-0.00011896,-0.02097528,0.03558510,0.04954212,0.00010325,0.00390569
 ,-0.00045096,-0.00009718,-0.00002146,0.00019935,0.00011346,-0.00006433
 ,-0.00003159,-0.00510971,-0.00686210,-0.01259340,0.00024927,-0.0002444
 8,0.00085415,-0.09802238,-0.04303402,-0.30332718,0.00059534,0.00190127
 ,-0.00023084,0.10199725,0.04489513,0.31696382,-0.00210934,0.00420311,0
 .00595159,0.00114740,-0.00222906,-0.00178666,0.00038954,-0.00042784,-0
 .00131006,-0.11227035,0.01694192,0.01498009,-0.02905282,0.02271674,0.0
 0154726,0.00474424,0.00286947,-0.00868428,-0.00111083,-0.00096393,0.00
 152740,0.00001546,-0.00078672,0.00060017,0.49668206,0.01370795,-0.0113
 8372,-0.01012331,0.00063171,-0.00023179,0.00119470,0.00001204,-0.00039
 406,-0.00046008,0.03101534,-0.07519173,-0.02325235,-0.00925132,0.00666
 485,0.00038257,0.00883939,-0.02746232,0.01369143,-0.00017083,0.0000593
 5,-0.00010520,-0.00014771,0.00075435,-0.00042726,0.06253897,0.43609508
 ,0.02658606,-0.02842938,-0.00211982,0.00037673,0.00075081,0.00136938,0
 .00021416,-0.00250038,-0.00689492,0.00005498,-0.00595303,-0.07780661,-
 0.00340837,0.00310358,0.00180688,-0.01219533,0.01542877,-0.00270500,0.
 00012350,0.00010179,-0.00063886,0.00028797,0.00070695,-0.00074095,0.00
 954246,0.05467755,0.60570699,0.00038879,-0.00206661,-0.00132740,0.0005
 5077,0.00097310,0.00111531,0.00067337,0.00010359,-0.00014007,-0.023777
 93,-0.00421927,-0.00908498,-0.00265967,0.00303937,0.00022907,0.0003792
 0,-0.00112125,0.00134295,0.00000917,0.00059572,-0.00024621,0.00016430,
 0.00002040,-0.00001215,-0.22690883,-0.07384374,-0.06861748,0.24949187,
 0.00035333,0.00118741,0.00116386,-0.00060157,0.00003895,0.00000553,-0.
 00020382,0.00010218,0.00021614,0.02118408,0.00575462,0.00575687,0.0038
 0483,-0.00299641,-0.00011991,-0.00019308,0.00193725,-0.00107047,0.0000
 6182,-0.00015008,0.00008110,0.00003312,-0.00005724,-0.00003626,-0.0733
 7706,-0.07686518,-0.02999555,0.08605341,0.09752121,0.00124973,0.000796
 58,0.00046267,-0.00020036,0.00004832,0.00031396,-0.00014203,0.00007638
 ,0.00013032,0.00329496,-0.00234276,0.00205827,0.00071111,0.00040334,0.
 00053669,0.00039269,-0.00031641,-0.00033702,-0.00006908,0.00020768,0.0
 0010604,-0.00007970,-0.00003650,0.00013037,-0.07007732,-0.03046873,-0.
 08176831,0.07096724,0.02686288,0.07883063,-0.00364714,0.00300763,-0.00
 099312,0.00022447,0.00027894,0.00008007,0.00024797,0.00068830,0.001365
 53,-0.00254518,0.01056661,0.02161492,0.00069359,-0.00070837,0.00011375
 ,0.00061049,-0.00125471,0.00111179,-0.00004499,0.00001176,-0.00014942,
 -0.00005118,0.00023359,-0.00031020,-0.05331739,0.00417151,0.01593060,0
 .00314047,-0.00901608,-0.02666265,0.05354683,0.00415072,-0.00288696,0.
 00069304,0.00006321,0.00025146,0.00038599,0.00027100,-0.00033550,-0.00
 153652,0.00121581,-0.00850767,-0.01915178,0.00005180,0.00073517,0.0003
 9378,-0.00063625,0.00074953,-0.00131334,0.00021010,-0.00015399,0.00008
 102,0.00035957,-0.00028510,0.00039691,0.00673033,-0.07234927,-0.085180
 29,0.00125726,-0.00177478,-0.01044384,-0.00619442,0.08607131,0.0001995
 5,0.00030917,0.00064435,0.00001034,0.00015402,0.00013202,0.00004356,-0
 .00003152,-0.00001554,0.00018682,-0.00193430,-0.00054933,0.00026763,0.
 00008142,0.00022135,-0.00034137,0.00131168,0.00077279,-0.00002864,0.00
 004053,0.00007407,0.00009014,-0.00036315,0.00029117,0.01873736,-0.0759
 0134,-0.28184605,-0.00003473,-0.00467271,-0.00881525,-0.02472666,0.072
 72502,0.31187026,-0.00005792,-0.00204141,0.00026963,0.00008812,0.00074
 461,0.00041624,0.00003795,-0.00011726,-0.00043152,0.00631654,0.0183073
 3,-0.01215660,0.00490216,-0.00139795,0.00002121,-0.00029267,0.00376659
 ,0.00076925,0.00012024,0.00081714,-0.00077493,-0.00001090,0.00010066,-
 0.00025029,-0.07445434,-0.03981689,0.02083320,-0.00188867,-0.02898057,
 0.01961677,0.00033750,-0.00608974,0.00572446,0.08673068,-0.00145877,0.
 00137678,0.00187332,0.00004929,0.00016078,-0.00006107,0.00036557,0.000
 06394,-0.00020478,-0.00418822,-0.03758750,0.02489129,-0.00168310,0.002
 62060,-0.00010068,0.00533931,-0.00373608,-0.00260959,-0.00030925,-0.00
 025941,0.00091608,-0.00010906,-0.00045716,0.00040306,-0.03061435,-0.18
 069972,0.03315205,-0.01040494,-0.02499124,0.01519164,0.00010976,0.0029
 6718,0.00460782,0.02895464,0.33094024,-0.00015604,0.00344173,-0.004283
 69,-0.00015900,-0.00045826,0.00024740,-0.00002418,-0.00012872,0.001230
 36,-0.00224442,0.01162364,-0.00171040,0.00064587,-0.00113496,-0.000429
 94,-0.00180066,0.00164607,0.00252206,0.00021608,0.00014608,-0.00039983
 ,0.00028441,-0.00037952,0.00033021,0.02653280,0.07141269,-0.13037437,0
 .00569236,0.00381070,0.00684792,0.01163286,0.03882042,-0.02325872,-0.1
 1758240,0.03616698,0.59307293,0.00133818,0.00095190,-0.00122474,-0.000
 31006,-0.00064946,0.00013748,-0.00015857,-0.00034568,0.00016547,0.0016
 4729,-0.00073133,-0.00138836,-0.00056758,0.00016144,-0.00038752,-0.000
 42574,0.00032010,-0.00011919,0.00005812,-0.00014248,0.00006662,-0.0000
 3359,-0.00007272,0.00012631,-0.00281225,0.00147925,0.01154810,0.000023
 13,0.00098100,0.00111371,0.00061976,-0.00115918,-0.00013824,-0.0230266
 7,0.01165743,0.07380998,0.02691895,0.00024588,-0.00425594,0.00296503,0
 .00022473,0.00031537,-0.00028433,-0.00017751,0.00068202,-0.00050599,0.
 00073956,0.00096304,0.00154408,0.00013041,-0.00007555,-0.00012782,0.00
 014310,-0.00053944,-0.00040140,-0.00008570,0.00004473,0.00004551,-0.00
 002945,0.00020908,-0.00027829,-0.00793303,0.00516989,0.04173863,-0.000
 75023,-0.00022430,0.00000366,-0.00175877,-0.00501160,0.00392856,0.0225
 4818,-0.08782412,-0.15654328,-0.01293316,0.08999919,-0.00181424,0.0000
 7912,0.00408529,0.00015222,0.00034101,-0.00042133,0.00011823,0.0005153
 3,-0.00076355,0.00010783,-0.00215561,0.00263729,-0.00068712,0.00053320
 ,-0.00023531,0.00070492,-0.00050175,-0.00064194,-0.00018610,-0.0001086
 0,0.00025923,-0.00006691,-0.00005978,0.00002844,0.00375004,-0.00224975
 ,-0.02665661,-0.00042276,-0.00198103,0.00151116,0.00121932,0.00383693,
 0.00035795,0.08054285,-0.10715723,-0.44245247,-0.08461184,0.10865114,0
 .46885629,-0.06687408,-0.02352791,0.00362210,0.00144323,-0.02712524,0.
 02461973,0.01264381,0.01576552,-0.01519465,0.00055147,0.00108401,0.000
 66610,0.00011347,0.00065001,-0.00018852,0.00035765,-0.00074742,-0.0005
 0448,-0.00001782,0.00041830,-0.00021690,0.00021678,0.00031386,-0.00011
 639,-0.00108427,0.00071486,-0.00026254,0.00047514,-0.00008490,-0.00009
 651,0.00016101,-0.00012591,-0.00001716,0.00127357,0.00139684,0.0024213
 5,-0.00330359,0.00067443,0.00064867,0.08594055,-0.01936885,-0.17932439
 ,0.02657691,-0.00870023,-0.02311768,0.02361966,-0.00437111,-0.03057151
 ,0.02922689,0.00177381,0.01427598,-0.00654259,0.00004685,0.00065811,-0
 .00014300,-0.00104355,-0.00129306,-0.00264336,0.00064770,0.00038892,-0
 .00054032,0.00010812,0.00108011,-0.00064034,0.00084037,-0.00248424,0.0
 0085501,0.00023105,0.00028570,0.00010298,-0.00016075,0.00026917,-0.000
 08885,0.00146082,-0.00144859,-0.00677810,0.00236855,-0.00136034,0.0010
 4842,0.04235692,0.30835840,0.01619969,0.07733580,-0.09363992,0.0056900
 4,0.00607348,-0.00723352,-0.00124881,0.01000230,-0.00866725,0.00620060
 ,0.01721073,-0.03578237,0.00005647,0.00065484,0.00152177,-0.00054038,-
 0.00224970,-0.00439968,-0.00029392,-0.00021129,0.00044217,0.00002666,0
 .00057315,-0.00069866,-0.00031589,0.00089985,0.00256689,0.00012616,-0.
 00003850,-0.00000440,-0.00042639,0.00039171,0.00012197,0.00206009,-0.0
 0520885,-0.00200293,0.00152971,-0.00110771,-0.00469881,-0.02552408,-0.
 00389119,0.36111713,-0.00065536,0.00877668,0.00625516,0.00057780,0.002
 05312,0.00064110,0.00039083,-0.00216077,-0.00054291,0.00036556,-0.0025
 2694,0.00189963,0.00013051,0.00020998,0.00052728,0.00075816,0.00071751
 ,0.00071628,-0.00005292,-0.00003131,-0.00004599,-0.00006492,-0.0002691
 6,0.00025753,0.00039534,0.00018694,-0.00124786,-0.00009300,-0.00005833
 ,-0.00002382,-0.00000427,-0.00009952,0.00007800,-0.00028770,0.00110761
 ,0.00102974,0.00031232,-0.00150619,0.00034787,-0.04525473,-0.01508228,
 0.01036061,0.50690257,0.00312504,0.01644536,0.01713393,0.00075799,0.00
 140145,0.00081358,-0.00135016,0.00270366,-0.00061871,-0.00137664,-0.00
 035707,0.00366899,0.00021969,0.00008349,0.00045592,0.00004027,0.000388
 04,0.00059809,0.00004399,0.00000772,-0.00018036,0.00009835,-0.00015651
 ,0.00013003,-0.00035331,-0.00189145,0.00169413,0.00013094,0.00025223,-
 0.00008735,-0.00002372,0.00033051,-0.00017015,0.00172184,-0.00047488,-
 0.00157147,-0.00194361,0.00121164,-0.00055094,-0.02825095,-0.08102954,
 -0.08036620,0.07093885,0.07165433,-0.00542093,-0.02223737,-0.04959904,
 -0.00022043,-0.00130752,0.00431954,-0.00105149,-0.00065678,0.00417195,
 0.00102204,0.01078739,0.00165160,-0.00027778,0.00002742,0.00022826,-0.
 00058152,-0.00234461,-0.00220314,0.00014195,0.00024871,-0.00009896,0.0
 0063180,0.00073683,-0.00066532,-0.00097243,0.00081080,-0.00028681,0.00
 037814,0.00001853,0.00000509,0.00022970,-0.00018318,-0.00002892,0.0010
 0007,-0.00183987,0.00074743,-0.00073748,0.00032784,-0.00166503,-0.0215
 4328,-0.05949515,-0.18076260,-0.13417665,0.06435325,0.29844607,0.00043
 473,-0.00343417,0.00045670,0.00012258,0.00055270,-0.00041370,-0.000585
 42,0.00054650,0.00022493,0.00030218,0.00102517,-0.00057878,-0.00002374
 ,-0.00002727,0.00008609,-0.00011245,-0.00024867,-0.00027398,0.00001789
 ,0.00000265,0.00000073,0.00003750,0.00008331,-0.00012428,-0.00025363,-
 0.00006748,0.00023382,0.00003190,0.00004382,0.00000527,0.00002805,-0.0
 0000479,-0.00005105,0.00021210,-0.00021276,-0.00029874,-0.00027971,0.0
 0046775,0.00019702,0.01335781,-0.00110741,-0.01390056,-0.46342018,-0.0
 4377857,0.16157829,0.45013038,-0.00177811,-0.00096404,0.00060861,0.000
 42117,0.00003077,-0.00017717,0.00046421,-0.00011495,0.00075525,0.00064
 243,0.00023425,0.00036136,-0.00007341,0.00001577,0.00005108,-0.0000081
 9,-0.00011028,-0.00009757,-0.00004208,0.00000853,0.00001404,0.00000917
 ,0.00002827,-0.00002355,-0.00015563,0.00020995,-0.00015064,0.00000119,
 -0.00002032,0.00000214,0.00004870,-0.00006947,0.00000379,0.00002200,-0
 .00065082,-0.00007398,0.00005794,0.00069633,-0.00024047,0.01648758,-0.
 00468704,-0.02006841,-0.06225618,-0.01056898,0.01075372,0.04615920,0.0
 1596202,0.00259793,-0.00398013,-0.00544717,-0.00032515,-0.00037240,0.0
 0008994,-0.00028160,0.00066297,-0.00006489,-0.00025556,0.00154417,-0.0
 0059943,-0.00007112,-0.00007548,-0.00010898,-0.00024385,-0.00021674,-0
 .00039602,0.00002524,0.00000445,-0.00000523,0.00005139,0.00009546,-0.0
 0005861,-0.00002252,-0.00008157,0.00038816,0.00003454,-0.00000116,-0.0
 0000815,-0.00003009,0.00008413,0.00002787,-0.00005802,-0.00002016,-0.0
 0008596,0.00011000,0.00004438,-0.00020059,0.03168655,-0.00066697,-0.02
 787980,0.11392403,-0.00530276,-0.07426012,-0.14714175,0.00828181,0.108
 60899\\0.00000275,0.00000287,-0.00000324,0.00000480,-0.00000041,-0.000
 00270,0.00000616,0.00000874,-0.00000743,0.00000141,-0.00000153,-0.0000
 0029,-0.00000090,0.00000363,-0.00000109,0.00001114,-0.00000611,-0.0000
 0438,0.00001434,-0.00000745,-0.00000585,0.00001108,-0.00000694,-0.0000
 0439,-0.00000397,-0.00000701,0.00000646,-0.00000244,-0.00001148,0.0000
 0588,-0.00000333,-0.00001176,0.00000665,-0.00001217,-0.00000309,0.0000
 0810,-0.00001242,0.00000138,0.00000790,-0.00000554,0.00000896,0.000000
 06,-0.00000611,0.00001179,-0.00000154,-0.00000481,0.00001843,-0.000004
 14\\\@


 THE REASON MAN'S BEST FRIEND IS A DOG IS BECAUSE
 HE WAGS HIS TAIL INSTEAD OF HIS TONGUE.
 Job cpu time:  0 days  1 hours  5 minutes 42.0 seconds.
 File lengths (MBytes):  RWF=    125 Int=      0 D2E=      0 Chk=      8 Scr=      1
 Normal termination of Gaussian 03 at Tue Jun 18 10:50:42 2013.
