 Entering Gaussian System, Link 0=g03
 Input=TS04freq.gjf
 Output=TS04freq.log
 Initial command:
 /opt/g03/l1.exe /scratch/nyee/Gau-5255.inp -scrdir=/scratch/nyee/
 Entering Link 1 = /opt/g03/l1.exe PID=      5257.
  
 Copyright (c) 1988,1990,1992,1993,1995,1998,2003,2004, Gaussian, Inc.
                  All Rights Reserved.
  
 This is the Gaussian(R) 03 program.  It is based on the
 the Gaussian(R) 98 system (copyright 1998, Gaussian, Inc.),
 the Gaussian(R) 94 system (copyright 1995, Gaussian, Inc.),
 the Gaussian 92(TM) system (copyright 1992, Gaussian, Inc.),
 the Gaussian 90(TM) system (copyright 1990, Gaussian, Inc.),
 the Gaussian 88(TM) system (copyright 1988, Gaussian, Inc.),
 the Gaussian 86(TM) system (copyright 1986, Carnegie Mellon
 University), and the Gaussian 82(TM) system (copyright 1983,
 Carnegie Mellon University). Gaussian is a federally registered
 trademark of Gaussian, Inc.
  
 This software contains proprietary and confidential information,
 including trade secrets, belonging to Gaussian, Inc.
  
 This software is provided under written license and may be
 used, copied, transmitted, or stored only in accord with that
 written license.
  
 The following legend is applicable only to US Government
 contracts under FAR:
  
                    RESTRICTED RIGHTS LEGEND
  
 Use, reproduction and disclosure by the US Government is
 subject to restrictions as set forth in subparagraphs (a)
 and (c) of the Commercial Computer Software - Restricted
 Rights clause in FAR 52.227-19.
  
 Gaussian, Inc.
 340 Quinnipiac St., Bldg. 40, Wallingford CT 06492
  
  
 ---------------------------------------------------------------
 Warning -- This program may not be used in any manner that
 competes with the business of Gaussian, Inc. or will provide
 assistance to any competitor of Gaussian, Inc.  The licensee
 of this program is prohibited from giving any competitor of
 Gaussian, Inc. access to this program.  By using this program,
 the user acknowledges that Gaussian, Inc. is engaged in the
 business of creating and licensing software in the field of
 computational chemistry and represents and warrants to the
 licensee that it is not a competitor of Gaussian, Inc. and that
 it will not use this program in any manner prohibited above.
 ---------------------------------------------------------------
  

 Cite this work as:
 Gaussian 03, Revision D.01,
 M. J. Frisch, G. W. Trucks, H. B. Schlegel, G. E. Scuseria, 
 M. A. Robb, J. R. Cheeseman, J. A. Montgomery, Jr., T. Vreven, 
 K. N. Kudin, J. C. Burant, J. M. Millam, S. S. Iyengar, J. Tomasi, 
 V. Barone, B. Mennucci, M. Cossi, G. Scalmani, N. Rega, 
 G. A. Petersson, H. Nakatsuji, M. Hada, M. Ehara, K. Toyota, 
 R. Fukuda, J. Hasegawa, M. Ishida, T. Nakajima, Y. Honda, O. Kitao, 
 H. Nakai, M. Klene, X. Li, J. E. Knox, H. P. Hratchian, J. B. Cross, 
 V. Bakken, C. Adamo, J. Jaramillo, R. Gomperts, R. E. Stratmann, 
 O. Yazyev, A. J. Austin, R. Cammi, C. Pomelli, J. W. Ochterski, 
 P. Y. Ayala, K. Morokuma, G. A. Voth, P. Salvador, J. J. Dannenberg, 
 V. G. Zakrzewski, S. Dapprich, A. D. Daniels, M. C. Strain, 
 O. Farkas, D. K. Malick, A. D. Rabuck, K. Raghavachari, 
 J. B. Foresman, J. V. Ortiz, Q. Cui, A. G. Baboul, S. Clifford, 
 J. Cioslowski, B. B. Stefanov, G. Liu, A. Liashenko, P. Piskorz, 
 I. Komaromi, R. L. Martin, D. J. Fox, T. Keith, M. A. Al-Laham, 
 C. Y. Peng, A. Nanayakkara, M. Challacombe, P. M. W. Gill, 
 B. Johnson, W. Chen, M. W. Wong, C. Gonzalez, and J. A. Pople, 
 Gaussian, Inc., Wallingford CT, 2004.
 
 ******************************************
 Gaussian 03:  AM64L-G03RevD.01 13-Oct-2005
                 8-Jul-2014 
 ******************************************
 %chk=TS04freq.chk
 %mem=1000mb
 %nproc=8
 Will use up to    8 processors via shared memory.
 -------------------------------------
 # freq nosymm b3lyp/cbsb7 iop(7/33=1)
 -------------------------------------
 1/10=4,30=1,38=1/1,3;
 2/15=1,17=6,18=5,40=1/2;
 3/5=4,6=6,7=700,11=2,16=1,25=1,30=1,74=-5/1,2,3;
 4//1;
 5/5=2,38=5/2;
 8/6=4,10=90,11=11/1;
 11/6=1,8=1,9=11,15=111,16=1,31=1/1,2,10;
 10/6=1,31=1/2;
 6/7=2,8=2,9=2,10=2,18=1,28=1/1;
 7/8=1,10=1,25=1,30=1,33=1/1,2,3,16;
 1/10=4,30=1/3;
 99//99;
 -------------------
 Title Card Required
 -------------------
 Symbolic Z-matrix:
 Charge =  0 Multiplicity = 2
 O                     0.59745   4.60297  -0.50573 
 H                     0.96554   5.28235   0.07563 
 O                     1.09999   3.40778   0.15153 
 C                     1.94538   2.72554  -0.76281 
 H                     2.38781   3.44497  -1.47295 
 O                     2.52657   1.73401  -0.32187 
 C                     0.68408   2.01345  -2.07931 
 H                     0.20508   2.96832  -2.29244 
 C                     1.534     1.47139  -3.19356 
 H                     2.17149   2.23997  -3.63793 
 H                     2.16638   0.65381  -2.84135 
 H                     0.88923   1.07933  -3.99116 
 C                    -0.18648   1.04018  -1.33648 
 H                     0.37973   0.16224  -1.02066 
 H                    -0.63909   1.50207  -0.45805 
 H                    -0.99798   0.70484  -1.99626 
 

 GradGradGradGradGradGradGradGradGradGradGradGradGradGradGradGradGradGrad
 Berny optimization.
 Initialization pass.
 Trust Radius=3.00D-01 FncErr=1.00D-07 GrdErr=1.00D-07
 Number of steps in this run=   2 maximum allowed number of steps=   2.
 GradGradGradGradGradGradGradGradGradGradGradGradGradGradGradGradGradGrad

                          Input orientation:                          
 ---------------------------------------------------------------------
 Center     Atomic     Atomic              Coordinates (Angstroms)
 Number     Number      Type              X           Y           Z
 ---------------------------------------------------------------------
    1          8             0        0.597449    4.602974   -0.505725
    2          1             0        0.965541    5.282355    0.075628
    3          8             0        1.099993    3.407778    0.151531
    4          6             0        1.945382    2.725538   -0.762805
    5          1             0        2.387806    3.444970   -1.472947
    6          8             0        2.526568    1.734011   -0.321873
    7          6             0        0.684081    2.013451   -2.079306
    8          1             0        0.205075    2.968320   -2.292436
    9          6             0        1.533999    1.471392   -3.193563
   10          1             0        2.171486    2.239967   -3.637928
   11          1             0        2.166377    0.653807   -2.841351
   12          1             0        0.889228    1.079334   -3.991156
   13          6             0       -0.186475    1.040178   -1.336475
   14          1             0        0.379730    0.162240   -1.020662
   15          1             0       -0.639087    1.502069   -0.458053
   16          1             0       -0.997978    0.704840   -1.996259
 ---------------------------------------------------------------------
                    Distance matrix (angstroms):
                    1          2          3          4          5
     1  O    0.000000
     2  H    0.966965   0.000000
     3  O    1.453626   1.880925   0.000000
     4  C    2.325463   2.863629   1.419910   0.000000
     5  H    2.341339   2.792294   2.073349   1.103460   0.000000
     6  O    3.462116   3.896865   2.249605   1.230985   2.066787
     7  C    3.031384   3.925391   2.663412   1.957325   2.306425
     8  H    2.453240   3.397174   2.639503   2.329674   2.379721
     9  C    4.231832   5.053137   3.889422   2.765990   2.754000
    10  H    4.227539   4.949841   4.107539   2.924591   2.487161
    11  H    4.848980   5.601270   4.204625   2.943002   3.116432
    12  H    4.964817   5.848927   4.756882   3.774612   3.766078
    13  C    3.741417   4.617060   3.078099   2.777472   3.525418
    14  H    4.475788   5.268833   3.525100   3.014673   3.874693
    15  H    3.338698   4.141281   2.650984   2.875627   3.737239
    16  H    4.467944   5.394605   4.039846   3.777300   4.386992
                    6          7          8          9         10
     6  O    0.000000
     7  C    2.561526   0.000000
     8  H    3.285722   1.089333   0.000000
     9  C    3.049716   1.502584   2.195191   0.000000
    10  H    3.373173   2.166330   2.491509   1.092958   0.000000
    11  H    2.764841   2.150941   3.083015   1.091971   1.774955
    12  H    4.071010   2.137716   2.630966   1.097995   1.765226
    13  C    2.978494   1.502307   2.187442   2.568025   3.506588
    14  H    2.750942   2.154145   3.085774   2.787062   3.791757
    15  H    3.177061   2.154239   2.495488   3.493746   4.307600
    16  H    4.035491   2.132764   2.580387   2.903799   3.885511
                   11         12         13         14         15
    11  H    0.000000
    12  H    1.770377   0.000000
    13  C    2.819547   2.864612   0.000000
    14  H    2.597817   3.150315   1.091376   0.000000
    15  H    3.777603   3.872631   1.090792   1.774728   0.000000
    16  H    3.275657   2.771535   1.098319   1.773213   1.769309
                   16
    16  H    0.000000
 Symmetry turned off by external request.
 Stoichiometry    C4H9O3(2)
 Framework group  C1[X(C4H9O3)]
 Deg. of freedom    42
 Full point group                 C1
 Rotational constants (GHZ):      3.4220954      1.8009440      1.6255373
 Standard basis: CBSB7 (5D, 7F)
 Integral buffers will be    131072 words long.
 Raffenetti 2 integral format.
 Two-electron integral symmetry is turned off.
   180 basis functions,   296 primitive gaussians,   187 cartesian basis functions
    29 alpha electrons       28 beta electrons
       nuclear repulsion energy       326.4941244522 Hartrees.
 NAtoms=   16 NActive=   16 NUniq=   16 SFac= 7.50D-01 NAtFMM=   80 NAOKFM=F Big=F
 One-electron integrals computed using PRISM.
 NBasis=   180 RedAO= T  NBF=   180
 NBsUse=   180 1.00D-06 NBFU=   180
 Harris functional with IExCor=  402 diagonalized for initial guess.
 ExpMin= 1.03D-01 ExpMax= 8.59D+03 ExpMxC= 1.30D+03 IAcc=1 IRadAn=         1 AccDes= 1.00D-06
 HarFok:  IExCor= 402 AccDes= 1.00D-06 IRadAn=         1 IDoV=1
 ScaDFX=  1.000000  1.000000  1.000000  1.000000
 <S**2> of initial guess= 0.7500
 Requested convergence on RMS density matrix=1.00D-08 within 128 cycles.
 Requested convergence on MAX density matrix=1.00D-06.
 Requested convergence on             energy=1.00D-06.
 No special actions if energy rises.
 Integral accuracy reduced to 1.0D-05 until final iterations.
 Initial convergence to 1.0D-05 achieved.  Increase integral accuracy.
 SCF Done:  E(UB+HF-LYP) =  -383.461186546     A.U. after   19 cycles
             Convg  =    0.3137D-08             -V/T =  2.0033
             S**2   =   0.7600
 Annihilation of the first spin contaminant:
 S**2 before annihilation     0.7600,   after     0.7500
 Range of M.O.s used for correlation:     1   180
 NBasis=   180 NAE=    29 NBE=    28 NFC=     0 NFV=     0
 NROrb=    180 NOA=    29 NOB=    28 NVA=   151 NVB=   152
 Symmetrizing basis deriv contribution to polar:
 IMax=3 JMax=2 DiffMx= 0.00D+00
 G2DrvN: will do   17 centers at a time, making    1 passes doing MaxLOS=2.
 FoFDir/FoFCou used for L=0 through L=2.
 DoAtom=TTTTTTTTTTTTTTTT
          Differentiating once with respect to electric field.
                with respect to dipole field.
          Differentiating once with respect to nuclear coordinates.
 Symmetry not used in FoFDir.
 MinBra= 0 MaxBra= 2 Meth= 1.
 IRaf=       0 NMat=  51 IRICut=      51 DoRegI=T DoRafI=T ISym2E= 0 JSym2E=0.
          There are  51 degrees of freedom in the 1st order CPHF.
    48 vectors were produced by pass  0.
 AX will form  48 AO Fock derivatives at one time.
    48 vectors were produced by pass  1.
    48 vectors were produced by pass  2.
    48 vectors were produced by pass  3.
    48 vectors were produced by pass  4.
    48 vectors were produced by pass  5.
    33 vectors were produced by pass  6.
     5 vectors were produced by pass  7.
     3 vectors were produced by pass  8.
 Inv2:  IOpt= 1 Iter= 1 AM= 2.88D-15 Conv= 1.00D-12.
 Inverted reduced A of dimension  329 with in-core refinement.
 Isotropic polarizability for W=    0.000000       63.61 Bohr**3.
 End of Minotr Frequency-dependent properties file   721 does not exist.

 **********************************************************************

            Population analysis using the SCF density.

 **********************************************************************

 Alpha  occ. eigenvalues --  -19.19426 -19.18792 -19.11483 -10.28917 -10.21793
 Alpha  occ. eigenvalues --  -10.17556 -10.16796  -1.14309  -1.05058  -0.91666
 Alpha  occ. eigenvalues --   -0.80936  -0.70519  -0.63635  -0.58408  -0.55184
 Alpha  occ. eigenvalues --   -0.50366  -0.48726  -0.46507  -0.45076  -0.42208
 Alpha  occ. eigenvalues --   -0.40982  -0.40077  -0.39352  -0.36847  -0.36205
 Alpha  occ. eigenvalues --   -0.34155  -0.30356  -0.28186  -0.23185
 Alpha virt. eigenvalues --   -0.00264   0.03358   0.05122   0.06019   0.07016
 Alpha virt. eigenvalues --    0.09217   0.10122   0.12022   0.12461   0.13997
 Alpha virt. eigenvalues --    0.14873   0.19412   0.20814   0.23182   0.25350
 Alpha virt. eigenvalues --    0.28213   0.29316   0.34017   0.35766   0.38163
 Alpha virt. eigenvalues --    0.40556   0.41972   0.43739   0.45335   0.51347
 Alpha virt. eigenvalues --    0.53956   0.55786   0.56058   0.56240   0.57828
 Alpha virt. eigenvalues --    0.58614   0.59211   0.60626   0.60990   0.63366
 Alpha virt. eigenvalues --    0.63717   0.69045   0.72695   0.74585   0.80526
 Alpha virt. eigenvalues --    0.82096   0.85569   0.89163   0.90433   0.92714
 Alpha virt. eigenvalues --    0.94846   0.95790   0.98215   1.01020   1.05524
 Alpha virt. eigenvalues --    1.12411   1.16409   1.20462   1.20922   1.31202
 Alpha virt. eigenvalues --    1.32546   1.36357   1.38759   1.39565   1.41258
 Alpha virt. eigenvalues --    1.44485   1.44867   1.46575   1.47906   1.50003
 Alpha virt. eigenvalues --    1.52110   1.52571   1.56097   1.56552   1.57617
 Alpha virt. eigenvalues --    1.60151   1.65842   1.67340   1.69273   1.71869
 Alpha virt. eigenvalues --    1.74471   1.77821   1.80213   1.86887   1.91643
 Alpha virt. eigenvalues --    1.93638   1.94587   1.99794   2.02828   2.06073
 Alpha virt. eigenvalues --    2.06474   2.08677   2.18686   2.25858   2.27375
 Alpha virt. eigenvalues --    2.33423   2.34060   2.37427   2.40512   2.43649
 Alpha virt. eigenvalues --    2.45465   2.45990   2.47046   2.48777   2.52769
 Alpha virt. eigenvalues --    2.53495   2.56850   2.59144   2.60133   2.65722
 Alpha virt. eigenvalues --    2.66595   2.71989   2.73325   2.77779   2.80683
 Alpha virt. eigenvalues --    2.82188   2.83395   2.87591   2.88372   2.93322
 Alpha virt. eigenvalues --    3.06257   3.09704   3.10580   3.14076   3.22042
 Alpha virt. eigenvalues --    3.25583   3.32977   3.41780   3.46075   3.52618
 Alpha virt. eigenvalues --    3.63419   3.74600   3.75688   3.78153   3.80260
 Alpha virt. eigenvalues --    3.82123   3.82731   3.91223   4.04335   4.27112
 Alpha virt. eigenvalues --    4.66533   4.76952   4.87961   4.94636   4.96924
 Alpha virt. eigenvalues --    5.18054   5.36196   5.52131   5.73628  23.75775
 Alpha virt. eigenvalues --   23.79790  23.89695  23.94085  49.74390  49.83043
 Alpha virt. eigenvalues --   49.95517
  Beta  occ. eigenvalues --  -19.19339 -19.18798 -19.10429 -10.29021 -10.20882
  Beta  occ. eigenvalues --  -10.17587 -10.16824  -1.14159  -1.03436  -0.91309
  Beta  occ. eigenvalues --   -0.79708  -0.70360  -0.62494  -0.57599  -0.54788
  Beta  occ. eigenvalues --   -0.49954  -0.47107  -0.46035  -0.44087  -0.41837
  Beta  occ. eigenvalues --   -0.40444  -0.39718  -0.37968  -0.36595  -0.35871
  Beta  occ. eigenvalues --   -0.33175  -0.28546  -0.27353
  Beta virt. eigenvalues --   -0.12107  -0.00191   0.03670   0.05247   0.06968
  Beta virt. eigenvalues --    0.08345   0.09409   0.10358   0.12610   0.12881
  Beta virt. eigenvalues --    0.14152   0.14970   0.20023   0.21054   0.23566
  Beta virt. eigenvalues --    0.25650   0.28459   0.29489   0.34316   0.36126
  Beta virt. eigenvalues --    0.38649   0.41589   0.42120   0.44611   0.45757
  Beta virt. eigenvalues --    0.51698   0.54978   0.56162   0.56360   0.56464
  Beta virt. eigenvalues --    0.57945   0.58932   0.59901   0.60766   0.61280
  Beta virt. eigenvalues --    0.63558   0.63942   0.69405   0.72972   0.74930
  Beta virt. eigenvalues --    0.80710   0.82359   0.85726   0.89493   0.90999
  Beta virt. eigenvalues --    0.93266   0.95280   0.96345   0.99528   1.01704
  Beta virt. eigenvalues --    1.06214   1.12805   1.16660   1.20713   1.21383
  Beta virt. eigenvalues --    1.31704   1.32933   1.36966   1.39474   1.40191
  Beta virt. eigenvalues --    1.42274   1.44709   1.45117   1.46802   1.48339
  Beta virt. eigenvalues --    1.50329   1.52639   1.53341   1.56604   1.56774
  Beta virt. eigenvalues --    1.57823   1.60446   1.66438   1.67675   1.69641
  Beta virt. eigenvalues --    1.72231   1.74808   1.78057   1.80677   1.87600
  Beta virt. eigenvalues --    1.91854   1.94395   1.95471   2.00944   2.03308
  Beta virt. eigenvalues --    2.06440   2.06699   2.09198   2.19081   2.26419
  Beta virt. eigenvalues --    2.28090   2.33681   2.34374   2.38051   2.40807
  Beta virt. eigenvalues --    2.44057   2.45697   2.46179   2.47254   2.48977
  Beta virt. eigenvalues --    2.53101   2.53707   2.57288   2.59595   2.60347
  Beta virt. eigenvalues --    2.66191   2.67127   2.72568   2.74129   2.78366
  Beta virt. eigenvalues --    2.81308   2.83039   2.84430   2.88700   2.90476
  Beta virt. eigenvalues --    2.94253   3.07229   3.10163   3.10999   3.14387
  Beta virt. eigenvalues --    3.23521   3.25858   3.33838   3.43221   3.46640
  Beta virt. eigenvalues --    3.54055   3.63562   3.74839   3.75913   3.78199
  Beta virt. eigenvalues --    3.80744   3.82481   3.82841   3.91471   4.05191
  Beta virt. eigenvalues --    4.27847   4.66566   4.76959   4.88388   4.97756
  Beta virt. eigenvalues --    4.98929   5.18191   5.36388   5.52482   5.73980
  Beta virt. eigenvalues --   23.75897  23.80588  23.89667  23.94057  49.74408
  Beta virt. eigenvalues --   49.83122  49.96555
          Condensed to atoms (all electrons):
              1          2          3          4          5          6
     1  O    7.936024   0.287850   0.060723  -0.050017   0.021028   0.002419
     2  H    0.287850   0.459942  -0.023251  -0.001221   0.001240  -0.000381
     3  O    0.060723  -0.023251   8.141279   0.175185  -0.064299  -0.049249
     4  C   -0.050017  -0.001221   0.175185   4.660372   0.367389   0.534948
     5  H    0.021028   0.001240  -0.064299   0.367389   0.653264  -0.037086
     6  O    0.002419  -0.000381  -0.049249   0.534948  -0.037086   7.895806
     7  C   -0.007921   0.000516  -0.022850   0.150997  -0.045101  -0.056369
     8  H    0.016227  -0.001149  -0.006371  -0.019654  -0.003719   0.003348
     9  C   -0.000361   0.000001   0.002875  -0.038089  -0.007383  -0.000751
    10  H   -0.000197   0.000000   0.000106  -0.003619   0.004320  -0.000563
    11  H   -0.000054   0.000007   0.000536  -0.005478  -0.002062   0.012012
    12  H    0.000000   0.000002  -0.000162   0.004374  -0.000511  -0.000019
    13  C    0.000596  -0.000059  -0.008298  -0.030586   0.008003   0.000008
    14  H    0.000002   0.000004  -0.000660  -0.004807   0.000693   0.009197
    15  H   -0.000100   0.000095   0.012884  -0.007899   0.001473  -0.000589
    16  H   -0.000045   0.000001  -0.000275   0.005017  -0.000242   0.000052
              7          8          9         10         11         12
     1  O   -0.007921   0.016227  -0.000361  -0.000197  -0.000054   0.000000
     2  H    0.000516  -0.001149   0.000001   0.000000   0.000007   0.000002
     3  O   -0.022850  -0.006371   0.002875   0.000106   0.000536  -0.000162
     4  C    0.150997  -0.019654  -0.038089  -0.003619  -0.005478   0.004374
     5  H   -0.045101  -0.003719  -0.007383   0.004320  -0.002062  -0.000511
     6  O   -0.056369   0.003348  -0.000751  -0.000563   0.012012  -0.000019
     7  C    5.417037   0.380292   0.318420  -0.032530  -0.039925  -0.031321
     8  H    0.380292   0.547115  -0.035394  -0.005963   0.007708  -0.002808
     9  C    0.318420  -0.035394   4.882909   0.401910   0.405486   0.390796
    10  H   -0.032530  -0.005963   0.401910   0.572837  -0.026215  -0.028298
    11  H   -0.039925   0.007708   0.405486  -0.026215   0.542509  -0.027062
    12  H   -0.031321  -0.002808   0.390796  -0.028298  -0.027062   0.577634
    13  C    0.306824  -0.034356  -0.058447   0.007365  -0.006612  -0.004096
    14  H   -0.040583   0.007415  -0.006006   0.000068   0.005075  -0.000632
    15  H   -0.031547  -0.005348   0.007558  -0.000348  -0.000128  -0.000331
    16  H   -0.036607  -0.004768  -0.004299  -0.000235  -0.000750   0.002989
             13         14         15         16
     1  O    0.000596   0.000002  -0.000100  -0.000045
     2  H   -0.000059   0.000004   0.000095   0.000001
     3  O   -0.008298  -0.000660   0.012884  -0.000275
     4  C   -0.030586  -0.004807  -0.007899   0.005017
     5  H    0.008003   0.000693   0.001473  -0.000242
     6  O    0.000008   0.009197  -0.000589   0.000052
     7  C    0.306824  -0.040583  -0.031547  -0.036607
     8  H   -0.034356   0.007415  -0.005348  -0.004768
     9  C   -0.058447  -0.006006   0.007558  -0.004299
    10  H    0.007365   0.000068  -0.000348  -0.000235
    11  H   -0.006612   0.005075  -0.000128  -0.000750
    12  H   -0.004096  -0.000632  -0.000331   0.002989
    13  C    4.868829   0.408285   0.401526   0.398736
    14  H    0.408285   0.545498  -0.023876  -0.028061
    15  H    0.401526  -0.023876   0.538948  -0.026524
    16  H    0.398736  -0.028061  -0.026524   0.579868
 Mulliken atomic charges:
              1
     1  O   -0.266173
     2  H    0.276402
     3  O   -0.218173
     4  C    0.263088
     5  H    0.102994
     6  O   -0.312783
     7  C   -0.229331
     8  H    0.157424
     9  C   -0.259225
    10  H    0.111361
    11  H    0.134954
    12  H    0.119444
    13  C   -0.257718
    14  H    0.128387
    15  H    0.134207
    16  H    0.115143
 Sum of Mulliken charges=   0.00000
 Atomic charges with hydrogens summed into heavy atoms:
              1
     1  O    0.010228
     2  H    0.000000
     3  O   -0.218173
     4  C    0.366081
     5  H    0.000000
     6  O   -0.312783
     7  C   -0.071907
     8  H    0.000000
     9  C    0.106535
    10  H    0.000000
    11  H    0.000000
    12  H    0.000000
    13  C    0.120019
    14  H    0.000000
    15  H    0.000000
    16  H    0.000000
 Sum of Mulliken charges=   0.00000
          Atomic-Atomic Spin Densities.
              1          2          3          4          5          6
     1  O   -0.002211   0.000300  -0.000459  -0.000319  -0.001387  -0.000065
     2  H    0.000300  -0.000384  -0.000126   0.000025   0.000383   0.000003
     3  O   -0.000459  -0.000126   0.033559   0.005920   0.003004   0.006315
     4  C   -0.000319   0.000025   0.005920  -0.076640   0.004194  -0.056799
     5  H   -0.001387   0.000383   0.003004   0.004194   0.081821   0.001009
     6  O   -0.000065   0.000003   0.006315  -0.056799   0.001009   0.474066
     7  C    0.002804  -0.000298  -0.029190   0.094839  -0.050344  -0.060403
     8  H   -0.001079   0.000092   0.003175  -0.004872   0.006380   0.001772
     9  C   -0.000042   0.000007   0.000273   0.000475   0.005420   0.004344
    10  H   -0.000017   0.000002   0.000063  -0.000336   0.001753   0.000442
    11  H   -0.000006   0.000001   0.000108  -0.001787   0.001842   0.002925
    12  H    0.000010  -0.000001  -0.000058   0.000375  -0.000968  -0.000601
    13  C   -0.000207   0.000022   0.004888  -0.008891   0.002383   0.010158
    14  H   -0.000017   0.000003   0.000728  -0.003075   0.000536   0.004346
    15  H   -0.000068   0.000014   0.001027  -0.000815   0.000436   0.001549
    16  H    0.000022  -0.000002  -0.000269   0.000555  -0.000287  -0.000668
              7          8          9         10         11         12
     1  O    0.002804  -0.001079  -0.000042  -0.000017  -0.000006   0.000010
     2  H   -0.000298   0.000092   0.000007   0.000002   0.000001  -0.000001
     3  O   -0.029190   0.003175   0.000273   0.000063   0.000108  -0.000058
     4  C    0.094839  -0.004872   0.000475  -0.000336  -0.001787   0.000375
     5  H   -0.050344   0.006380   0.005420   0.001753   0.001842  -0.000968
     6  O   -0.060403   0.001772   0.004344   0.000442   0.002925  -0.000601
     7  C    0.751687  -0.026218  -0.036508  -0.004457  -0.009275  -0.010768
     8  H   -0.026218   0.006860   0.004920   0.001519   0.001171  -0.003914
     9  C   -0.036508   0.004920  -0.021216   0.002191   0.002360   0.010647
    10  H   -0.004457   0.001519   0.002191   0.003470   0.001974  -0.003337
    11  H   -0.009275   0.001171   0.002360   0.001974   0.014801  -0.007594
    12  H   -0.010768  -0.003914   0.010647  -0.003337  -0.007594   0.042944
    13  C   -0.052691   0.006297   0.003556   0.000205   0.001517   0.000100
    14  H   -0.007968   0.001129   0.001222   0.000162   0.001688  -0.001376
    15  H   -0.007267   0.002119   0.000139   0.000038   0.000240  -0.000261
    16  H   -0.008356  -0.003548   0.000123  -0.000155  -0.000963   0.002780
             13         14         15         16
     1  O   -0.000207  -0.000017  -0.000068   0.000022
     2  H    0.000022   0.000003   0.000014  -0.000002
     3  O    0.004888   0.000728   0.001027  -0.000269
     4  C   -0.008891  -0.003075  -0.000815   0.000555
     5  H    0.002383   0.000536   0.000436  -0.000287
     6  O    0.010158   0.004346   0.001549  -0.000668
     7  C   -0.052691  -0.007968  -0.007267  -0.008356
     8  H    0.006297   0.001129   0.002119  -0.003548
     9  C    0.003556   0.001222   0.000139   0.000123
    10  H    0.000205   0.000162   0.000038  -0.000155
    11  H    0.001517   0.001688   0.000240  -0.000963
    12  H    0.000100  -0.001376  -0.000261   0.002780
    13  C   -0.002851   0.002423   0.003968   0.010713
    14  H    0.002423   0.009552   0.002464  -0.006123
    15  H    0.003968   0.002464   0.004813  -0.003487
    16  H    0.010713  -0.006123  -0.003487   0.034003
 Mulliken atomic spin densities:
              1
     1  O   -0.002741
     2  H    0.000040
     3  O    0.028958
     4  C   -0.047150
     5  H    0.056175
     6  O    0.388393
     7  C    0.545586
     8  H   -0.004196
     9  C   -0.022090
    10  H    0.003517
    11  H    0.009001
    12  H    0.027979
    13  C   -0.018409
    14  H    0.005693
    15  H    0.004907
    16  H    0.024338
 Sum of Mulliken spin densities=   1.00000
 APT atomic charges:
              1
     1  O   -0.306467
     2  H    0.274648
     3  O   -0.406318
     4  C    0.838602
     5  H   -0.035718
     6  O   -0.585267
     7  C    0.308007
     8  H   -0.025489
     9  C   -0.046350
    10  H   -0.005882
    11  H    0.024856
    12  H   -0.006157
    13  C   -0.065310
    14  H    0.019026
    15  H    0.025414
    16  H   -0.007596
 Sum of APT charges=   0.00000
 APT Atomic charges with hydrogens summed into heavy atoms:
              1
     1  O   -0.031818
     2  H    0.000000
     3  O   -0.406318
     4  C    0.802884
     5  H    0.000000
     6  O   -0.585267
     7  C    0.282518
     8  H    0.000000
     9  C   -0.033532
    10  H    0.000000
    11  H    0.000000
    12  H    0.000000
    13  C   -0.028466
    14  H    0.000000
    15  H    0.000000
    16  H    0.000000
 Sum of APT charges=   0.00000
 Electronic spatial extent (au):  <R**2>=  2616.1101
 Charge=     0.0000 electrons
 Dipole moment (field-independent basis, Debye):
    X=    -0.7846    Y=     1.7650    Z=    -1.9438  Tot=     2.7403
 Quadrupole moment (field-independent basis, Debye-Ang):
   XX=   -47.0340   YY=   -28.2070   ZZ=   -38.1385
   XY=     4.5597   XZ=    -2.3577   YZ=    -1.9660
 Traceless Quadrupole moment (field-independent basis, Debye-Ang):
   XX=    -9.2409   YY=     9.5862   ZZ=    -0.3453
   XY=     4.5597   XZ=    -2.3577   YZ=    -1.9660
 Octapole moment (field-independent basis, Debye-Ang**2):
  XXX=  -159.6256  YYY=  -203.9927  ZZZ=   150.9773  XYY=   -12.8363
  XXY=   -97.2250  XXZ=    50.4642  XZZ=   -43.2870  YZZ=   -93.3536
  YYZ=    60.3954  XYZ=    -5.9303
 Hexadecapole moment (field-independent basis, Debye-Ang**3):
 XXXX=  -629.1066 YYYY= -1222.2011 ZZZZ=  -764.9808 XXXY=  -350.6625
 XXXZ=   170.8378 YYYX=  -152.8395 YYYZ=   356.7345 ZZZX=   165.2289
 ZZZY=   269.1695 XXYY=  -355.6778 XXZZ=  -218.7940 YYZZ=  -430.8878
 XXYZ=    83.3977 YYXZ=    46.3911 ZZXY=  -102.7382
 N-N= 3.264941244522D+02 E-N=-1.552652700002D+03  KE= 3.821969956385D+02
  Exact polarizability:  60.383  -0.178  68.243   3.878   6.396  62.198
 Approx polarizability:  89.713 -10.381  96.929  12.420  -0.983  86.963
                          Isotropic Fermi Contact Couplings
        Atom                 a.u.       MegaHertz       Gauss      10(-4) cm-1
     1  O(17)              0.00257      -1.55853      -0.55612      -0.51987
     2  H(1)               0.00019       0.84805       0.30260       0.28288
     3  O(17)             -0.00504       3.05771       1.09107       1.01994
     4  C(13)             -0.04879     -54.84668     -19.57066     -18.29488
     5  H(1)               0.02743     122.62011      43.75390      40.90167
     6  O(17)              0.02806     -17.01250      -6.07048      -5.67476
     7  C(13)              0.10619     119.38046      42.59792      39.82104
     8  H(1)              -0.00179      -8.01592      -2.86028      -2.67382
     9  C(13)             -0.01424     -16.01035      -5.71289      -5.34048
    10  H(1)               0.00151       6.72735       2.40049       2.24400
    11  H(1)               0.00326      14.58729       5.20511       4.86580
    12  H(1)               0.01430      63.92392      22.80964      21.32273
    13  C(13)             -0.01368     -15.37560      -5.48639      -5.12875
    14  H(1)               0.00160       7.14347       2.54897       2.38281
    15  H(1)               0.00252      11.24302       4.01179       3.75027
    16  H(1)               0.01360      60.79903      21.69460      20.28037
 --------------------------------------------------------
       Center         ----  Spin Dipole Couplings  ----
                      3XX-RR        3YY-RR        3ZZ-RR
 --------------------------------------------------------
     1   Atom       -0.006252      0.000846      0.005406
     2   Atom       -0.002075      0.003799     -0.001725
     3   Atom       -0.019761      0.002413      0.017348
     4   Atom        0.023597      0.011490     -0.035088
     5   Atom       -0.004288      0.002273      0.002014
     6   Atom        0.607979     -0.252007     -0.355972
     7   Atom        0.138507     -0.285725      0.147219
     8   Atom       -0.010011      0.031452     -0.021441
     9   Atom       -0.011097     -0.008656      0.019753
    10   Atom       -0.000145     -0.007278      0.007422
    11   Atom       -0.001352      0.000020      0.001332
    12   Atom       -0.002120     -0.004062      0.006182
    13   Atom        0.007804      0.004849     -0.012654
    14   Atom       -0.001936      0.006491     -0.004555
    15   Atom        0.005555     -0.006479      0.000924
    16   Atom        0.003992     -0.001109     -0.002883
 --------------------------------------------------------
                        XY            XZ            YZ
 --------------------------------------------------------
     1   Atom        0.005215     -0.006568      0.014392
     2   Atom       -0.001433     -0.000557      0.002034
     3   Atom        0.053526      0.088871      0.087015
     4   Atom        0.000297      0.014507     -0.011496
     5   Atom        0.006289      0.002164     -0.005536
     6   Atom        0.897607      0.792384      0.518044
     7   Atom        0.171867      0.490696      0.173789
     8   Atom       -0.025526      0.024472     -0.005911
     9   Atom       -0.002879     -0.004377      0.014967
    10   Atom        0.001069     -0.006859     -0.000304
    11   Atom       -0.006106     -0.003200      0.007798
    12   Atom       -0.000194      0.000023      0.006281
    13   Atom        0.021896     -0.000150     -0.002104
    14   Atom        0.007275      0.001273     -0.004543
    15   Atom        0.004200     -0.007085     -0.003270
    16   Atom        0.007342      0.001798     -0.001467
 --------------------------------------------------------


 ---------------------------------------------------------------------------------
              Anisotropic Spin Dipole Couplings in Principal Axis System
 ---------------------------------------------------------------------------------

       Atom             a.u.   MegaHertz   Gauss  10(-4) cm-1        Axes

              Baa    -0.0175     1.267     0.452     0.423 -0.5926  0.5946 -0.5434
     1 O(17)  Bbb    -0.0003     0.023     0.008     0.008  0.8021  0.4973 -0.3306
              Bcc     0.0178    -1.289    -0.460    -0.430 -0.0737  0.6318  0.7716
 
              Baa    -0.0025    -1.326    -0.473    -0.442  0.7402 -0.0483  0.6707
     2 H(1)   Bbb    -0.0023    -1.240    -0.442    -0.414 -0.6362 -0.3732  0.6752
              Bcc     0.0048     2.566     0.916     0.856 -0.2177  0.9265  0.3069
 
              Baa    -0.0961     6.954     2.482     2.320 -0.6321 -0.2910  0.7182
     3 O(17)  Bbb    -0.0604     4.368     1.559     1.457 -0.5894  0.7822 -0.2018
              Bcc     0.1565   -11.323    -4.040    -3.777  0.5031  0.5509  0.6659
 
              Baa    -0.0409    -5.489    -1.958    -1.831 -0.2154  0.2104  0.9536
     4 C(13)  Bbb     0.0135     1.815     0.648     0.605  0.2097  0.9637 -0.1653
              Bcc     0.0274     3.674     1.311     1.225  0.9537 -0.1643  0.2517
 
              Baa    -0.0101    -5.376    -1.918    -1.793  0.7414 -0.5500 -0.3846
     5 H(1)   Bbb     0.0015     0.798     0.285     0.266  0.6074  0.3062  0.7330
              Bcc     0.0086     4.578     1.634     1.527  0.2854  0.7770 -0.5611
 
              Baa    -0.8280    59.911    21.378    19.984 -0.2158  0.8171 -0.5345
     6 O(17)  Bbb    -0.7975    57.708    20.591    19.249 -0.6106  0.3143  0.7269
              Bcc     1.6255  -117.619   -41.969   -39.233  0.7620  0.4832  0.4311
 
              Baa    -0.3479   -46.686   -16.659   -15.573 -0.6588 -0.2034  0.7243
     7 C(13)  Bbb    -0.3466   -46.512   -16.597   -15.515 -0.3154  0.9487 -0.0205
              Bcc     0.6945    93.198    33.255    31.088  0.6830  0.2419  0.6892
 
              Baa    -0.0428   -22.858    -8.156    -7.625 -0.6717 -0.1735  0.7202
     8 H(1)   Bbb    -0.0047    -2.519    -0.899    -0.840  0.5665  0.5061  0.6503
              Bcc     0.0476    25.377     9.055     8.465 -0.4773  0.8449 -0.2416
 
              Baa    -0.0153    -2.056    -0.734    -0.686  0.2481  0.9018 -0.3539
     9 C(13)  Bbb    -0.0116    -1.552    -0.554    -0.518  0.9593 -0.1779  0.2191
              Bcc     0.0269     3.608     1.287     1.203 -0.1346  0.3938  0.9093
 
              Baa    -0.0075    -3.996    -1.426    -1.333 -0.2158  0.9732 -0.0794
    10 H(1)   Bbb    -0.0040    -2.143    -0.765    -0.715  0.8328  0.2259  0.5054
              Bcc     0.0115     6.140     2.191     2.048 -0.5098 -0.0429  0.8592
 
              Baa    -0.0084    -4.457    -1.590    -1.487  0.4523  0.7617 -0.4638
    11 H(1)   Bbb    -0.0034    -1.828    -0.652    -0.610  0.7699 -0.0710  0.6342
              Bcc     0.0118     6.285     2.243     2.096 -0.4502  0.6440  0.6186
 
              Baa    -0.0071    -3.762    -1.343    -1.255  0.0375  0.9028 -0.4285
    12 H(1)   Bbb    -0.0021    -1.128    -0.402    -0.376  0.9993 -0.0315  0.0211
              Bcc     0.0092     4.890     1.745     1.631 -0.0055  0.4290  0.9033
 
              Baa    -0.0162    -2.175    -0.776    -0.725 -0.6222  0.6849  0.3793
    13 C(13)  Bbb    -0.0121    -1.627    -0.581    -0.543  0.2850 -0.2530  0.9245
              Bcc     0.0283     3.802     1.357     1.268  0.7292  0.6833 -0.0378
 
              Baa    -0.0090    -4.817    -1.719    -1.607 -0.5989  0.4704  0.6481
    14 H(1)   Bbb    -0.0024    -1.263    -0.451    -0.421  0.6607 -0.1672  0.7318
              Bcc     0.0114     6.081     2.170     2.028  0.4527  0.8664 -0.2106
 
              Baa    -0.0080    -4.269    -1.523    -1.424 -0.1942  0.9608  0.1979
    15 H(1)   Bbb    -0.0042    -2.244    -0.801    -0.749  0.5991 -0.0436  0.7995
              Bcc     0.0122     6.514     2.324     2.173  0.7768  0.2738 -0.5671
 
              Baa    -0.0074    -3.967    -1.416    -1.323 -0.5329  0.7211  0.4428
    16 H(1)   Bbb    -0.0018    -0.966    -0.345    -0.322  0.2160 -0.3900  0.8951
              Bcc     0.0092     4.933     1.760     1.645  0.8181  0.5727  0.0520
 

 ---------------------------------------------------------------------------------

 Use density number 0.
 Entering OneElI...
 Calculate overlap and kinetic energy integrals
    NBasis = 187  MinDer = 2  MaxDer = 2
 Requested accuracy = 0.1000D-12
 PrsmSu:  NPrtUS=   1 ThrOK=F
 PRISM was handed   130760387 working-precision words and  2548 shell-pairs
 Entering OneElI...
 Calculate potential energy integrals
    NBasis = 187  MinDer = 2  MaxDer = 2
 Requested accuracy = 0.1000D-12
 PrsmSu:  NPrtUS=   8 ThrOK=T
 PRISM was handed    16302584 working-precision words and  2354 shell-pairs
 PRISM was handed    16302584 working-precision words and  2354 shell-pairs
 PRISM was handed    16302584 working-precision words and  2354 shell-pairs
 PRISM was handed    16302584 working-precision words and  2354 shell-pairs
 PRISM was handed    16302584 working-precision words and  2354 shell-pairs
 PRISM was handed    16302584 working-precision words and  2354 shell-pairs
 PRISM was handed    16302584 working-precision words and  2354 shell-pairs
 PRISM was handed    16302584 working-precision words and  2354 shell-pairs
 Polarizability after L701:
                1             2             3
      1  0.603830D+02
      2 -0.177859D+00  0.682434D+02
      3  0.387809D+01  0.639637D+01  0.621979D+02
 Dipole Derivatives after L701:
               1            2            3            4            5
      1-0.254450D+00 0.145420D+00 0.897391D-01 0.274722D+00-0.112503D-01
      2 0.679349D-01-0.469974D+00 0.281609D-01-0.166209D-01 0.297197D+00
      3 0.177888D+00-0.790466D-01-0.194977D+00-0.820886D-01 0.117382D-01
               6            7            8            9           10
      1-0.938211D-01-0.341050D+00-0.148184D-01 0.267444D+00 0.562396D+00
      2 0.163103D-01 0.246490D+00-0.332917D+00-0.591219D+00-0.294710D+00
      3 0.252026D+00 0.124728D+00-0.176677D+00-0.544988D+00-0.208058D+00
              11           12           13           14           15
      1-0.149439D+00-0.312135D+00 0.211923D-01-0.992132D-01 0.899179D-01
      2 0.109854D+01 0.687163D+00-0.704715D-01-0.858337D-01-0.213615D-01
      3 0.236052D+00 0.854867D+00 0.465620D-01 0.641670D-01-0.425119D-01
              16           17           18           19           20
      1-0.536728D+00 0.160055D+00-0.855887D-01 0.379484D+00 0.133031D+00
      2 0.154264D+00-0.665949D+00-0.406565D-01-0.291526D-01 0.193570D+00
      3-0.595510D-01-0.132075D-01-0.553125D+00-0.978129D-02 0.738172D-01
              21           22           23           24           25
      1 0.478729D-01-0.184396D-01 0.638009D-02 0.105423D-01-0.305874D-01
      2-0.530260D-01 0.331909D-01-0.611461D-01 0.335769D-01-0.216746D-01
      3 0.350968D+00 0.148616D-01 0.104370D-01 0.311805D-02-0.481730D-01
              26           27           28           29           30
      1 0.156564D-01 0.474091D-01-0.105771D-01-0.948868D-01 0.516775D-01
      2 0.105770D-01-0.637808D-01-0.636252D-01-0.424710D-01 0.335242D-01
      3-0.930077D-01-0.119040D+00 0.945857D-01 0.721648D-01 0.354033D-01
              31           32           33           34           35
      1 0.294685D-01 0.609749D-01-0.497661D-01 0.507390D-02-0.491112D-01
      2 0.744180D-01-0.710566D-02 0.793900D-01-0.361902D-01 0.469244D-01
      3 0.210239D-01 0.289825D-01 0.522064D-01-0.478336D-01-0.847995D-01
              36           37           38           39           40
      1-0.816414D-01-0.112149D+00-0.757404D-01-0.217571D-01 0.183146D-01
      2-0.788640D-01-0.113235D+00-0.211028D-01-0.383008D-01 0.106975D+00
      3-0.704695D-01 0.472200D-01 0.132493D-01-0.626782D-01-0.298455D-01
              41           42           43           44           45
      1 0.323736D-01 0.102069D-01 0.619470D-01 0.412837D-01 0.963434D-01
      2-0.286768D-01 0.486416D-01 0.362736D-01 0.439581D-01-0.174869D-01
      3 0.311916D-01 0.674412D-01 0.558965D-01-0.541730D-01-0.296621D-01
              46           47           48
      1-0.486174D-01-0.100717D+00-0.664442D-01
      2-0.738654D-01 0.244073D-01-0.220709D-01
      3-0.974353D-01-0.408877D-01 0.142175D-02
 Hessian after L701:
                1             2             3             4             5
      1  0.992000D+01
      2  0.173103D+01  0.224123D+01
      3 -0.196382D+01  0.229269D+00  0.916704D+01
      4 -0.575579D+01  0.111237D+01  0.997512D+00  0.576425D+01
      5  0.124523D+01 -0.342418D+01  0.199994D+01 -0.140806D+01  0.324290D+01
      6  0.103763D+01  0.187188D+01 -0.479504D+01 -0.101081D+01 -0.227563D+01
      7 -0.362548D+01 -0.235802D+01  0.114945D+01  0.556449D-01  0.203743D+00
      8 -0.238453D+01  0.670333D+00 -0.299449D+01  0.254409D+00 -0.550095D-02
      9  0.111532D+01 -0.283224D+01 -0.371069D+01 -0.441176D-02  0.158376D+00
     10  0.715473D-01  0.602947D-01 -0.988507D-01 -0.187380D-01 -0.621722D-02
     11 -0.997193D-01 -0.339481D+00  0.110601D+00  0.486063D-02  0.600011D-01
     12 -0.862259D-01  0.774633D-01 -0.117242D+00 -0.245885D-04  0.360171D-01
     13 -0.199000D-01 -0.148131D+00 -0.716772D-01 -0.450171D-02 -0.166246D-01
     14 -0.720475D-01 -0.745646D-01  0.357921D-01 -0.589195D-02  0.265897D-04
     15 -0.115150D+00  0.964400D-01 -0.111335D+00 -0.223412D-02  0.220875D-01
     16  0.246228D-01 -0.385951D+00  0.488342D-01 -0.182484D-01 -0.290558D-01
     17 -0.437891D+00  0.343019D+00 -0.815483D-01  0.725971D-02  0.512943D-01
     18  0.643542D-01 -0.973875D-01 -0.243152D+00  0.564690D-03  0.544888D-03
     19 -0.230034D+00 -0.129488D+00 -0.746030D-01 -0.139707D-01  0.297551D-02
     20 -0.707549D-01  0.222471D+00  0.336620D+00  0.189437D-01  0.427208D-01
     21 -0.396998D-01  0.245746D+00 -0.510839D-01  0.102323D-01  0.355888D-01
     22 -0.126562D+00  0.528017D-01  0.489485D-01  0.291839D-02  0.183521D-03
     23  0.119119D-01  0.119723D-01  0.112280D+00 -0.564421D-02 -0.149797D-01
     24  0.176091D-01  0.185634D+00  0.246925D-01 -0.871342D-03 -0.927684D-02
     25 -0.900683D-01 -0.391583D-01 -0.331343D-01 -0.429830D-02  0.112015D-02
     26 -0.495234D-01  0.271789D-01  0.123724D+00  0.251460D-02  0.101296D-01
     27 -0.343963D-01  0.966769D-01 -0.889216D-02  0.133700D-02  0.985741D-02
     28 -0.118624D-02 -0.120417D-01 -0.223667D-01 -0.216595D-02 -0.403066D-02
     29  0.577626D-03 -0.108337D-01  0.448296D-03 -0.125364D-02 -0.277104D-02
     30 -0.165567D-01  0.163685D-01  0.147557D-01  0.129711D-02  0.487732D-02
     31 -0.188544D-02 -0.128743D-01 -0.908179D-02 -0.180039D-02 -0.362762D-02
     32 -0.136069D-01  0.146592D-01  0.157372D-01  0.183436D-02  0.577437D-02
     33 -0.158896D-02  0.437422D-02 -0.662219D-02 -0.449173D-03 -0.598753D-04
     34 -0.956222D-02  0.378734D-02  0.653821D-02  0.808131D-03  0.269643D-02
     35 -0.200902D-02  0.636921D-02  0.179825D-01  0.134935D-02  0.296224D-02
     36 -0.220750D-02  0.178045D-01  0.132938D-01  0.216033D-02  0.507200D-02
     37 -0.132825D+00  0.723249D-01  0.178612D-01 -0.620450D-02  0.246969D-02
     38  0.106415D+00  0.230454D+00  0.828029D-01  0.100291D-01  0.178431D-01
     39  0.303247D-01  0.102937D+00 -0.132954D+00  0.666015D-02  0.143472D-01
     40 -0.116949D-01 -0.828492D-02 -0.429505D-03 -0.187530D-02 -0.255225D-02
     41  0.677791D-03  0.358839D-01  0.410831D-02  0.334093D-02  0.773030D-02
     42 -0.706105D-04 -0.166697D-02 -0.121156D-01 -0.463226D-03 -0.860298D-03
     43 -0.100959D-01  0.407578D-01 -0.478467D-02  0.185272D-02  0.671230D-02
     44  0.204382D-01  0.283974D-01 -0.547110D-02  0.166588D-02  0.230114D-02
     45 -0.147390D-01 -0.307334D-01 -0.268915D-01 -0.286096D-02 -0.511360D-02
     46 -0.109202D-02  0.205810D-01  0.961268D-02  0.211353D-02  0.503788D-02
     47  0.138050D-01  0.170956D-01  0.121986D-01  0.227487D-02  0.375470D-02
     48  0.922370D-02  0.174318D-01 -0.375608D-02  0.236118D-02  0.423003D-02
                6             7             8             9            10
      6  0.469652D+01
      7 -0.508382D-02  0.772493D+01
      8  0.244452D+00  0.574252D+01  0.372757D+01
      9  0.928932D-01  0.258159D+01 -0.215326D+01  0.777329D+01
     10  0.239541D-02 -0.428334D+01 -0.368512D+01 -0.394072D+01  0.219433D+02
     11  0.448782D-01 -0.357979D+01 -0.487253D+01  0.347021D+01  0.898264D+01
     12 -0.793213D-02 -0.394642D+01  0.352435D+01 -0.406522D+01  0.786589D-01
     13 -0.140507D-01  0.135352D+00  0.259648D-01  0.351360D+00 -0.410414D+01
     14  0.657715D-02  0.372581D-01  0.340166D+00 -0.317009D-01  0.106041D+01
     15  0.100213D-01  0.268478D+00 -0.280918D-01 -0.155275D+00 -0.101533D+01
     16 -0.167250D-01  0.473161D+00 -0.437704D+00 -0.485938D+00 -0.126041D+02
     17  0.365441D-01 -0.510650D+00 -0.470898D-01  0.631446D+00 -0.740541D+01
     18 -0.128694D-01 -0.433368D+00  0.587778D+00 -0.127684D+00  0.317775D+01
     19  0.177205D-02 -0.160792D+00  0.199076D+00  0.246217D+00 -0.983263D+00
     20  0.443058D-01  0.229297D+00 -0.254084D-02  0.255781D+00  0.817991D+00
     21  0.125816D-01  0.283308D+00  0.229304D+00  0.763712D-01  0.161872D+01
     22  0.114606D-02  0.242520D-01  0.218762D-01  0.745244D-01 -0.385398D-01
     23 -0.143472D-01 -0.250847D-02 -0.343362D-01 -0.469271D-01  0.149482D-02
     24 -0.464051D-02  0.629632D-01  0.171986D-01  0.211247D-01 -0.727855D-01
     25  0.139186D-02 -0.141167D+00 -0.198366D-01 -0.379504D-01 -0.248589D-01
     26  0.134860D-01 -0.327976D-01 -0.379884D-01  0.188721D+00  0.380977D-01
     27  0.352754D-02 -0.602687D-01  0.200722D+00  0.207922D+00  0.695510D-01
     28 -0.387241D-02 -0.535986D-02 -0.109737D-01 -0.294202D-01 -0.764114D-02
     29 -0.170245D-02  0.327030D-02 -0.195131D-01 -0.866434D-02  0.116192D-01
     30  0.403978D-02 -0.200775D-01  0.192978D-01  0.390517D-01 -0.820175D-02
     31 -0.286642D-02 -0.761510D-02 -0.231182D-01 -0.229783D-01  0.149107D-02
     32  0.495434D-02 -0.189062D-01  0.300774D-01  0.459947D-01 -0.739877D-02
     33 -0.858709D-03 -0.950601D-02  0.239866D-01  0.943253D-02  0.808217D-02
     34  0.243570D-02 -0.889920D-02  0.886223D-02  0.125559D-01 -0.237041D-01
     35  0.312319D-02  0.197015D-03  0.143385D-02  0.152737D-01  0.164701D-01
     36  0.409074D-02  0.385544D-03  0.191758D-01  0.201996D-01  0.317998D-01
     37  0.138797D-02 -0.187428D+00  0.104081D+00  0.388870D-01  0.502232D-01
     38  0.128562D-01  0.132138D+00  0.131446D+00  0.184362D+00  0.962444D-01
     39  0.173856D-02  0.924362D-01  0.256050D+00 -0.688868D-01  0.109583D+00
     40 -0.185068D-02 -0.220460D-01 -0.962404D-02 -0.299911D-02 -0.265839D-01
     41  0.499007D-02  0.142702D-01  0.663819D-01  0.296510D-01 -0.156499D-01
     42 -0.140319D-02  0.190951D-02  0.753005D-02 -0.187951D-01 -0.169853D-02
     43  0.330206D-02  0.233440D-01  0.184190D+00  0.806837D-01 -0.218115D-01
     44  0.539633D-03  0.122492D+00  0.410933D-01  0.732798D-01 -0.370180D-01
     45 -0.517484D-02  0.163990D-01  0.195261D-01 -0.100413D+00 -0.565170D-02
     46  0.380188D-02  0.544180D-02  0.299267D-01  0.232798D-01  0.701238D-01
     47  0.308878D-02  0.174803D-01  0.109959D-01  0.196963D-01  0.715522D-01
     48  0.251071D-02  0.178165D-01  0.264703D-01  0.668734D-02  0.466897D-01
               11            12            13            14            15
     11  0.148322D+02
     12  0.227261D+01  0.222373D+02
     13  0.117664D+01 -0.117522D+01  0.397722D+01
     14 -0.329327D+01 -0.171671D+01 -0.118253D+01  0.312137D+01
     15 -0.166870D+01 -0.308909D+01  0.108787D+01  0.167225D+01  0.290092D+01
     16 -0.765989D+01  0.319610D+01  0.121052D+00  0.244765D+00 -0.136307D+00
     17 -0.454618D+01 -0.548748D+01  0.234971D+00 -0.170059D+00 -0.452329D-01
     18 -0.557646D+01 -0.148159D+02 -0.160772D+00 -0.168792D-01  0.338627D+00
     19  0.769878D+00  0.162408D+01 -0.144605D+00 -0.229600D+00  0.247133D-02
     20 -0.177602D+01  0.110867D+01 -0.223208D+00 -0.180692D-01 -0.469535D-03
     21  0.105428D+01 -0.147905D+00  0.145367D-01  0.272611D-01  0.188502D+00
     22  0.415650D-01 -0.349303D-01 -0.369463D-01 -0.687727D-02 -0.267856D-01
     23  0.309902D-01 -0.741639D-02 -0.206183D-01  0.251058D-02  0.425835D-03
     24  0.411881D-01  0.524664D-02 -0.211583D-01 -0.323022D-02  0.106411D-03
     25  0.110901D+00  0.170273D+00 -0.907009D-02  0.497191D-03 -0.250319D-01
     26 -0.864895D-01  0.263043D-01 -0.533712D-02  0.141710D-01 -0.229305D-01
     27  0.332132D-01 -0.192286D-01 -0.168848D-01 -0.522627D-02 -0.445107D-01
     28 -0.495952D-02 -0.145263D-01 -0.241778D-01 -0.381306D-02  0.324626D-02
     29 -0.275437D-01 -0.245186D-01  0.216791D-02 -0.957345D-02  0.263969D-01
     30  0.974168D-02  0.274576D-01  0.147592D-01  0.454064D-01  0.296010D-01
     31 -0.607855D-02 -0.379862D-03  0.264586D-03 -0.563829D-02  0.259585D-02
     32  0.177353D-01  0.371604D-02  0.209054D-02 -0.134684D-02 -0.122480D-01
     33 -0.189504D-01 -0.430119D-01 -0.186196D-02 -0.963182D-02 -0.972418D-03
     34  0.257335D-01  0.431234D-01  0.219322D-02  0.423270D-02 -0.284982D-02
     35  0.406437D-02  0.664864D-01  0.230130D-02  0.210754D-02 -0.343063D-02
     36  0.756948D-01  0.979168D-01  0.342791D-02  0.444954D-02 -0.589621D-02
     37  0.181261D+00  0.942264D-01  0.828411D-01  0.127492D+00 -0.202685D-01
     38 -0.258392D-01  0.791785D-01  0.122522D+00  0.650351D-01 -0.182486D-01
     39  0.131561D+00 -0.481130D-01  0.324666D-02  0.339967D-02 -0.575528D-01
     40 -0.251764D-01 -0.370270D-02 -0.153638D-03  0.628086D-02  0.717660D-04
     41  0.229871D-01 -0.233807D-02  0.150086D-01  0.189717D-01 -0.104988D-01
     42 -0.526214D-02 -0.788959D-02 -0.280521D-02 -0.388399D-02 -0.205498D-02
     43 -0.554196D-02  0.434791D-02  0.222038D-01  0.214921D-01 -0.153246D-01
     44 -0.221152D-01  0.908017D-02  0.137671D-01  0.160605D-02 -0.454264D-02
     45 -0.137481D-01  0.685330D-02 -0.136824D-01 -0.113519D-01  0.229702D-02
     46  0.876827D-01  0.506269D-01  0.236887D-02  0.396510D-02 -0.545571D-02
     47  0.214833D-01  0.345793D-01  0.101127D-02  0.913103D-03 -0.320896D-02
     48  0.391360D-01 -0.133174D-01  0.291452D-02  0.346976D-02 -0.339284D-02
               16            17            18            19            20
     16  0.115135D+02
     17  0.779262D+01  0.529885D+01
     18 -0.349546D+01  0.473458D+01  0.144093D+02
     19  0.179143D+00  0.250642D+00  0.709975D-01  0.137072D+02
     20  0.278469D+00 -0.235283D+00  0.221666D+00 -0.743754D+00  0.128310D+02
     21  0.946711D-01  0.184804D+00  0.127459D+00  0.178655D+01 -0.111423D+01
     22  0.631229D-01 -0.776559D-01  0.797113D-01 -0.427847D+01 -0.126786D+01
     23 -0.937995D-01  0.210406D-01 -0.762710D-01 -0.110810D+01 -0.229404D+01
     24  0.771903D-01 -0.579901D-01  0.119316D-01  0.278467D+00 -0.613479D+00
     25 -0.126699D+00 -0.108109D-01  0.303566D+00 -0.436225D+01 -0.106103D+01
     26 -0.506434D-02 -0.283154D+00 -0.109785D-01 -0.109830D+01 -0.531670D+01
     27  0.262144D+00 -0.143449D-01  0.325433D+00 -0.246675D+01  0.141840D+01
     28 -0.318588D-01  0.110291D-01 -0.226867D-01  0.262060D-01  0.427320D-02
     29 -0.870650D-02 -0.882193D-02 -0.467336D-01  0.401271D-01  0.945553D-01
     30  0.131478D-01 -0.271563D-01  0.682753D-01  0.474203D-01  0.133883D-01
     31 -0.992186D-01  0.740587D-02  0.301846D-02  0.815434D-01  0.224495D-01
     32  0.410241D-01 -0.575947D-01  0.158073D+00  0.107688D-01  0.756816D-01
     33  0.568925D-01  0.747029D-01  0.116427D+00  0.880951D-01 -0.900151D-01
     34  0.499939D-02 -0.229718D-02  0.350367D-01  0.626621D-01  0.283056D-01
     35  0.101714D-01 -0.175306D-01  0.179479D-01  0.781565D-02  0.318608D-01
     36  0.351259D-01 -0.320842D-02  0.454037D-01  0.119509D-01 -0.594689D-03
     37  0.333294D+00  0.626389D-01  0.277824D+00 -0.413433D+01  0.205998D+01
     38  0.729615D-01 -0.301801D+00  0.291025D-01  0.208094D+01 -0.381856D+01
     39  0.312342D+00  0.210137D-01 -0.138489D+00 -0.162060D+01 -0.163439D+01
     40  0.440975D-01  0.801793D-01  0.501820D-01  0.106435D+00 -0.897302D-01
     41  0.176475D+00 -0.377294D-02  0.661068D-01 -0.764587D-02  0.561126D-01
     42  0.408000D-01  0.244848D-01 -0.741941D-01  0.551532D-02  0.428471D-01
     43  0.762224D-01 -0.426144D-02  0.138822D-01  0.545987D-01 -0.101403D-02
     44 -0.184591D-01 -0.271025D-01 -0.273152D-02 -0.442468D-01  0.621255D-01
     45 -0.400417D-01  0.818295D-02 -0.351885D-01 -0.258897D-01  0.123218D-01
     46  0.469525D-01  0.222947D-02  0.353954D-01  0.898949D-01 -0.235982D-02
     47  0.221472D-01 -0.158220D-01  0.116465D-01 -0.109030D-02  0.446597D-01
     48  0.372213D-01  0.120078D-02  0.460821D-02  0.243017D-01 -0.823422D-03
               21            22            23            24            25
     21  0.119738D+02
     22  0.190437D+00  0.428719D+01
     23 -0.363758D+00  0.133743D+01  0.206301D+01
     24 -0.477949D+01 -0.503848D+00  0.460780D+00  0.465166D+01
     25 -0.234747D+01  0.152774D-01  0.579860D-01  0.744663D-01  0.142433D+02
     26  0.141993D+01  0.889813D-01  0.545899D-01 -0.863004D-01  0.582068D+00
     27 -0.300550D+01  0.956730D-01 -0.877642D-01  0.579165D-01  0.133943D+01
     28  0.342606D-02 -0.239471D-01  0.663315D-02  0.274795D-01 -0.321292D+01
     29 -0.390093D-01  0.218493D-01  0.331238D-02 -0.104940D-01  0.110255D+01
     30  0.399471D-01  0.301217D-01 -0.671013D-02 -0.512633D-02 -0.780956D+00
     31  0.206709D-01  0.382792D-01 -0.862825D-01 -0.965372D-02 -0.328629D+01
     32 -0.228594D-01 -0.806999D-01  0.735539D-01  0.124282D-01 -0.131403D+01
     33  0.675976D-01 -0.154671D-01  0.187705D-01 -0.304406D-01  0.432915D+00
     34  0.637426D-01 -0.787456D-03  0.974503D-02  0.313449D-02 -0.314176D+01
     35  0.235449D-01  0.133238D-02  0.366041D-02 -0.666083D-02  0.583932D+00
     36  0.109794D+00 -0.164082D-03  0.446006D-02 -0.288098D-02  0.118005D+01
     37 -0.175507D+01  0.997362D-01 -0.766214D-01  0.396902D-01  0.846443D-01
     38 -0.176943D+01 -0.815989D-01 -0.103534D-01  0.923575D-01  0.525169D-02
     39 -0.481419D+01  0.322399D-01  0.435163D-01  0.614200D-01 -0.159238D+00
     40  0.531460D-01 -0.293668D-01 -0.157698D-01  0.669042D-02 -0.237808D-01
     41  0.435408D-01 -0.223532D-01  0.114805D+00 -0.622118D-01  0.233239D-02
     42  0.634389D-01  0.105042D-01 -0.617503D-01 -0.251292D-02 -0.832470D-02
     43  0.324165D-01  0.568796D-02 -0.881103D-02  0.174643D-01  0.430059D-01
     44  0.778320D-01 -0.112094D-01 -0.115781D-01  0.337412D-01 -0.879310D-02
     45  0.519896D-01  0.175584D-01  0.138837D-01 -0.174616D-01 -0.118732D+00
     46 -0.296284D-01 -0.184394D-02 -0.704187D-02  0.316205D-02  0.369490D-01
     47 -0.325471D-01 -0.177630D-01 -0.141503D-01  0.631551D-02  0.702298D-02
     48  0.867144D-01  0.330290D-03  0.108288D-01  0.845091D-02  0.873593D-02
               26            27            28            29            30
     26  0.148994D+02
     27 -0.855730D+00  0.126019D+02
     28  0.117638D+01 -0.658359D+00  0.313700D+01
     29 -0.292176D+01 -0.738164D+00 -0.116483D+01  0.295654D+01
     30 -0.930692D+00 -0.371677D+01  0.851707D+00  0.878934D+00  0.331946D+01
     31 -0.129603D+01  0.619032D+00  0.879496D-01 -0.191760D-01  0.673396D-02
     32 -0.266620D+01 -0.785912D+00  0.156217D-01 -0.539179D-01  0.770114D-01
     33 -0.545534D+00 -0.409343D+01 -0.107933D-01  0.497397D-01  0.430053D-01
     34  0.541106D+00  0.104934D+01 -0.754146D-02 -0.609424D-01 -0.289939D-01
     35 -0.359824D+01  0.718562D+00 -0.821345D-01  0.797965D-02 -0.321378D-01
     36  0.752922D+00 -0.253813D+01 -0.167666D-01 -0.149599D-01  0.830201D-01
     37  0.673598D-01 -0.882707D-01  0.602554D-01  0.622871D-01 -0.105808D+00
     38 -0.273704D-01  0.798672D-02  0.597323D-01 -0.160222D-01 -0.599363D-01
     39 -0.744777D-01  0.140694D+00 -0.100428D+00 -0.608559D-01  0.503856D-01
     40 -0.168177D-01  0.147618D-01 -0.272163D-02 -0.498828D-03 -0.526629D-03
     41  0.144404D-02 -0.114832D-01  0.860093D-02  0.803644D-02 -0.966108D-02
     42 -0.113068D-01  0.575388D-02 -0.585174D-02 -0.712711D-02  0.453390D-02
     43 -0.555109D-02 -0.121585D+00  0.560113D-03  0.340649D-02  0.894250D-03
     44 -0.523882D-01  0.807421D-02 -0.372919D-02 -0.167343D-02  0.364807D-02
     45  0.405032D-02  0.106908D+00 -0.299130D-02 -0.555312D-02  0.131686D-02
     46  0.129218D-01 -0.476281D-02  0.755350D-02  0.755504D-02 -0.496103D-02
     47 -0.166062D-01  0.512834D-02  0.424648D-02  0.200379D-02 -0.237964D-02
     48  0.881437D-02 -0.235859D-01  0.220274D-02  0.226350D-02 -0.294525D-02
               31            32            33            34            35
     31  0.316572D+01
     32  0.136885D+01  0.251384D+01
     33 -0.462878D+00  0.469644D+00  0.393260D+01
     34 -0.978544D-02  0.137481D-01 -0.658604D-01  0.314997D+01
     35  0.409400D-01  0.757575D-01  0.411637D-01 -0.581618D+00  0.351289D+01
     36 -0.798287D-01  0.215141D-01  0.119074D-01 -0.111711D+01 -0.865262D+00
     37  0.412189D-02 -0.102776D-01  0.143325D-01 -0.199831D-01  0.247136D-02
     38 -0.939897D-02 -0.414606D-03 -0.439540D-02  0.559126D-02 -0.164014D-01
     39 -0.140676D-01  0.659668D-02 -0.182786D-01  0.857617D-02  0.161914D-02
     40  0.107336D-01  0.575770D-02 -0.334318D-01 -0.147394D-03  0.742828D-03
     41  0.249757D-01 -0.262562D-01 -0.150512D-01 -0.433183D-02 -0.356645D-02
     42 -0.448401D-01 -0.136976D-03  0.139132D-01  0.377892D-02  0.777613D-03
     43  0.639313D-02 -0.630924D-02 -0.169653D-02 -0.296236D-02 -0.177662D-02
     44 -0.477517D-02  0.196303D-02  0.603751D-03  0.149199D-02  0.125909D-03
     45 -0.988584D-02  0.813376D-02 -0.570994D-03  0.365228D-02  0.393967D-02
     46  0.100957D-01 -0.846094D-02  0.321625D-02  0.449664D-02 -0.184834D-03
     47  0.238527D-02 -0.330738D-02  0.652058D-03  0.388916D-02 -0.134771D-01
     48  0.440972D-02 -0.264672D-02 -0.698806D-03 -0.171003D-01 -0.292965D-02
               36            37            38            39            40
     36  0.210715D+01
     37 -0.104749D-01  0.139721D+02
     38  0.112956D-02 -0.155783D+01  0.140272D+02
     39  0.292874D-01  0.831180D+00  0.532252D+00  0.148388D+02
     40  0.532386D-02 -0.372459D+01 -0.107171D+01  0.411462D+00  0.368697D+01
     41 -0.116473D-01 -0.135421D+01 -0.245741D+01 -0.775534D+00  0.104419D+01
     42  0.876761D-02  0.485073D+00 -0.716467D+00 -0.415243D+01 -0.438575D+00
     43 -0.470804D-02 -0.393442D+01 -0.639339D+00 -0.116220D+01  0.226237D-01
     44  0.396339D-02 -0.440776D+00 -0.401827D+01  0.875306D+00  0.476419D-01
     45  0.925126D-02 -0.948597D+00  0.105394D+01 -0.248452D+01  0.724614D-02
     46 -0.389655D-01 -0.254742D+01  0.668044D+00  0.121849D+01 -0.278980D-01
     47 -0.105133D-01  0.697349D+00 -0.377952D+01  0.556658D+00  0.553632D-01
     48  0.682714D-02  0.112802D+01  0.492504D+00 -0.320694D+01 -0.673687D-01
               41            42            43            44            45
     41  0.208805D+01
     42  0.742468D+00  0.408355D+01
     43  0.709861D-01  0.427217D-01  0.363111D+01
     44 -0.693634D-02 -0.532074D-01  0.366378D+00  0.396021D+01
     45 -0.197852D-01  0.666256D-01  0.115583D+01 -0.971422D+00  0.246715D+01
     46  0.433263D-01 -0.876738D-01  0.816884D-01 -0.486887D-02 -0.176103D-01
     47  0.775362D-01  0.435618D-01 -0.213194D-01  0.422363D-01 -0.662732D-01
     48  0.273463D-01  0.248154D-01 -0.412386D-01 -0.486933D-01 -0.421667D-01
               46            47            48
     46  0.222058D+01
     47 -0.858354D+00  0.362220D+01
     48 -0.115852D+01 -0.578603D+00  0.315619D+01
 ReadGW:  IGet=0 IStart=         114 Next=        7248 LGW=        7134.
 ICntrl=12127.
 Symmetry not used in FoFDir.
 MinBra= 0 MaxBra= 2 Meth= 1.
 IRaf=       0 NMat=   1 IRICut=       1 DoRegI=T DoRafI=F ISym2E= 0 JSym2E=0.
 PrsmSu:  NPrtUS=   8 ThrOK=T
 PRISM was handed    16288574 working-precision words and  2450 shell-pairs
 PRISM was handed    16288574 working-precision words and  2450 shell-pairs
 PRISM was handed    16288574 working-precision words and  2450 shell-pairs
 PRISM was handed    16288574 working-precision words and  2450 shell-pairs
 PRISM was handed    16288574 working-precision words and  2450 shell-pairs
 PRISM was handed    16288574 working-precision words and  2450 shell-pairs
 PRISM was handed    16288574 working-precision words and  2450 shell-pairs
 PRISM was handed    16288574 working-precision words and  2450 shell-pairs
 Pruned (  75, 302) grid will be used in CalDFT.
 CkSvGd:  ISavGI=        -1 IRadAn=       4 IRASav=       4 ISavGd=        -1.
 CalDSu:  NPrtUS=   8 ThrOK=T
 IPart= 0 IRanGd=          0 ScrnBf=T ScrnGd=T RCrit=4.00D+00 DoMicB=T.
 IPart= 6 IRanGd=          0 ScrnBf=T ScrnGd=T RCrit=4.00D+00 DoMicB=T.
 IPart= 1 IRanGd=          0 ScrnBf=T ScrnGd=T RCrit=4.00D+00 DoMicB=T.
 IPart= 3 IRanGd=          0 ScrnBf=T ScrnGd=T RCrit=4.00D+00 DoMicB=T.
 IPart= 5 IRanGd=          0 ScrnBf=T ScrnGd=T RCrit=4.00D+00 DoMicB=T.
 CutRad = 1000.00    CtRdIn =    0.00    XCrit =  15.00   ICut = 0
 CutRad = 1000.00    CtRdIn =    0.00    XCrit =  15.00   ICut = 0
 CutRad = 1000.00    CtRdIn =    0.00    XCrit =  15.00   ICut = 0
 IPart= 2 IRanGd=          0 ScrnBf=T ScrnGd=T RCrit=4.00D+00 DoMicB=T.
 IPart= 7 IRanGd=          0 ScrnBf=T ScrnGd=T RCrit=4.00D+00 DoMicB=T.
 CutRad = 1000.00    CtRdIn =    0.00    XCrit =  15.00   ICut = 0
 CutRad = 1000.00    CtRdIn =    0.00    XCrit =  15.00   ICut = 0
 IPart= 4 IRanGd=          0 ScrnBf=T ScrnGd=T RCrit=4.00D+00 DoMicB=T.
 CutRad = 1000.00    CtRdIn =    0.00    XCrit =  15.00   ICut = 0
 CutRad = 1000.00    CtRdIn =    0.00    XCrit =  15.00   ICut = 0
 CutRad = 1000.00    CtRdIn =    0.00    XCrit =  15.00   ICut = 0
 IPart= 4        15418 of        17824 points in      39 batches and      102 microbatches, Max-NSigAt=      16 Max-NSgAt2=      16
 IPart= 0        12212 of        13830 points in      28 batches and       81 microbatches, Max-NSigAt=      16 Max-NSgAt2=      16
 IPart= 2        16000 of        18354 points in      38 batches and      121 microbatches, Max-NSigAt=      16 Max-NSgAt2=      16
 IPart= 5        14557 of        17132 points in      37 batches and      107 microbatches, Max-NSigAt=      16 Max-NSgAt2=      16
 IPart= 7        12260 of        13700 points in      28 batches and       86 microbatches, Max-NSigAt=      16 Max-NSgAt2=      16
 IPart= 6        15691 of        17348 points in      33 batches and      109 microbatches, Max-NSigAt=      16 Max-NSgAt2=      16
 IPart= 3        13349 of        15248 points in      32 batches and      101 microbatches, Max-NSigAt=      16 Max-NSgAt2=      16
 IPart= 1        13049 of        14646 points in      29 batches and       87 microbatches, Max-NSigAt=      16 Max-NSgAt2=      16
 Polarizability after L703:
                1             2             3
      1  0.603830D+02
      2 -0.177859D+00  0.682434D+02
      3  0.387809D+01  0.639637D+01  0.621979D+02
 Dipole Derivatives after L703:
               1            2            3            4            5
      1-0.254450D+00 0.145420D+00 0.897391D-01 0.274722D+00-0.112503D-01
      2 0.679349D-01-0.469974D+00 0.281609D-01-0.166209D-01 0.297197D+00
      3 0.177888D+00-0.790466D-01-0.194977D+00-0.820886D-01 0.117382D-01
               6            7            8            9           10
      1-0.938211D-01-0.341050D+00-0.148184D-01 0.267444D+00 0.562396D+00
      2 0.163103D-01 0.246490D+00-0.332917D+00-0.591219D+00-0.294710D+00
      3 0.252026D+00 0.124728D+00-0.176677D+00-0.544988D+00-0.208058D+00
              11           12           13           14           15
      1-0.149439D+00-0.312135D+00 0.211923D-01-0.992132D-01 0.899179D-01
      2 0.109854D+01 0.687163D+00-0.704715D-01-0.858337D-01-0.213615D-01
      3 0.236052D+00 0.854867D+00 0.465620D-01 0.641670D-01-0.425119D-01
              16           17           18           19           20
      1-0.536728D+00 0.160055D+00-0.855887D-01 0.379484D+00 0.133031D+00
      2 0.154264D+00-0.665949D+00-0.406565D-01-0.291526D-01 0.193570D+00
      3-0.595510D-01-0.132075D-01-0.553125D+00-0.978129D-02 0.738172D-01
              21           22           23           24           25
      1 0.478729D-01-0.184396D-01 0.638009D-02 0.105423D-01-0.305874D-01
      2-0.530260D-01 0.331909D-01-0.611461D-01 0.335769D-01-0.216746D-01
      3 0.350968D+00 0.148616D-01 0.104370D-01 0.311805D-02-0.481730D-01
              26           27           28           29           30
      1 0.156564D-01 0.474091D-01-0.105771D-01-0.948868D-01 0.516775D-01
      2 0.105770D-01-0.637808D-01-0.636252D-01-0.424710D-01 0.335242D-01
      3-0.930077D-01-0.119040D+00 0.945857D-01 0.721648D-01 0.354033D-01
              31           32           33           34           35
      1 0.294685D-01 0.609749D-01-0.497661D-01 0.507390D-02-0.491112D-01
      2 0.744180D-01-0.710566D-02 0.793900D-01-0.361902D-01 0.469244D-01
      3 0.210239D-01 0.289825D-01 0.522064D-01-0.478336D-01-0.847995D-01
              36           37           38           39           40
      1-0.816414D-01-0.112149D+00-0.757404D-01-0.217571D-01 0.183146D-01
      2-0.788640D-01-0.113235D+00-0.211028D-01-0.383008D-01 0.106975D+00
      3-0.704695D-01 0.472200D-01 0.132493D-01-0.626782D-01-0.298455D-01
              41           42           43           44           45
      1 0.323736D-01 0.102069D-01 0.619470D-01 0.412837D-01 0.963434D-01
      2-0.286768D-01 0.486416D-01 0.362736D-01 0.439581D-01-0.174869D-01
      3 0.311916D-01 0.674412D-01 0.558965D-01-0.541730D-01-0.296621D-01
              46           47           48
      1-0.486174D-01-0.100717D+00-0.664442D-01
      2-0.738654D-01 0.244073D-01-0.220709D-01
      3-0.974353D-01-0.408877D-01 0.142175D-02
 Hessian after L703:
                1             2             3             4             5
      1  0.144642D+00
      2  0.567539D-01  0.442701D+00
      3  0.169250D+00  0.149924D+00  0.295189D+00
      4 -0.909148D-01 -0.140805D+00 -0.142322D+00  0.886082D-01
      5 -0.111722D+00 -0.246225D+00 -0.179312D+00  0.115714D+00  0.281855D+00
      6 -0.135242D+00 -0.224679D+00 -0.213648D+00  0.132709D+00  0.191765D+00
      7 -0.389070D-01  0.670479D-01 -0.308711D-01  0.313393D-02 -0.403852D-02
      8  0.265190D-01 -0.161434D+00  0.544667D-01  0.199473D-01 -0.309898D-01
      9 -0.191738D-01  0.596334D-01 -0.975753D-01  0.110343D-01 -0.129416D-01
     10 -0.140174D-01  0.830450D-02 -0.119386D-02  0.204218D-02 -0.105814D-02
     11  0.219932D-01 -0.321750D-01 -0.152140D-01  0.463148D-02 -0.560116D-02
     12 -0.154096D-01  0.230966D-01  0.127335D-01 -0.321608D-02  0.684213D-03
     13  0.206510D-02 -0.109186D-02 -0.701731D-03 -0.418786D-03  0.227401D-03
     14 -0.712603D-03  0.343041D-02 -0.268597D-02 -0.152607D-03 -0.298585D-04
     15 -0.383990D-02  0.459727D-03  0.231012D-02  0.921593D-03  0.122670D-03
     16 -0.204544D-02  0.867067D-02  0.549804D-02 -0.214578D-02  0.100635D-02
     17  0.822693D-02 -0.501753D-02 -0.512665D-02  0.703836D-03  0.838210D-03
     18  0.584080D-02 -0.963881D-02  0.209343D-02  0.914837D-03 -0.267950D-03
     19 -0.185886D-02  0.175005D-02 -0.420003D-03 -0.259108D-03 -0.147059D-03
     20 -0.110220D-02 -0.744964D-04 -0.530557D-04  0.291381D-03  0.315348D-03
     21 -0.200403D-02  0.162192D-02 -0.641457D-03 -0.385087D-03  0.147029D-03
     22  0.191322D-03 -0.880110D-04  0.444242D-03 -0.100683D-03 -0.102878D-03
     23 -0.405345D-03 -0.485148D-03 -0.155036D-02 -0.157988D-03 -0.350206D-03
     24 -0.884050D-04 -0.219867D-03 -0.692109D-03  0.249273D-03 -0.447059D-03
     25  0.397400D-03 -0.455266D-03  0.790390D-04  0.147967D-03  0.138071D-03
     26  0.278698D-03 -0.387012D-03 -0.107747D-03 -0.950143D-04  0.153832D-03
     27  0.401161D-03 -0.670479D-04  0.211883D-03  0.117610D-03  0.672791D-04
     28  0.168085D-04  0.131731D-03 -0.475948D-04 -0.394562D-04 -0.193825D-04
     29 -0.311582D-04  0.864855D-04  0.293741D-04  0.000000D+00 -0.288438D-04
     30 -0.870962D-04  0.481032D-04  0.382792D-04  0.294754D-04 -0.282946D-04
     31  0.281644D-04  0.902300D-04  0.115675D-03  0.211465D-04 -0.119877D-04
     32 -0.167601D-03  0.211285D-03 -0.111015D-03 -0.254865D-04 -0.209047D-04
     33 -0.122876D-03  0.666148D-04 -0.577034D-04 -0.600152D-04  0.615300D-05
     34 -0.703478D-04  0.787485D-04  0.182278D-04 -0.213865D-04 -0.549377D-05
     35  0.201790D-04  0.832215D-05  0.151754D-04 -0.218121D-05  0.589442D-04
     36  0.193903D-03 -0.152877D-03  0.497245D-04  0.742452D-05  0.915027D-04
     37  0.233668D-03 -0.351474D-03  0.281285D-03 -0.810898D-05  0.579539D-04
     38  0.332600D-03 -0.353408D-03 -0.206435D-03 -0.561671D-04  0.748868D-04
     39  0.636369D-03 -0.790450D-03 -0.545711D-04 -0.136782D-04  0.110383D-03
     40 -0.330028D-04  0.203408D-04 -0.516746D-04 -0.483255D-05 -0.218921D-04
     41 -0.530174D-04  0.198033D-03 -0.149572D-03 -0.234379D-04  0.108848D-05
     42 -0.226075D-04  0.278948D-03  0.438045D-04  0.144307D-04 -0.123011D-04
     43  0.122018D-03  0.904159D-04 -0.709440D-04 -0.292068D-04 -0.686440D-04
     44 -0.493568D-04 -0.328711D-03  0.768323D-04  0.290785D-04 -0.105301D-03
     45 -0.124767D-03  0.340635D-03 -0.580308D-04 -0.147932D-04  0.442791D-05
     46  0.150170D-03 -0.146742D-03 -0.770659D-05 -0.112396D-04  0.522585D-04
     47  0.118582D-03 -0.156238D-03  0.523918D-05  0.193647D-05  0.536412D-04
     48 -0.207456D-03  0.786821D-04  0.576932D-04  0.135427D-04  0.103130D-04
                6             7             8             9            10
      6  0.206829D+00
      7  0.100272D-02  0.133535D+00
      8  0.331381D-01 -0.106755D+00  0.293103D+00
      9  0.107717D-01 -0.619390D-01 -0.397491D-01  0.257185D+00
     10  0.261185D-02 -0.700219D-01  0.315590D-01  0.714943D-01  0.267384D+00
     11 -0.163473D-02 -0.141369D-01 -0.516727D-01  0.207700D-01 -0.122657D+00
     12 -0.476454D-02  0.722976D-01 -0.248918D-01 -0.139215D+00 -0.153284D+00
     13  0.103250D-03 -0.981465D-02 -0.528288D-02  0.174772D-01 -0.715362D-01
     14 -0.334607D-03  0.148310D-01  0.269954D-02 -0.125029D-01 -0.637482D-01
     15 -0.199994D-03  0.249295D-01  0.860391D-02 -0.252165D-01  0.709530D-01
     16 -0.171613D-02 -0.213298D-01  0.353794D-01 -0.130716D-01 -0.136012D+00
     17  0.181246D-02  0.445153D-01 -0.409691D-01  0.579919D-03  0.132657D+00
     18  0.586970D-03 -0.164774D-02 -0.123763D-01  0.220644D-01 -0.446992D-01
     19 -0.363792D-03  0.718946D-03 -0.143030D-02 -0.234431D-02  0.523643D-01
     20  0.269824D-03 -0.433879D-03 -0.954551D-02 -0.140159D-01  0.312053D-01
     21 -0.490059D-03 -0.188820D-02 -0.169286D-01 -0.246698D-01  0.752601D-01
     22  0.476972D-03  0.834374D-03  0.901880D-03  0.116176D-03 -0.102283D-01
     23 -0.130234D-04  0.489805D-03  0.270725D-03  0.815165D-05 -0.649148D-02
     24  0.612520D-03  0.758684D-03  0.901800D-03 -0.126454D-02 -0.116598D-01
     25  0.219680D-03  0.423640D-03 -0.223888D-02 -0.384372D-02 -0.491606D-03
     26 -0.208947D-03 -0.331970D-03 -0.102676D-02 -0.660594D-03 -0.285858D-02
     27  0.285628D-03 -0.187014D-03 -0.100029D-02 -0.209034D-02 -0.648829D-02
     28  0.000000D+00  0.783219D-04  0.269875D-03 -0.959072D-04 -0.293853D-03
     29  0.137716D-04  0.177964D-04  0.229814D-03  0.117573D-05 -0.960200D-05
     30 -0.518152D-04 -0.387722D-03 -0.259114D-03  0.502067D-03  0.184390D-02
     31  0.343811D-04 -0.339938D-04  0.689766D-04  0.223761D-04 -0.666755D-03
     32 -0.855013D-04 -0.300862D-03  0.848918D-04  0.211914D-03  0.226124D-02
     33 -0.141980D-03 -0.359384D-03  0.246104D-03  0.607004D-03  0.898953D-03
     34 -0.300127D-04 -0.441869D-04  0.552614D-03  0.460872D-03  0.133480D-03
     35  0.369959D-04  0.528129D-04 -0.271820D-03 -0.110812D-02  0.138248D-02
     36  0.664684D-04  0.691576D-04 -0.105370D-02 -0.148425D-02  0.178748D-02
     37  0.348468D-03 -0.436147D-03  0.725000D-03  0.124690D-02 -0.170109D-01
     38 -0.659585D-04 -0.426576D-03  0.100944D-03  0.454725D-03 -0.118504D-01
     39  0.201269D-03  0.927648D-03 -0.267691D-03 -0.531373D-03 -0.977385D-02
     40 -0.714458D-04 -0.924328D-04  0.670983D-04  0.701379D-04  0.141382D-03
     41 -0.107913D-03 -0.629205D-03 -0.129729D-03  0.281852D-03  0.195966D-02
     42  0.422991D-05 -0.436411D-03 -0.174696D-03  0.100739D-03 -0.293572D-03
     43 -0.122417D-03  0.115711D-02 -0.331664D-03 -0.104332D-02 -0.744597D-03
     44  0.427303D-05  0.252913D-03 -0.561764D-03 -0.796606D-03 -0.484386D-03
     45 -0.503236D-04 -0.149747D-02 -0.657236D-03  0.516506D-03  0.242376D-03
     46  0.399536D-04  0.798727D-03  0.484477D-04 -0.410562D-03 -0.104174D-02
     47  0.890726D-04 -0.154844D-03  0.111654D-03 -0.166247D-03 -0.171335D-03
     48 -0.114127D-04 -0.771270D-03  0.194627D-05  0.299531D-03  0.230065D-02
               11            12            13            14            15
     11  0.641035D+00
     12 -0.239674D+00  0.359575D+00
     13 -0.636282D-01  0.837537D-01  0.872218D-01
     14 -0.135118D+00  0.103548D+00  0.581732D-01  0.157907D+00
     15  0.779523D-01 -0.124129D+00 -0.760275D-01 -0.107867D+00  0.157399D+00
     16  0.192484D+00 -0.398097D-01  0.824449D-02  0.751304D-03 -0.468519D-02
     17 -0.394939D+00  0.117844D+00  0.234211D-01 -0.235100D-01  0.283950D-01
     18  0.167357D+00 -0.137029D+00 -0.175025D-01  0.225799D-01 -0.545160D-02
     19 -0.175683D-01  0.690399D-01 -0.159549D-01 -0.862501D-02 -0.104679D-01
     20 -0.139725D-01  0.285549D-01 -0.121937D-01 -0.548456D-02 -0.537739D-02
     21 -0.102709D-01  0.551341D-01 -0.750529D-02 -0.132214D-02 -0.431904D-02
     22  0.559950D-02 -0.601308D-02 -0.539177D-03  0.475084D-04 -0.495573D-03
     23  0.657462D-03 -0.201624D-02 -0.369189D-03  0.557059D-03 -0.958850D-03
     24  0.507421D-02 -0.448019D-02  0.148880D-03  0.193020D-04 -0.406604D-03
     25  0.268368D-03 -0.516128D-02  0.619369D-03 -0.729583D-03 -0.148220D-02
     26  0.133950D-04 -0.905477D-02  0.470178D-03 -0.470337D-03 -0.809486D-03
     27 -0.337214D-02 -0.175957D-01  0.147556D-02  0.520897D-03  0.108752D-03
     28 -0.105511D-02 -0.689057D-03  0.417200D-03  0.354412D-03  0.142027D-03
     29 -0.139923D-03 -0.515959D-03  0.113351D-03  0.157026D-03  0.369363D-04
     30  0.132586D-02 -0.934281D-04 -0.353182D-03 -0.954377D-03 -0.296612D-03
     31  0.244494D-03 -0.116565D-02  0.434351D-04  0.191585D-03  0.211642D-03
     32 -0.184171D-02  0.142379D-02 -0.831132D-05  0.187047D-04  0.460524D-05
     33 -0.988645D-03 -0.107207D-03  0.123380D-04  0.162894D-03  0.165414D-03
     34 -0.183128D-03  0.838318D-03  0.435876D-04  0.527059D-03  0.375929D-03
     35 -0.558124D-03  0.679756D-03  0.252762D-03  0.232203D-03  0.126663D-03
     36  0.160391D-02  0.353292D-03 -0.147821D-03 -0.201687D-03  0.295965D-03
     37 -0.701890D-02 -0.606511D-02 -0.227638D-03 -0.840671D-03  0.783810D-05
     38 -0.361499D-02 -0.401287D-02  0.253199D-03 -0.206080D-04 -0.210367D-03
     39 -0.116829D-02  0.204351D-02 -0.103171D-02 -0.151042D-02 -0.528539D-03
     40 -0.216085D-03 -0.258449D-03  0.194314D-03  0.245517D-03  0.558784D-04
     41 -0.162466D-02  0.933357D-03  0.576281D-05  0.699900D-04 -0.859394D-04
     42 -0.300620D-03 -0.740846D-03 -0.878612D-05  0.155366D-03  0.481115D-04
     43  0.659752D-03  0.294438D-02  0.590291D-05  0.417834D-04 -0.290665D-03
     44  0.384897D-03  0.128217D-02  0.811445D-04  0.131720D-04 -0.101719D-03
     45 -0.105122D-02 -0.122966D-02  0.157872D-03  0.502411D-04  0.669724D-04
     46  0.582938D-03  0.219822D-02 -0.363777D-03 -0.354691D-03 -0.308523D-03
     47 -0.832869D-03  0.211926D-02 -0.423909D-03 -0.451769D-03 -0.291297D-03
     48 -0.408837D-03 -0.454890D-03  0.149729D-03  0.342480D-03  0.153796D-03
               16            17            18            19            20
     16  0.188020D+00
     17 -0.238007D+00  0.455980D+00
     18  0.883389D-01 -0.170277D+00  0.144860D+00
     19 -0.378806D-01  0.380920D-01 -0.293854D-01  0.355427D+00
     20 -0.346961D-02  0.824376D-02  0.245640D-02 -0.107408D+00  0.547155D+00
     21 -0.365069D-01  0.365601D-01 -0.275874D-01 -0.149719D+00 -0.807729D-01
     22 -0.131674D-04 -0.143452D-02 -0.138558D-02 -0.976499D-01  0.114046D+00
     23  0.136721D-02 -0.301741D-03 -0.437967D-03  0.106862D+00 -0.256875D+00
     24  0.187794D-03 -0.150142D-02 -0.120194D-02 -0.149380D-01  0.567315D-01
     25  0.824111D-03 -0.146242D-02 -0.123982D-02 -0.116916D+00  0.307156D-01
     26  0.190244D-02 -0.326790D-02  0.126649D-03  0.333280D-01 -0.102275D+00
     27  0.295826D-02 -0.475750D-02  0.716342D-03  0.689916D-01 -0.287762D-01
     28  0.229594D-03  0.754557D-04  0.220337D-03 -0.109333D-01 -0.139522D-01
     29  0.339099D-03  0.142757D-04  0.240039D-03  0.826247D-02  0.112384D-01
     30 -0.673107D-03 -0.169429D-03  0.154594D-03  0.137226D-01  0.197850D-01
     31  0.320754D-03 -0.121536D-02 -0.309706D-04 -0.104856D-01  0.147270D-01
     32 -0.132250D-02  0.205451D-02  0.398692D-03  0.838809D-02 -0.125685D-01
     33 -0.269540D-03  0.692312D-03 -0.886022D-04  0.160724D-01 -0.220167D-01
     34  0.506350D-03 -0.275694D-03  0.379329D-04  0.104813D-01  0.626710D-02
     35 -0.372021D-03  0.992418D-03  0.166738D-03 -0.556146D-02 -0.686136D-02
     36  0.110861D-03 -0.509643D-03 -0.167763D-03 -0.122978D-01 -0.102136D-01
     37  0.965417D-03 -0.464231D-02  0.133669D-02 -0.109882D+00 -0.402451D-01
     38  0.111959D-02 -0.377494D-02  0.100756D-02 -0.395082D-01 -0.140162D+00
     39 -0.541875D-03 -0.323453D-02  0.150071D-03  0.439598D-01  0.432931D-01
     40 -0.263062D-03 -0.334942D-04 -0.109805D-03  0.119088D-01 -0.186381D-01
     41  0.135857D-03  0.246535D-02 -0.636380D-03  0.102128D-01 -0.215017D-01
     42  0.119413D-03 -0.621606D-03  0.136290D-03 -0.936224D-02  0.127639D-01
     43  0.213256D-03  0.175174D-03 -0.836265D-03 -0.115165D-01  0.865410D-02
     44 -0.735093D-04  0.889968D-04 -0.193252D-03 -0.942796D-02  0.124662D-01
     45  0.157650D-03  0.506266D-04  0.339503D-03  0.609164D-02 -0.675767D-02
     46  0.366005D-03 -0.795609D-03  0.147716D-03 -0.175642D-01 -0.846348D-02
     47  0.891721D-04  0.110219D-02 -0.505265D-03 -0.172186D-01 -0.100983D-01
     48 -0.968417D-04  0.263717D-03  0.424698D-03  0.114204D-01  0.412886D-02
               21            22            23            24            25
     21  0.334293D+00
     22 -0.143048D-01  0.102212D+00
     23  0.499458D-01 -0.113820D+00  0.276048D+00
     24 -0.547652D-01  0.138231D-01 -0.532468D-01  0.569304D-01
     25  0.622099D-01 -0.399574D-02  0.559052D-02  0.147795D-01  0.530786D+00
     26 -0.272756D-01  0.126452D-01 -0.637919D-02 -0.220201D-01  0.129830D-01
     27 -0.137558D+00 -0.319521D-02  0.376534D-02  0.793072D-02  0.168114D-01
     28  0.567266D-02  0.255318D-03 -0.315422D-04 -0.608152D-03 -0.134390D+00
     29 -0.536984D-02 -0.378957D-03  0.695518D-03  0.634930D-03 -0.106619D+00
     30 -0.122999D-01 -0.841054D-03 -0.637365D-03  0.641963D-03  0.594796D-01
     31 -0.603879D-02 -0.888735D-03  0.491214D-03  0.275693D-02 -0.135116D+00
     32  0.592965D-03  0.169528D-02  0.727865D-03 -0.170422D-02  0.111665D+00
     33  0.878314D-02  0.289379D-02 -0.166977D-02 -0.389299D-02 -0.503414D-01
     34  0.126720D-01 -0.259381D-03 -0.390786D-03 -0.115407D-02 -0.132308D+00
[...]
    Z6       -0.60825  -0.00001   0.00000   0.00293   0.00378  -0.60447
    X7        1.29273   0.00000   0.00000  -0.00057  -0.00060   1.29212
    Y7        3.80487   0.00000   0.00000  -0.00037  -0.00028   3.80459
    Z7       -3.92932   0.00000   0.00000   0.00071   0.00071  -3.92861
    X8        0.38754  -0.00001   0.00000  -0.00168  -0.00128   0.38626
    Y8        5.60931   0.00000   0.00000  -0.00056  -0.00035   5.60896
    Z8       -4.33208   0.00000   0.00000   0.00235   0.00191  -4.33016
    X9        2.89884   0.00000   0.00000  -0.00067  -0.00042   2.89842
    Y9        2.78053   0.00001   0.00000   0.00213   0.00165   2.78217
    Z9       -6.03496   0.00000   0.00000  -0.00058  -0.00010  -6.03506
   X10        4.10351  -0.00001   0.00000  -0.00314  -0.00242   4.10109
   Y10        4.23292   0.00001   0.00000   0.00386   0.00305   4.23598
   Z10       -6.87469  -0.00001   0.00000  -0.00111  -0.00053  -6.87522
   X11        4.09386   0.00000   0.00000   0.00171   0.00151   4.09537
   Y11        1.23552   0.00001   0.00000   0.00342   0.00280   1.23831
   Z11       -5.36938  -0.00001   0.00000  -0.00181  -0.00086  -5.37024
   X12        1.68040  -0.00001   0.00000  -0.00077  -0.00032   1.68008
   Y12        2.03965   0.00000   0.00000   0.00089   0.00046   2.04010
   Z12       -7.54219   0.00000   0.00000   0.00010   0.00041  -7.54179
   X13       -0.35239   0.00001   0.00000   0.00106   0.00035  -0.35204
   Y13        1.96565  -0.00001   0.00000  -0.00240  -0.00182   1.96383
   Z13       -2.52557   0.00000   0.00000  -0.00005  -0.00020  -2.52577
   X14        0.71759   0.00001   0.00000   0.00232   0.00116   0.71875
   Y14        0.30659   0.00000   0.00000  -0.00223  -0.00179   0.30480
   Z14       -1.92877   0.00000   0.00000  -0.00184  -0.00154  -1.93031
   X15       -1.20770   0.00001   0.00000   0.00141   0.00049  -1.20721
   Y15        2.83850  -0.00001   0.00000  -0.00422  -0.00328   2.83522
   Z15       -0.86559   0.00001   0.00000   0.00110   0.00065  -0.86495
   X16       -1.88591   0.00001   0.00000   0.00082   0.00028  -1.88562
   Y16        1.33195  -0.00001   0.00000  -0.00229  -0.00158   1.33038
   Z16       -3.77238   0.00001   0.00000   0.00021  -0.00021  -3.77260
         Item               Value     Threshold  Converged?
 Maximum Force            0.000013     0.000450     YES
 RMS     Force            0.000006     0.000300     YES
 Maximum Displacement     0.003872     0.001800     NO 
 RMS     Displacement     0.001830     0.001200     NO 
 Predicted change in Energy=-6.740713D-08
 GradGradGradGradGradGradGradGradGradGradGradGradGradGradGradGradGradGrad


 Test job not archived.
 1\1\GINC-NODE58\Freq\UB3LYP\CBSB7\C4H9O3(2)\NYEE\09-Jul-2014\0\\# freq
  nosymm b3lyp/cbsb7 iop(7/33=1)\\Title Card Required\\0,2\O,0.597449,4
 .602974,-0.505725\H,0.965541,5.282355,0.075628\O,1.099993,3.407778,0.1
 51531\C,1.945382,2.725538,-0.762805\H,2.387806,3.44497,-1.472947\O,2.5
 26568,1.734011,-0.321873\C,0.684081,2.013451,-2.079306\H,0.205075,2.96
 832,-2.292436\C,1.533999,1.471392,-3.193563\H,2.171486,2.239967,-3.637
 928\H,2.166377,0.653807,-2.841351\H,0.889228,1.079334,-3.991156\C,-0.1
 86475,1.040178,-1.336475\H,0.37973,0.16224,-1.020662\H,-0.639087,1.502
 069,-0.458053\H,-0.997978,0.70484,-1.996259\\Version=AM64L-G03RevD.01\
 HF=-383.4611865\S2=0.760011\S2-1=0.\S2A=0.750036\RMSD=3.137e-09\RMSF=5
 .924e-06\ZeroPoint=0.1275753\Thermal=0.1365963\Dipole=-0.3086923,0.694
 3975,-0.7647416\DipoleDeriv=-0.2544502,0.0679349,0.1778881,0.1454203,-
 0.4699737,-0.0790466,0.0897391,0.0281609,-0.1949769,0.2747221,-0.01662
 09,-0.0820886,-0.0112503,0.2971971,0.0117382,-0.0938211,0.0163103,0.25
 20261,-0.3410501,0.2464896,0.1247284,-0.0148184,-0.3329172,-0.1766771,
 0.2674443,-0.5912193,-0.5449876,0.5623961,-0.2947101,-0.208058,-0.1494
 388,1.0985425,0.2360515,-0.3121347,0.6871628,0.8548666,0.0211923,-0.07
 04715,0.046562,-0.0992132,-0.0858337,0.064167,0.0899179,-0.0213615,-0.
 0425119,-0.536728,0.1542635,-0.059551,0.1600555,-0.6659494,-0.0132075,
 -0.0855887,-0.0406565,-0.5531246,0.3794845,-0.0291526,-0.0097813,0.133
 0313,0.19357,0.0738172,0.0478729,-0.053026,0.3509678,-0.0184396,0.0331
 909,0.0148616,0.0063801,-0.0611461,0.010437,0.0105423,0.0335769,0.0031
 18,-0.0305874,-0.0216746,-0.048173,0.0156564,0.010577,-0.0930077,0.047
 4091,-0.0637808,-0.1190402,-0.0105771,-0.0636252,0.0945857,-0.0948868,
 -0.042471,0.0721648,0.0516775,0.0335242,0.0354033,0.0294685,0.074418,0
 .0210239,0.0609749,-0.0071057,0.0289825,-0.0497661,0.07939,0.0522064,0
 .0050739,-0.0361902,-0.0478336,-0.0491112,0.0469244,-0.0847995,-0.0816
 414,-0.078864,-0.0704695,-0.1121492,-0.1132348,0.04722,-0.0757404,-0.0
 211028,0.0132493,-0.0217571,-0.0383008,-0.0626782,0.0183146,0.1069747,
 -0.0298455,0.0323736,-0.0286768,0.0311916,0.0102069,0.0486416,0.067441
 2,0.061947,0.0362736,0.0558965,0.0412837,0.0439581,-0.054173,0.0963434
 ,-0.0174869,-0.0296621,-0.0486174,-0.0738654,-0.0974353,-0.1007167,0.0
 244073,-0.0408877,-0.0664442,-0.0220709,0.0014217\Polar=60.3830102,-0.
 1778592,68.2433994,3.8780926,6.3963666,62.1978948\PG=C01 [X(C4H9O3)]\N
 Imag=1\\0.14464218,0.05675390,0.44270107,0.16925026,0.14992358,0.29518
 876,-0.09091479,-0.14080518,-0.14232219,0.08860816,-0.11172180,-0.2462
 2453,-0.17931207,0.11571377,0.28185464,-0.13524198,-0.22467912,-0.2136
 4810,0.13270937,0.19176526,0.20682945,-0.03890696,0.06704795,-0.030871
 06,0.00313393,-0.00403852,0.00100272,0.13353500,0.02651897,-0.16143358
 ,0.05446668,0.01994727,-0.03098979,0.03313814,-0.10675479,0.29310319,-
 0.01917380,0.05963337,-0.09757526,0.01103429,-0.01294157,0.01077169,-0
 .06193901,-0.03974910,0.25718523,-0.01401743,0.00830450,-0.00119386,0.
 00204218,-0.00105814,0.00261185,-0.07002186,0.03155899,0.07149428,0.26
 738382,0.02199322,-0.03217496,-0.01521401,0.00463148,-0.00560116,-0.00
 163473,-0.01413691,-0.05167267,0.02076996,-0.12265673,0.64103462,-0.01
 540958,0.02309659,0.01273354,-0.00321608,0.00068421,-0.00476454,0.0722
 9758,-0.02489182,-0.13921509,-0.15328405,-0.23967430,0.35957477,0.0020
 6510,-0.00109186,-0.00070173,-0.00041879,0.00022740,0.00010325,-0.0098
 1465,-0.00528288,0.01747720,-0.07153623,-0.06362817,0.08375366,0.08722
 178,-0.00071260,0.00343041,-0.00268597,-0.00015261,-0.00002986,-0.0003
 3461,0.01483101,0.00269954,-0.01250294,-0.06374820,-0.13511811,0.10354
 777,0.05817318,0.15790711,-0.00383990,0.00045973,0.00231012,0.00092159
 ,0.00012267,-0.00019999,0.02492949,0.00860391,-0.02521651,0.07095304,0
 .07795230,-0.12412876,-0.07602745,-0.10786673,0.15739852,-0.00204544,0
 .00867067,0.00549804,-0.00214578,0.00100635,-0.00171613,-0.02132981,0.
 03537940,-0.01307160,-0.13601191,0.19248361,-0.03980975,0.00824449,0.0
 0075130,-0.00468519,0.18801977,0.00822693,-0.00501753,-0.00512665,0.00
 070384,0.00083821,0.00181246,0.04451528,-0.04096914,0.00057992,0.13265
 673,-0.39493872,0.11784418,0.02342107,-0.02350998,0.02839497,-0.238007
 06,0.45598024,0.00584080,-0.00963881,0.00209343,0.00091484,-0.00026795
 ,0.00058697,-0.00164774,-0.01237630,0.02206441,-0.04469917,0.16735742,
 -0.13702894,-0.01750251,0.02257991,-0.00545160,0.08833891,-0.17027749,
 0.14485995,-0.00185886,0.00175005,-0.00042000,-0.00025911,-0.00014706,
 -0.00036379,0.00071895,-0.00143030,-0.00234431,0.05236433,-0.01756831,
 0.06903991,-0.01595492,-0.00862501,-0.01046794,-0.03788057,0.03809199,
 -0.02938536,0.35542705,-0.00110220,-0.00007450,-0.00005306,0.00029138,
 0.00031535,0.00026982,-0.00043388,-0.00954551,-0.01401590,0.03120530,-
 0.01397249,0.02855486,-0.01219372,-0.00548456,-0.00537739,-0.00346961,
 0.00824376,0.00245640,-0.10740839,0.54715500,-0.00200403,0.00162192,-0
 .00064146,-0.00038509,0.00014703,-0.00049006,-0.00188820,-0.01692863,-
 0.02466981,0.07526008,-0.01027086,0.05513413,-0.00750529,-0.00132214,-
 0.00431904,-0.03650691,0.03656009,-0.02758741,-0.14971894,-0.08077286,
 0.33429303,0.00019132,-0.00008801,0.00044424,-0.00010068,-0.00010288,0
 .00047697,0.00083437,0.00090188,0.00011618,-0.01022831,0.00559950,-0.0
 0601308,-0.00053918,0.00004751,-0.00049557,-0.00001317,-0.00143452,-0.
 00138558,-0.09764988,0.11404624,-0.01430476,0.10221152,-0.00040535,-0.
 00048515,-0.00155036,-0.00015799,-0.00035021,-0.00001302,0.00048981,0.
 00027072,0.00000815,-0.00649148,0.00065746,-0.00201624,-0.00036919,0.0
 0055706,-0.00095885,0.00136721,-0.00030174,-0.00043797,0.10686188,-0.2
 5687488,0.04994584,-0.11381994,0.27604751,-0.00008841,-0.00021987,-0.0
 0069211,0.00024927,-0.00044706,0.00061252,0.00075868,0.00090180,-0.001
 26454,-0.01165981,0.00507421,-0.00448019,0.00014888,0.00001930,-0.0004
 0660,0.00018779,-0.00150142,-0.00120194,-0.01493801,0.05673151,-0.0547
 6520,0.01382311,-0.05324680,0.05693042,0.00039740,-0.00045527,0.000079
 04,0.00014797,0.00013807,0.00021968,0.00042364,-0.00223888,-0.00384372
 ,-0.00049161,0.00026837,-0.00516128,0.00061937,-0.00072958,-0.00148220
 ,0.00082411,-0.00146242,-0.00123982,-0.11691561,0.03071560,0.06220991,
 -0.00399574,0.00559052,0.01477949,0.53078565,0.00027870,-0.00038701,-0
 .00010775,-0.00009501,0.00015383,-0.00020895,-0.00033197,-0.00102676,-
 0.00066059,-0.00285858,0.00001340,-0.00905477,0.00047018,-0.00047034,-
 0.00080949,0.00190244,-0.00326790,0.00012665,0.03332798,-0.10227535,-0
 .02727558,0.01264515,-0.00637919,-0.02202013,0.01298301,0.55288979,0.0
 0040116,-0.00006705,0.00021188,0.00011761,0.00006728,0.00028563,-0.000
 18701,-0.00100029,-0.00209034,-0.00648829,-0.00337214,-0.01759569,0.00
 147556,0.00052090,0.00010875,0.00295826,-0.00475750,0.00071634,0.06899
 155,-0.02877624,-0.13755844,-0.00319521,0.00376534,0.00793072,0.016811
 37,-0.04078385,0.49563440,0.00001681,0.00013173,-0.00004759,-0.0000394
 6,-0.00001938,-0.00000087,0.00007832,0.00026988,-0.00009591,-0.0002938
 5,-0.00105511,-0.00068906,0.00041720,0.00035441,0.00014203,0.00022959,
 0.00007546,0.00022034,-0.01093331,-0.01395223,0.00567266,0.00025532,-0
 .00003154,-0.00060815,-0.13439008,-0.10505858,0.06077497,0.14425219,-0
 .00003116,0.00008649,0.00002937,-0.00000068,-0.00002884,0.00001377,0.0
 0001780,0.00022981,0.00000118,-0.00000960,-0.00013992,-0.00051596,0.00
 011335,0.00015703,0.00003694,0.00033910,0.00001428,0.00024004,0.008262
 47,0.01123839,-0.00536984,-0.00037896,0.00069552,0.00063493,-0.1066191
 2,-0.18143352,0.07528243,0.11763085,0.19377968,-0.00008710,0.00004810,
 0.00003828,0.00002948,-0.00002829,-0.00005182,-0.00038772,-0.00025911,
 0.00050207,0.00184390,0.00132586,-0.00009343,-0.00035318,-0.00095438,-
 0.00029661,-0.00067311,-0.00016943,0.00015459,0.01372264,0.01978502,-0
 .01229994,-0.00084105,-0.00063737,0.00064196,0.05947955,0.07356537,-0.
 08646704,-0.06906140,-0.07964293,0.09511502,0.00002816,0.00009023,0.00
 011568,0.00002115,-0.00001199,0.00003438,-0.00003399,0.00006898,0.0000
 2238,-0.00066676,0.00024449,-0.00116565,0.00004344,0.00019159,0.000211
 64,0.00032075,-0.00121536,-0.00003097,-0.01048559,0.01472703,-0.006038
 79,-0.00088874,0.00049121,0.00275693,-0.13511635,0.11307667,-0.0483010
 6,0.01259473,-0.01470654,0.00633458,0.14463795,-0.00016760,0.00021129,
 -0.00011101,-0.00002549,-0.00002090,-0.00008550,-0.00030086,0.00008489
 ,0.00021191,0.00226124,-0.00184171,0.00142379,-0.00000831,0.00001870,0
 .00000461,-0.00132250,0.00205451,0.00039869,0.00838809,-0.01256851,0.0
 0059297,0.00169528,0.00072786,-0.00170422,0.11166491,-0.19367653,0.067
 70387,0.01310112,-0.01596973,0.00682029,-0.12645827,0.20994804,-0.0001
 2288,0.00006661,-0.00005770,-0.00006002,0.00000615,-0.00014198,-0.0003
 5938,0.00024610,0.00060700,0.00089895,-0.00098865,-0.00010721,0.000012
 34,0.00016289,0.00016541,-0.00026954,0.00069231,-0.00008860,0.01607245
 ,-0.02201666,0.00878314,0.00289379,-0.00166977,-0.00389299,-0.05034135
 ,0.06976768,-0.07485534,-0.00731155,0.00766455,-0.00457677,0.05237075,
 -0.07139735,0.08114372,-0.00007035,0.00007875,0.00001823,-0.00002139,-
 0.00000549,-0.00003001,-0.00004419,0.00055261,0.00046087,0.00013348,-0
 .00018313,0.00083832,0.00004359,0.00052706,0.00037593,0.00050635,-0.00
 027569,0.00003793,0.01048135,0.00626710,0.01267197,-0.00025938,-0.0003
 9079,-0.00115407,-0.13230765,-0.05156052,-0.10454779,-0.01145964,-0.00
 582374,-0.01337950,-0.01118229,-0.00748132,-0.01250200,0.14401724,0.00
 002018,0.00000832,0.00001518,-0.00000218,0.00005894,0.00003700,0.00005
 281,-0.00027182,-0.00110812,0.00138248,-0.00055812,0.00067976,0.000252
 76,0.00023220,0.00012666,-0.00037202,0.00099242,0.00016674,-0.00556146
 ,-0.00686136,-0.01083644,0.00073821,0.00027768,0.00079083,-0.05516072,
 -0.07435145,-0.06410168,-0.01350344,-0.00857277,-0.01693588,0.01391051
 ,0.00976533,0.01755884,0.05850419,0.07904237,0.00019390,-0.00015288,0.
 00004972,0.00000742,0.00009150,0.00006647,0.00006916,-0.00105370,-0.00
 148425,0.00178748,0.00160391,0.00035329,-0.00014782,-0.00020169,0.0002
 9596,0.00011086,-0.00050964,-0.00016776,-0.01229782,-0.01021361,-0.021
 52756,0.00066842,0.00007638,0.00056603,-0.11058998,-0.06370176,-0.1740
 7114,0.00761315,0.00433500,0.01006874,-0.00603076,-0.00367871,-0.00782
 489,0.11796220,0.07296098,0.19200184,0.00023367,-0.00035147,0.00028128
 ,-0.00000811,0.00005795,0.00034847,-0.00043615,0.00072500,0.00124690,-
 0.01701089,-0.00701890,-0.00606511,-0.00022764,-0.00084067,0.00000784,
 0.00096542,-0.00464231,0.00133669,-0.10988194,-0.04024511,0.04965567,0
 .01145393,0.01019583,-0.00630738,-0.01048071,-0.01068454,0.01095115,-0
 .00078488,0.00082329,0.00210252,0.00034449,-0.00140957,-0.00080837,0.0
 0011952,-0.00061067,-0.00037659,0.51497693,0.00033260,-0.00035341,-0.0
 0020643,-0.00005617,0.00007489,-0.00006596,-0.00042658,0.00010094,0.00
 045473,-0.01185043,-0.00361499,-0.00401287,0.00025320,-0.00002061,-0.0
 0021037,0.00111959,-0.00377494,0.00100756,-0.03950816,-0.14016157,0.04
 988568,-0.01891005,-0.01495306,0.01192807,0.00701202,0.01209004,-0.003
 75182,0.00290640,-0.00062132,-0.00354094,0.00037930,0.00055798,-0.0006
 3621,-0.00030773,0.00007511,0.00019386,-0.05221081,0.53100101,0.000636
 37,-0.00079045,-0.00005457,-0.00001368,0.00011038,0.00020127,0.0009276
 5,-0.00026769,-0.00053137,-0.00977385,-0.00116829,0.00204351,-0.001031
 71,-0.00151042,-0.00052854,-0.00054188,-0.00323453,0.00015007,0.043959
 79,0.04329306,-0.10648971,0.00644309,0.00558995,-0.00010981,0.02002318
 ,0.01864739,-0.01195371,0.00305829,-0.00187095,-0.00272825,-0.00100690
 ,-0.00015243,0.00075663,-0.00092783,0.00039937,0.00182054,0.00462340,0
 .02136631,0.54235259,-0.00003300,0.00002034,-0.00005167,-0.00000483,-0
 .00002189,-0.00007145,-0.00009243,0.00006710,0.00007014,0.00014138,-0.
 00021609,-0.00025845,0.00019431,0.00024552,0.00005588,-0.00026306,-0.0
 0003349,-0.00010980,0.01190885,-0.01863814,0.00666621,-0.00220137,-0.0
 0282395,0.00245183,0.00077537,-0.00046066,-0.00062624,0.00009191,0.000
 02062,-0.00025090,-0.00004937,0.00035266,-0.00001734,0.00006708,0.0000
 7504,-0.00018750,-0.12121000,0.11580591,-0.03878803,0.12985557,-0.0000
 5302,0.00019803,-0.00014957,-0.00002344,0.00000109,-0.00010791,-0.0006
 2921,-0.00012973,0.00028185,0.00195966,-0.00162466,0.00093336,0.000005
 76,0.00006999,-0.00008594,0.00013586,0.00246535,-0.00063638,0.01021275
 ,-0.02150170,0.00693511,-0.00282524,-0.00116938,0.00263040,0.00025140,
 0.00086121,-0.00145011,-0.00012220,0.00020426,-0.00032749,-0.00054841,
 0.00064354,0.00054169,0.00003590,0.00003136,-0.00009418,0.11215050,-0.
 21493179,0.05963571,-0.12158065,0.23564670,-0.00002261,0.00027895,0.00
 004380,0.00001443,-0.00001230,0.00000423,-0.00043641,-0.00017470,0.000
 10074,-0.00029357,-0.00030062,-0.00074085,-0.00000879,0.00015537,0.000
 04811,0.00011941,-0.00062161,0.00013629,-0.00936224,0.01276385,-0.0044
 6271,0.00244597,0.00170655,-0.00038037,-0.00140450,0.00006136,0.000205
 64,0.00005737,-0.00031451,0.00028502,0.00058208,-0.00014843,-0.0000576
 3,0.00008833,0.00007867,-0.00016073,-0.03704547,0.06105852,-0.07037974
 ,0.04120093,-0.06931601,0.07183487,0.00012202,0.00009042,-0.00007094,-
 0.00002921,-0.00006864,-0.00012242,0.00115711,-0.00033166,-0.00104332,
 -0.00074460,0.00065975,0.00294438,0.00000590,0.00004178,-0.00029066,0.
 00021326,0.00017517,-0.00083626,-0.01151652,0.00865410,0.01591864,0.00
 038744,-0.00042614,-0.00084407,-0.00128691,-0.00389357,0.00128594,-0.0
 0042056,0.00030790,0.00117362,0.00040132,-0.00013604,-0.00027297,0.000
 21487,0.00013316,0.00018411,-0.08939046,0.04886896,0.08669912,-0.00680
 346,0.00646688,0.01388515,0.09703087,-0.00004936,-0.00032871,0.0000768
 3,0.00002908,-0.00010530,0.00000427,0.00025291,-0.00056176,-0.00079661
 ,-0.00048439,0.00038490,0.00128217,0.00008114,0.00001317,-0.00010172,-
 0.00007351,0.00008900,-0.00019325,-0.00942796,0.01246621,0.01887061,0.
 00066049,0.00066821,-0.00040653,-0.00267871,-0.00310974,0.00115359,-0.
 00097257,0.00046250,0.00087290,-0.00027808,0.00004650,0.00001876,0.000
 20455,-0.00018321,-0.00009770,0.05039968,-0.09939641,-0.09285957,0.008
 66081,-0.01001988,-0.02081410,-0.05020598,0.10425902,-0.00012477,0.000
 34064,-0.00005803,-0.00001479,0.00000443,-0.00005032,-0.00149747,-0.00
 065724,0.00051651,0.00024238,-0.00105122,-0.00122966,0.00015787,0.0000
 5024,0.00006697,0.00015765,0.00005063,0.00033950,0.00609164,-0.0067576
 7,-0.01230141,-0.00032030,-0.00003498,0.00032206,0.00125100,0.00301722
 ,-0.00038413,0.00059950,-0.00052651,-0.00043667,0.00005597,-0.00002499
 ,0.00005635,-0.00027583,0.00006259,0.00034990,0.08945679,-0.09039832,-
 0.21919266,-0.00443674,0.00416848,0.00959675,-0.09881376,0.09974323,0.
 23764488,0.00015017,-0.00014674,-0.00000771,-0.00001124,0.00005226,0.0
 0003995,0.00079873,0.00004845,-0.00041056,-0.00104174,0.00058294,0.002
 19822,-0.00036378,-0.00035469,-0.00030852,0.00036600,-0.00079561,0.000
 14772,-0.01756422,-0.00846348,-0.00970314,0.00054254,-0.00008009,0.000
 44389,0.00101115,0.00025931,-0.00042197,0.00038570,0.00005443,0.000347
 67,0.00003109,-0.00015334,-0.00018288,-0.00023858,0.00014114,0.0010337
 7,-0.17866320,-0.05340806,-0.11428701,-0.01237694,-0.00543654,-0.00982
 008,0.01065893,0.00388187,0.00747088,0.19631540,0.00011858,-0.00015624
 ,0.00000524,0.00000194,0.00005364,0.00008907,-0.00015484,0.00011165,-0
 .00016625,-0.00017133,-0.00083287,0.00211926,-0.00042391,-0.00045177,-
 0.00029130,0.00008917,0.00110219,-0.00050526,-0.01721858,-0.01009828,-
 0.01178288,0.00122534,0.00061157,0.00083497,0.00072082,0.00036954,-0.0
 0043273,0.00024522,-0.00010184,0.00007828,0.00003864,0.00001873,-0.000
 01696,-0.00014176,0.00031502,0.00044222,-0.05633820,-0.06607188,-0.047
 18782,0.01852687,0.00925560,0.01559900,-0.01033609,-0.00468449,-0.0079
 8653,0.06381813,0.07055942,-0.00020746,0.00007868,0.00005769,0.0000135
 4,0.00001031,-0.00001141,-0.00077127,0.00000195,0.00029953,0.00230065,
 -0.00040884,-0.00045489,0.00014973,0.00034248,0.00015380,-0.00009684,0
 .00026372,0.00042470,0.01142043,0.00412886,0.00890245,-0.00075621,-0.0
 0052686,0.00019006,-0.00079036,-0.00056281,-0.00011754,-0.00032377,0.0
 0000251,0.00014485,0.00008974,0.00014652,0.00009085,0.00036325,0.00010
 551,-0.00033617,-0.10940779,-0.04307182,-0.13535626,-0.00564687,-0.002
 95900,-0.00607345,-0.01979654,-0.00675289,-0.01524003,0.12345977,0.049
 20169,0.14732581\\0.00000266,-0.00000050,-0.00001261,0.00000912,0.0000
 0852,0.00000047,-0.00000275,-0.00000191,-0.00000148,-0.00000374,0.0000
 0246,0.00000060,0.00000453,-0.00000459,0.00000367,-0.00000553,-0.00000
 814,0.00001134,0.00000131,0.00000008,0.00000048,0.00000700,0.00000178,
 -0.00000453,0.00000390,-0.00000508,0.00000391,0.00000990,-0.00000809,0
 .00000529,-0.00000101,-0.00000758,0.00000802,0.00000588,-0.00000323,0.
 00000127,-0.00000589,0.00000501,-0.00000446,-0.00001178,0.00000333,-0.
 00000011,-0.00000790,0.00000916,-0.00000541,-0.00000570,0.00000877,-0.
 00000645\\\@


 NO SCIENCE HAS EVER MADE MORE RAPID PROGRESS IN A
 SHORTER TIME THAN CHEMISTRY.
   -- MARTIN HEINRICH KLOPROTH, 1791
 (FIRST PROFESSOR OF CHEMISTRY AT THE UNIVERSITY OF BERLIN)
 Job cpu time:  0 days  1 hours 16 minutes 11.4 seconds.
 File lengths (MBytes):  RWF=    125 Int=      0 D2E=      0 Chk=      8 Scr=      1
 Normal termination of Gaussian 03 at Wed Jul  9 00:02:09 2014.
