 Entering Gaussian System, Link 0=g03
 Input=TS16freq.gjf
 Output=TS16freq.log
 Initial command:
 /opt/g03/l1.exe /scratch/goldmanm/Gau-13768.inp -scrdir=/scratch/goldmanm/
 Entering Link 1 = /opt/g03/l1.exe PID=     13770.
  
 Copyright (c) 1988,1990,1992,1993,1995,1998,2003,2004, Gaussian, Inc.
                  All Rights Reserved.
  
 This is the Gaussian(R) 03 program.  It is based on the
 the Gaussian(R) 98 system (copyright 1998, Gaussian, Inc.),
 the Gaussian(R) 94 system (copyright 1995, Gaussian, Inc.),
 the Gaussian 92(TM) system (copyright 1992, Gaussian, Inc.),
 the Gaussian 90(TM) system (copyright 1990, Gaussian, Inc.),
 the Gaussian 88(TM) system (copyright 1988, Gaussian, Inc.),
 the Gaussian 86(TM) system (copyright 1986, Carnegie Mellon
 University), and the Gaussian 82(TM) system (copyright 1983,
 Carnegie Mellon University). Gaussian is a federally registered
 trademark of Gaussian, Inc.
  
 This software contains proprietary and confidential information,
 including trade secrets, belonging to Gaussian, Inc.
  
 This software is provided under written license and may be
 used, copied, transmitted, or stored only in accord with that
 written license.
  
 The following legend is applicable only to US Government
 contracts under FAR:
  
                    RESTRICTED RIGHTS LEGEND
  
 Use, reproduction and disclosure by the US Government is
 subject to restrictions as set forth in subparagraphs (a)
 and (c) of the Commercial Computer Software - Restricted
 Rights clause in FAR 52.227-19.
  
 Gaussian, Inc.
 340 Quinnipiac St., Bldg. 40, Wallingford CT 06492
  
  
 ---------------------------------------------------------------
 Warning -- This program may not be used in any manner that
 competes with the business of Gaussian, Inc. or will provide
 assistance to any competitor of Gaussian, Inc.  The licensee
 of this program is prohibited from giving any competitor of
 Gaussian, Inc. access to this program.  By using this program,
 the user acknowledges that Gaussian, Inc. is engaged in the
 business of creating and licensing software in the field of
 computational chemistry and represents and warrants to the
 licensee that it is not a competitor of Gaussian, Inc. and that
 it will not use this program in any manner prohibited above.
 ---------------------------------------------------------------
  

 Cite this work as:
 Gaussian 03, Revision D.01,
 M. J. Frisch, G. W. Trucks, H. B. Schlegel, G. E. Scuseria, 
 M. A. Robb, J. R. Cheeseman, J. A. Montgomery, Jr., T. Vreven, 
 K. N. Kudin, J. C. Burant, J. M. Millam, S. S. Iyengar, J. Tomasi, 
 V. Barone, B. Mennucci, M. Cossi, G. Scalmani, N. Rega, 
 G. A. Petersson, H. Nakatsuji, M. Hada, M. Ehara, K. Toyota, 
 R. Fukuda, J. Hasegawa, M. Ishida, T. Nakajima, Y. Honda, O. Kitao, 
 H. Nakai, M. Klene, X. Li, J. E. Knox, H. P. Hratchian, J. B. Cross, 
 V. Bakken, C. Adamo, J. Jaramillo, R. Gomperts, R. E. Stratmann, 
 O. Yazyev, A. J. Austin, R. Cammi, C. Pomelli, J. W. Ochterski, 
 P. Y. Ayala, K. Morokuma, G. A. Voth, P. Salvador, J. J. Dannenberg, 
 V. G. Zakrzewski, S. Dapprich, A. D. Daniels, M. C. Strain, 
 O. Farkas, D. K. Malick, A. D. Rabuck, K. Raghavachari, 
 J. B. Foresman, J. V. Ortiz, Q. Cui, A. G. Baboul, S. Clifford, 
 J. Cioslowski, B. B. Stefanov, G. Liu, A. Liashenko, P. Piskorz, 
 I. Komaromi, R. L. Martin, D. J. Fox, T. Keith, M. A. Al-Laham, 
 C. Y. Peng, A. Nanayakkara, M. Challacombe, P. M. W. Gill, 
 B. Johnson, W. Chen, M. W. Wong, C. Gonzalez, and J. A. Pople, 
 Gaussian, Inc., Wallingford CT, 2004.
 
 ******************************************
 Gaussian 03:  AM64L-G03RevD.01 13-Oct-2005
                26-Jun-2019 
 ******************************************
 %chk=input.chk
 %mem=1500mb
 %nproc=8
 Will use up to    8 processors via shared memory.
 -------------------------------------
 # freq nosymm b3lyp/cbsb7 iop(7/33=1)
 -------------------------------------
 1/10=4,30=1,38=1/1,3;
 2/15=1,17=6,18=5,40=1/2;
 3/5=4,6=6,7=700,11=2,16=1,25=1,30=1,74=-5/1,2,3;
 4//1;
 5/5=2,38=5/2;
 8/6=4,10=90,11=11/1;
 11/6=1,8=1,9=11,15=111,16=1,31=1/1,2,10;
 10/6=1,31=1/2;
 6/7=2,8=2,9=2,10=2,18=1,28=1/1;
 7/8=1,10=1,25=1,30=1,33=1/1,2,3,16;
 1/10=4,30=1/3;
 99//99;
 -------
 NBO NRT
 -------
 Symbolic Z-matrix:
 Charge =  0 Multiplicity = 2
 C                     1.1603   -0.8641    2.18801 
 H                     2.13202  -0.45425   1.89039 
 H                     1.13471  -0.8831    3.29043 
 C                     0.01697  -0.00497   1.72218 
 H                    -0.95784  -0.48176   1.78065 
 C                     0.07973   1.45808   2.03751 
 H                     0.02606   1.61163   3.12524 
 H                    -0.75233   2.01035   1.59696 
 H                     1.01873   1.9082    1.701 
 C                     0.00909  -0.06916  -0.4579 
 H                     1.08126   0.19061  -0.43512 
 H                    -0.68814   0.78069  -0.53448 
 O                    -0.36517  -1.21176  -0.75799 
 O                     1.08067  -2.22883   1.81852 
 O                     1.71752  -2.39      0.526 
 H                     0.95652  -2.25118  -0.07959 
 

 GradGradGradGradGradGradGradGradGradGradGradGradGradGradGradGradGradGrad
 Berny optimization.
 Initialization pass.
 Trust Radius=3.00D-01 FncErr=1.00D-07 GrdErr=1.00D-07
 Number of steps in this run=   2 maximum allowed number of steps=   2.
 GradGradGradGradGradGradGradGradGradGradGradGradGradGradGradGradGradGrad

                          Input orientation:                          
 ---------------------------------------------------------------------
 Center     Atomic     Atomic              Coordinates (Angstroms)
 Number     Number      Type              X           Y           Z
 ---------------------------------------------------------------------
    1          6             0        1.160300   -0.864100    2.188010
    2          1             0        2.132020   -0.454250    1.890390
    3          1             0        1.134710   -0.883100    3.290430
    4          6             0        0.016970   -0.004970    1.722180
    5          1             0       -0.957840   -0.481760    1.780650
    6          6             0        0.079730    1.458080    2.037510
    7          1             0        0.026060    1.611630    3.125240
    8          1             0       -0.752330    2.010350    1.596960
    9          1             0        1.018730    1.908200    1.701000
   10          6             0        0.009090   -0.069160   -0.457900
   11          1             0        1.081260    0.190610   -0.435120
   12          1             0       -0.688140    0.780690   -0.534480
   13          8             0       -0.365170   -1.211760   -0.757990
   14          8             0        1.080670   -2.228830    1.818520
   15          8             0        1.717520   -2.390000    0.526000
   16          1             0        0.956520   -2.251180   -0.079590
 ---------------------------------------------------------------------
                    Distance matrix (angstroms):
                    1          2          3          4          5
     1  C    0.000000
     2  H    1.095808   0.000000
     3  H    1.102881   1.771624   0.000000
     4  C    1.504096   2.168775   2.116569   0.000000
     5  H    2.190581   3.091931   2.611374   1.086739   0.000000
     6  C    2.565697   2.809011   2.857257   1.497961   2.214838
     7  H    2.879955   3.198090   2.734972   2.140574   2.675493
     8  H    3.502850   3.805237   3.847183   2.160791   2.507307
     9  H    2.818309   2.618483   3.214202   2.159674   3.102432
    10  C    2.993001   3.188980   3.997436   2.181039   2.473115
    11  H    2.828334   2.632098   3.877555   2.413485   3.085393
    12  H    3.678861   3.918976   4.552023   2.491376   2.650725
    13  O    3.335692   3.718023   4.329822   2.784532   2.707185
    14  O    1.416104   2.063889   1.995101   2.467041   2.684997
    15  O    2.324036   2.404267   3.201951   3.164030   3.517539
    16  H    2.665995   2.914031   3.641487   3.028958   3.202517
                    6          7          8          9         10
     6  C    0.000000
     7  H    1.099825   0.000000
     8  H    1.091517   1.760826   0.000000
     9  H    1.094334   1.761195   1.777052   0.000000
    10  C    2.926521   3.957807   3.021022   3.096801   0.000000
    11  H    2.953547   3.976042   3.286770   2.741721   1.103426
    12  H    2.768323   3.820222   2.461548   3.030191   1.101925
    13  O    3.891118   4.817060   4.009698   4.206657   1.239217
    14  O    3.826636   4.191521   4.623811   4.139162   3.315803
    15  O    4.446880   5.062621   5.158507   4.510372   3.045175
    16  H    4.359987   5.104703   4.887906   4.524910   2.408724
                   11         12         13         14         15
    11  H    0.000000
    12  H    1.867845   0.000000
    13  O    2.040354   2.030794   0.000000
    14  O    3.306446   4.209811   3.124626   0.000000
    15  O    2.826327   4.118870   2.715599   1.449883   0.000000
    16  H    2.470688   3.479090   1.813142   1.902297   0.982411
                   16
    16  H    0.000000
 Symmetry turned off by external request.
 Stoichiometry    C4H9O3(2)
 Framework group  C1[X(C4H9O3)]
 Deg. of freedom    42
 Full point group                 C1
 Rotational constants (GHZ):      2.9328162      2.1870574      1.3839471
 Standard basis: CBSB7 (5D, 7F)
 Integral buffers will be    131072 words long.
 Raffenetti 2 integral format.
 Two-electron integral symmetry is turned off.
   180 basis functions,   296 primitive gaussians,   187 cartesian basis functions
    29 alpha electrons       28 beta electrons
       nuclear repulsion energy       322.8663896785 Hartrees.
 NAtoms=   16 NActive=   16 NUniq=   16 SFac= 7.50D-01 NAtFMM=   80 NAOKFM=F Big=F
 One-electron integrals computed using PRISM.
 NBasis=   180 RedAO= T  NBF=   180
 NBsUse=   180 1.00D-06 NBFU=   180
 Harris functional with IExCor=  402 diagonalized for initial guess.
 ExpMin= 1.03D-01 ExpMax= 8.59D+03 ExpMxC= 1.30D+03 IAcc=1 IRadAn=         1 AccDes= 1.00D-06
 HarFok:  IExCor= 402 AccDes= 1.00D-06 IRadAn=         1 IDoV=1
 ScaDFX=  1.000000  1.000000  1.000000  1.000000
 <S**2> of initial guess= 0.7500
 Requested convergence on RMS density matrix=1.00D-08 within 128 cycles.
 Requested convergence on MAX density matrix=1.00D-06.
 Requested convergence on             energy=1.00D-06.
 No special actions if energy rises.
 Integral accuracy reduced to 1.0D-05 until final iterations.
 Initial convergence to 1.0D-05 achieved.  Increase integral accuracy.
 SCF Done:  E(UB+HF-LYP) =  -383.437476506     A.U. after   18 cycles
             Convg  =    0.9369D-08             -V/T =  2.0033
             S**2   =   0.7634
 Annihilation of the first spin contaminant:
 S**2 before annihilation     0.7634,   after     0.7501
 Range of M.O.s used for correlation:     1   180
 NBasis=   180 NAE=    29 NBE=    28 NFC=     0 NFV=     0
 NROrb=    180 NOA=    29 NOB=    28 NVA=   151 NVB=   152
 Symmetrizing basis deriv contribution to polar:
 IMax=3 JMax=2 DiffMx= 0.00D+00
 G2DrvN: will do   17 centers at a time, making    1 passes doing MaxLOS=2.
 FoFDir/FoFCou used for L=0 through L=2.
 DoAtom=TTTTTTTTTTTTTTTT
          Differentiating once with respect to electric field.
                with respect to dipole field.
          Differentiating once with respect to nuclear coordinates.
 Symmetry not used in FoFDir.
 MinBra= 0 MaxBra= 2 Meth= 1.
 IRaf=       0 NMat=  51 IRICut=      51 DoRegI=T DoRafI=T ISym2E= 0 JSym2E=0.
          There are  51 degrees of freedom in the 1st order CPHF.
    48 vectors were produced by pass  0.
 AX will form  48 AO Fock derivatives at one time.
    48 vectors were produced by pass  1.
    48 vectors were produced by pass  2.
    48 vectors were produced by pass  3.
    48 vectors were produced by pass  4.
    48 vectors were produced by pass  5.
    34 vectors were produced by pass  6.
     4 vectors were produced by pass  7.
     3 vectors were produced by pass  8.
 Inv2:  IOpt= 1 Iter= 1 AM= 2.51D-15 Conv= 1.00D-12.
 Inverted reduced A of dimension  329 with in-core refinement.
 Isotropic polarizability for W=    0.000000       64.15 Bohr**3.
 End of Minotr Frequency-dependent properties file   721 does not exist.

 **********************************************************************

            Population analysis using the SCF density.

 **********************************************************************

 Alpha  occ. eigenvalues --  -19.17140 -19.14894 -19.13100 -10.26322 -10.23915
 Alpha  occ. eigenvalues --  -10.22926 -10.19959  -1.11160  -1.05415  -0.90871
 Alpha  occ. eigenvalues --   -0.81528  -0.70135  -0.65109  -0.60647  -0.53594
 Alpha  occ. eigenvalues --   -0.51037  -0.48687  -0.47231  -0.46225  -0.44390
 Alpha  occ. eigenvalues --   -0.43282  -0.42608  -0.41236  -0.38461  -0.37350
 Alpha  occ. eigenvalues --   -0.28698  -0.28414  -0.26866  -0.24142
 Alpha virt. eigenvalues --   -0.01384   0.02023   0.02663   0.05584   0.06415
 Alpha virt. eigenvalues --    0.07414   0.09842   0.10710   0.11913   0.13520
 Alpha virt. eigenvalues --    0.14528   0.16590   0.19738   0.20710   0.23820
 Alpha virt. eigenvalues --    0.29741   0.30915   0.33328   0.35256   0.38316
 Alpha virt. eigenvalues --    0.38955   0.39599   0.41484   0.45809   0.49576
 Alpha virt. eigenvalues --    0.51042   0.53041   0.53334   0.54082   0.54848
 Alpha virt. eigenvalues --    0.56357   0.57783   0.58359   0.59777   0.61043
 Alpha virt. eigenvalues --    0.62174   0.65063   0.75704   0.76709   0.79788
 Alpha virt. eigenvalues --    0.83439   0.85681   0.88462   0.90226   0.92018
 Alpha virt. eigenvalues --    0.92922   0.95647   0.99116   1.04042   1.05785
 Alpha virt. eigenvalues --    1.10894   1.17207   1.18716   1.20635   1.29742
 Alpha virt. eigenvalues --    1.31975   1.36314   1.37293   1.37765   1.40881
 Alpha virt. eigenvalues --    1.42257   1.43896   1.47360   1.48508   1.51163
 Alpha virt. eigenvalues --    1.51809   1.53475   1.54743   1.55900   1.57003
 Alpha virt. eigenvalues --    1.59480   1.59793   1.64819   1.67115   1.67655
 Alpha virt. eigenvalues --    1.72520   1.75476   1.81246   1.83368   1.84913
 Alpha virt. eigenvalues --    1.88292   1.95969   1.99408   2.01813   2.05093
 Alpha virt. eigenvalues --    2.06437   2.11957   2.14470   2.20571   2.24815
 Alpha virt. eigenvalues --    2.30264   2.33061   2.34818   2.36846   2.38703
 Alpha virt. eigenvalues --    2.40713   2.43652   2.44864   2.47032   2.49449
 Alpha virt. eigenvalues --    2.53064   2.53913   2.57472   2.58521   2.60787
 Alpha virt. eigenvalues --    2.67276   2.71646   2.74357   2.76176   2.77464
 Alpha virt. eigenvalues --    2.80867   2.87817   2.89389   2.93574   2.98312
 Alpha virt. eigenvalues --    2.99196   3.06293   3.14955   3.18802   3.26749
 Alpha virt. eigenvalues --    3.28488   3.28854   3.31256   3.39495   3.45576
 Alpha virt. eigenvalues --    3.59421   3.68124   3.72954   3.76459   3.77572
 Alpha virt. eigenvalues --    3.82476   3.87197   3.90520   4.01166   4.20892
 Alpha virt. eigenvalues --    4.69474   4.86103   4.89284   4.90829   5.02890
 Alpha virt. eigenvalues --    5.23302   5.39193   5.55306   5.70935  23.73835
 Alpha virt. eigenvalues --   23.80309  23.83996  23.89523  49.79840  49.83508
 Alpha virt. eigenvalues --   49.92929
  Beta  occ. eigenvalues --  -19.17131 -19.14891 -19.12225 -10.26445 -10.23954
  Beta  occ. eigenvalues --  -10.21866 -10.19997  -1.11122  -1.03887  -0.90752
  Beta  occ. eigenvalues --   -0.80202  -0.69818  -0.64231  -0.59463  -0.53485
  Beta  occ. eigenvalues --   -0.50591  -0.47944  -0.46903  -0.45436  -0.43576
  Beta  occ. eigenvalues --   -0.42773  -0.42250  -0.39592  -0.37239  -0.36508
  Beta  occ. eigenvalues --   -0.28381  -0.28213  -0.26364
  Beta virt. eigenvalues --   -0.12706   0.01421   0.02283   0.02711   0.05683
  Beta virt. eigenvalues --    0.06650   0.07806   0.10136   0.11017   0.12056
  Beta virt. eigenvalues --    0.13719   0.14618   0.16777   0.20393   0.21028
  Beta virt. eigenvalues --    0.24351   0.30056   0.31207   0.33680   0.35670
  Beta virt. eigenvalues --    0.39349   0.39682   0.39889   0.41744   0.46141
  Beta virt. eigenvalues --    0.49820   0.51654   0.53474   0.54197   0.54493
  Beta virt. eigenvalues --    0.55247   0.56876   0.58242   0.58634   0.60082
  Beta virt. eigenvalues --    0.61399   0.62297   0.65266   0.75947   0.77021
  Beta virt. eigenvalues --    0.80078   0.83964   0.86250   0.89168   0.90803
  Beta virt. eigenvalues --    0.92687   0.93462   0.96462   0.99349   1.04194
  Beta virt. eigenvalues --    1.06299   1.11376   1.17398   1.19027   1.21138
  Beta virt. eigenvalues --    1.30346   1.33022   1.36710   1.37773   1.38651
  Beta virt. eigenvalues --    1.41134   1.42553   1.44209   1.47818   1.49266
  Beta virt. eigenvalues --    1.51661   1.52238   1.54278   1.55305   1.56298
  Beta virt. eigenvalues --    1.57265   1.59703   1.60162   1.65112   1.67490
  Beta virt. eigenvalues --    1.68249   1.72856   1.75780   1.81748   1.84033
  Beta virt. eigenvalues --    1.85350   1.88833   1.96824   2.00402   2.02336
  Beta virt. eigenvalues --    2.05913   2.07240   2.12283   2.14898   2.20997
  Beta virt. eigenvalues --    2.25152   2.30642   2.33662   2.35262   2.37407
  Beta virt. eigenvalues --    2.38965   2.41023   2.43984   2.45228   2.47308
  Beta virt. eigenvalues --    2.49569   2.53407   2.54373   2.58068   2.59056
  Beta virt. eigenvalues --    2.60974   2.67684   2.71959   2.74718   2.76745
  Beta virt. eigenvalues --    2.78494   2.81155   2.88325   2.90511   2.95242
  Beta virt. eigenvalues --    2.99187   3.00940   3.07201   3.15438   3.19547
  Beta virt. eigenvalues --    3.26925   3.28964   3.29692   3.32850   3.40206
  Beta virt. eigenvalues --    3.45870   3.59533   3.68258   3.73222   3.76664
  Beta virt. eigenvalues --    3.77653   3.82716   3.87677   3.90675   4.02035
  Beta virt. eigenvalues --    4.21781   4.69496   4.86138   4.90233   4.93367
  Beta virt. eigenvalues --    5.03771   5.23351   5.39234   5.55902   5.71005
  Beta virt. eigenvalues --   23.74434  23.80650  23.84100  23.89487  49.79877
  Beta virt. eigenvalues --   49.83551  49.93744
          Condensed to atoms (all electrons):
              1          2          3          4          5          6
     1  C    4.767178   0.397274   0.382054   0.311647  -0.036494  -0.044294
     2  H    0.397274   0.581835  -0.024162  -0.067650   0.008450   0.004797
     3  H    0.382054  -0.024162   0.581040  -0.051876  -0.003734  -0.000603
     4  C    0.311647  -0.067650  -0.051876   5.525353   0.377706   0.260046
     5  H   -0.036494   0.008450  -0.003734   0.377706   0.529523  -0.027570
     6  C   -0.044294   0.004797  -0.000603   0.260046  -0.027570   4.905742
     7  H   -0.002919  -0.000919   0.004785  -0.032317  -0.003837   0.388428
     8  H    0.006133  -0.000174  -0.000541  -0.028506  -0.006706   0.400189
     9  H   -0.004782   0.004364  -0.001141  -0.042027   0.007437   0.406077
    10  C   -0.020622  -0.005794   0.003032   0.105546  -0.016815  -0.019766
    11  H   -0.008440   0.003194   0.000103  -0.022974   0.007678  -0.003351
    12  H    0.003104   0.000102  -0.000124  -0.016421  -0.007786   0.001670
    13  O   -0.000168   0.000279  -0.000242  -0.030205   0.005338   0.001363
    14  O    0.250699  -0.029643  -0.022326  -0.042903   0.005761   0.004104
    15  O   -0.058494   0.008952   0.006301  -0.006805  -0.000210  -0.000106
    16  H    0.002923   0.000189  -0.001463   0.001739  -0.000451   0.000266
              7          8          9         10         11         12
     1  C   -0.002919   0.006133  -0.004782  -0.020622  -0.008440   0.003104
     2  H   -0.000919  -0.000174   0.004364  -0.005794   0.003194   0.000102
     3  H    0.004785  -0.000541  -0.001141   0.003032   0.000103  -0.000124
     4  C   -0.032317  -0.028506  -0.042027   0.105546  -0.022974  -0.016421
     5  H   -0.003837  -0.006706   0.007437  -0.016815   0.007678  -0.007786
     6  C    0.388428   0.400189   0.406077  -0.019766  -0.003351   0.001670
     7  H    0.569400  -0.026549  -0.030368   0.002449  -0.000629  -0.000123
     8  H   -0.026549   0.552683  -0.026811  -0.003164  -0.001061   0.006587
     9  H   -0.030368  -0.026811   0.565270  -0.003406   0.004493  -0.001661
    10  C    0.002449  -0.003164  -0.003406   4.716858   0.372961   0.372247
    11  H   -0.000629  -0.001061   0.004493   0.372961   0.681269  -0.080235
    12  H   -0.000123   0.006587  -0.001661   0.372247  -0.080235   0.667716
    13  O   -0.000114   0.000046   0.000061   0.455988  -0.054180  -0.040101
    14  O   -0.000040  -0.000196   0.000064  -0.002150  -0.001271   0.000056
    15  O    0.000007   0.000000  -0.000202   0.010810   0.011046  -0.000021
    16  H    0.000002   0.000033   0.000036  -0.015973  -0.010916   0.003331
             13         14         15         16
     1  C   -0.000168   0.250699  -0.058494   0.002923
     2  H    0.000279  -0.029643   0.008952   0.000189
     3  H   -0.000242  -0.022326   0.006301  -0.001463
     4  C   -0.030205  -0.042903  -0.006805   0.001739
     5  H    0.005338   0.005761  -0.000210  -0.000451
     6  C    0.001363   0.004104  -0.000106   0.000266
     7  H   -0.000114  -0.000040   0.000007   0.000002
     8  H    0.000046  -0.000196   0.000000   0.000033
     9  H    0.000061   0.000064  -0.000202   0.000036
    10  C    0.455988  -0.002150   0.010810  -0.015973
    11  H   -0.054180  -0.001271   0.011046  -0.010916
    12  H   -0.040101   0.000056  -0.000021   0.003331
    13  O    7.956065   0.002383  -0.023828   0.063416
    14  O    0.002383   8.016146   0.084342  -0.032044
    15  O   -0.023828   0.084342   7.973308   0.279489
    16  H    0.063416  -0.032044   0.279489   0.428267
 Mulliken atomic charges:
              1
     1  C    0.055200
     2  H    0.118907
     3  H    0.128896
     4  C   -0.240353
     5  H    0.161709
     6  C   -0.276993
     7  H    0.132745
     8  H    0.128039
     9  H    0.122595
    10  C    0.047797
    11  H    0.102311
    12  H    0.091660
    13  O   -0.336100
    14  O   -0.232981
    15  O   -0.284590
    16  H    0.281157
 Sum of Mulliken charges=   0.00000
 Atomic charges with hydrogens summed into heavy atoms:
              1
     1  C    0.303004
     2  H    0.000000
     3  H    0.000000
     4  C   -0.078644
     5  H    0.000000
     6  C    0.106385
     7  H    0.000000
     8  H    0.000000
     9  H    0.000000
    10  C    0.241768
    11  H    0.000000
    12  H    0.000000
    13  O   -0.336100
    14  O   -0.232981
    15  O   -0.003433
    16  H    0.000000
 Sum of Mulliken charges=   0.00000
          Atomic-Atomic Spin Densities.
              1          2          3          4          5          6
     1  C   -0.022892   0.005458   0.010418  -0.041243   0.001763   0.005574
     2  H    0.005458   0.009975  -0.006264  -0.005980   0.000575   0.001892
     3  H    0.010418  -0.006264   0.062264  -0.018648  -0.003882  -0.003170
     4  C   -0.041243  -0.005980  -0.018648   0.859895  -0.015440  -0.049236
     5  H    0.001763   0.000575  -0.003882  -0.015440  -0.013503   0.007394
     6  C    0.005574   0.001892  -0.003170  -0.049236   0.007394  -0.016500
     7  H   -0.000563  -0.001085   0.005737  -0.011785  -0.004292  -0.001766
     8  H    0.000222   0.000144  -0.000353  -0.008367   0.001981   0.006731
     9  H    0.001687   0.001025  -0.001395  -0.012411   0.000933   0.008922
    10  C   -0.002909  -0.000744   0.000856   0.074447  -0.004190  -0.006246
    11  H    0.002654   0.001378  -0.000600  -0.030834   0.001352   0.003418
    12  H    0.000399   0.000103  -0.000100  -0.014722   0.001372   0.001952
    13  O    0.001888   0.000324  -0.000385  -0.034905   0.005142   0.000992
    14  O    0.003896   0.001286  -0.003401  -0.001402   0.000530   0.000138
    15  O   -0.000715  -0.000738   0.000582   0.002184  -0.000263  -0.000054
    16  H    0.000332   0.000199  -0.000178  -0.001731   0.000272   0.000056
              7          8          9         10         11         12
     1  C   -0.000563   0.000222   0.001687  -0.002909   0.002654   0.000399
     2  H   -0.001085   0.000144   0.001025  -0.000744   0.001378   0.000103
     3  H    0.005737  -0.000353  -0.001395   0.000856  -0.000600  -0.000100
     4  C   -0.011785  -0.008367  -0.012411   0.074447  -0.030834  -0.014722
     5  H   -0.004292   0.001981   0.000933  -0.004190   0.001352   0.001372
     6  C   -0.001766   0.006731   0.008922  -0.006246   0.003418   0.001952
     7  H    0.079591  -0.007349  -0.010303   0.000759  -0.000622  -0.000423
     8  H   -0.007349   0.008754   0.003086  -0.000665   0.000646   0.000927
     9  H   -0.010303   0.003086   0.016107  -0.000669   0.001819   0.000693
    10  C    0.000759  -0.000665  -0.000669  -0.071120   0.002446   0.004250
    11  H   -0.000622   0.000646   0.001819   0.002446   0.029473   0.004616
    12  H   -0.000423   0.000927   0.000693   0.004250   0.004616   0.005354
    13  O   -0.000131   0.000180   0.000163  -0.049517   0.001866   0.001339
    14  O   -0.000072   0.000008   0.000045  -0.000281   0.000225   0.000000
    15  O    0.000015  -0.000004  -0.000026   0.001117  -0.000813  -0.000017
    16  H   -0.000015   0.000005   0.000023  -0.000508   0.001040  -0.000048
             13         14         15         16
     1  C    0.001888   0.003896  -0.000715   0.000332
     2  H    0.000324   0.001286  -0.000738   0.000199
     3  H   -0.000385  -0.003401   0.000582  -0.000178
     4  C   -0.034905  -0.001402   0.002184  -0.001731
     5  H    0.005142   0.000530  -0.000263   0.000272
     6  C    0.000992   0.000138  -0.000054   0.000056
     7  H   -0.000131  -0.000072   0.000015  -0.000015
     8  H    0.000180   0.000008  -0.000004   0.000005
     9  H    0.000163   0.000045  -0.000026   0.000023
    10  C   -0.049517  -0.000281   0.001117  -0.000508
    11  H    0.001866   0.000225  -0.000813   0.001040
    12  H    0.001339   0.000000  -0.000017  -0.000048
    13  O    0.393521   0.000008  -0.000482  -0.001061
    14  O    0.000008   0.002643  -0.001151   0.000050
    15  O   -0.000482  -0.001151   0.001388   0.000293
    16  H   -0.001061   0.000050   0.000293  -0.000296
 Mulliken atomic spin densities:
              1
     1  C   -0.034031
     2  H    0.007547
     3  H    0.041481
     4  C    0.689821
     5  H   -0.020257
     6  C   -0.039902
     7  H    0.047695
     8  H    0.005945
     9  H    0.009699
    10  C   -0.052975
    11  H    0.018067
    12  H    0.005695
    13  O    0.318943
    14  O    0.002522
    15  O    0.001315
    16  H   -0.001565
 Sum of Mulliken spin densities=   1.00000
 APT atomic charges:
              1
     1  C    0.313956
     2  H   -0.007504
     3  H   -0.018572
     4  C    0.105985
     5  H   -0.024198
     6  C   -0.016697
     7  H   -0.001884
     8  H    0.008564
     9  H    0.007897
    10  C    0.678665
    11  H   -0.054462
    12  H   -0.061769
    13  O   -0.651809
    14  O   -0.306609
    15  O   -0.325025
    16  H    0.353462
 Sum of APT charges=   0.00000
 APT Atomic charges with hydrogens summed into heavy atoms:
              1
     1  C    0.287880
     2  H    0.000000
     3  H    0.000000
     4  C    0.081788
     5  H    0.000000
     6  C   -0.002121
     7  H    0.000000
     8  H    0.000000
     9  H    0.000000
    10  C    0.562434
    11  H    0.000000
    12  H    0.000000
    13  O   -0.651809
    14  O   -0.306609
    15  O    0.028437
    16  H    0.000000
 Sum of APT charges=   0.00000
 Electronic spatial extent (au):  <R**2>=  1258.7292
 Charge=     0.0000 electrons
 Dipole moment (field-independent basis, Debye):
    X=    -0.6499    Y=     4.7709    Z=     1.6132  Tot=     5.0780
 Quadrupole moment (field-independent basis, Debye-Ang):
   XX=   -45.9018   YY=   -52.5426   ZZ=   -38.7495
   XY=     4.3270   XZ=    -1.4469   YZ=     3.8011
 Traceless Quadrupole moment (field-independent basis, Debye-Ang):
   XX=    -0.1705   YY=    -6.8113   ZZ=     6.9818
   XY=     4.3270   XZ=    -1.4469   YZ=     3.8011
 Octapole moment (field-independent basis, Debye-Ang**2):
  XXX=   -73.9345  YYY=   106.0048  ZZZ=  -119.7043  XYY=   -37.3511
  XXY=    39.0285  XXZ=   -45.6403  XZZ=   -19.5154  YZZ=    33.9147
  YYZ=   -57.3886  XYZ=     7.1946
 Hexadecapole moment (field-independent basis, Debye-Ang**3):
 XXXX=  -280.9101 YYYY=  -662.5074 ZZZZ=  -633.1726 XXXY=   141.9396
 XXXZ=  -108.9354 YYYX=   159.9726 YYYZ=    78.8291 ZZZX=   -97.4819
 ZZZY=    46.4447 XXYY=  -174.4940 XXZZ=  -156.8581 YYZZ=  -233.2717
 XXYZ=    20.2924 YYXZ=   -56.1642 ZZXY=    43.0901
 N-N= 3.228663896785D+02 E-N=-1.545143685990D+03  KE= 3.821695318899D+02
  Exact polarizability:  52.705  -3.904  65.640   3.513   8.849  74.119
 Approx polarizability:  75.844   0.828  91.725   3.572  15.364 109.251
                          Isotropic Fermi Contact Couplings
        Atom                 a.u.       MegaHertz       Gauss      10(-4) cm-1
     1  C(13)             -0.01761     -19.80111      -7.06553      -6.60494
     2  H(1)               0.00436      19.50906       6.96132       6.50752
     3  H(1)               0.01989      88.91832      31.72827      29.65996
     4  C(13)              0.09922     111.53777      39.79945      37.20500
     5  H(1)              -0.00595     -26.58210      -9.48516      -8.86684
     6  C(13)             -0.01476     -16.59672      -5.92212      -5.53607
     7  H(1)               0.02156      96.34930      34.37982      32.13867
     8  H(1)               0.00302      13.50876       4.82026       4.50604
     9  H(1)               0.00455      20.34827       7.26077       6.78745
    10  C(13)             -0.02157     -24.24444      -8.65102      -8.08708
    11  H(1)               0.00992      44.35379      15.82653      14.79483
    12  H(1)               0.00375      16.75820       5.97974       5.58994
    13  O(17)              0.02686     -16.28104      -5.80948      -5.43077
    14  O(17)              0.00458      -2.77748      -0.99107      -0.92647
    15  O(17)              0.00156      -0.94604      -0.33757      -0.31557
    16  H(1)               0.00017       0.77925       0.27806       0.25993
 --------------------------------------------------------
       Center         ----  Spin Dipole Couplings  ----
                      3XX-RR        3YY-RR        3ZZ-RR
 --------------------------------------------------------
     1   Atom       -0.004795      0.001307      0.003488
     2   Atom        0.012242     -0.007072     -0.005170
     3   Atom       -0.001404     -0.003622      0.005025
     4   Atom       -0.393542     -0.411689      0.805231
     5   Atom        0.032610     -0.029965     -0.002645
     6   Atom       -0.017586      0.014698      0.002889
     7   Atom       -0.008043      0.004629      0.003414
     8   Atom       -0.005323      0.010952     -0.005629
     9   Atom       -0.003440      0.008963     -0.005523
    10   Atom        0.009236      0.042267     -0.051504
    11   Atom       -0.001273     -0.007338      0.008611
    12   Atom       -0.004864     -0.001724      0.006588
    13   Atom       -0.604605     -0.637203      1.241808
    14   Atom       -0.004673      0.015361     -0.010688
    15   Atom       -0.003865      0.007710     -0.003845
    16   Atom        0.002478      0.002175     -0.004653
 --------------------------------------------------------
                        XY            XZ            YZ
 --------------------------------------------------------
     1   Atom       -0.014393      0.012271     -0.018360
     2   Atom       -0.004140      0.003726     -0.000288
     3   Atom       -0.005818      0.005527     -0.002792
     4   Atom        0.001115     -0.143901     -0.008761
     5   Atom        0.041210     -0.008334     -0.000061
     6   Atom        0.001058      0.000103      0.020800
     7   Atom        0.000359     -0.000120      0.006360
     8   Atom       -0.007251     -0.000571      0.001216
     9   Atom        0.008691      0.001144      0.002123
    10   Atom        0.016751     -0.008167      0.006245
    11   Atom        0.002656     -0.002516     -0.000874
    12   Atom       -0.003052      0.003867     -0.004386
    13   Atom        0.041389     -0.354256     -0.257532
    14   Atom        0.016662      0.000340      0.006061
    15   Atom       -0.011993     -0.003332      0.009134
    16   Atom       -0.010807      0.002765      0.001182
 --------------------------------------------------------


 ---------------------------------------------------------------------------------
              Anisotropic Spin Dipole Couplings in Principal Axis System
 ---------------------------------------------------------------------------------

       Atom             a.u.   MegaHertz   Gauss  10(-4) cm-1        Axes

              Baa    -0.0173    -2.322    -0.829    -0.775  0.5192  0.7691  0.3727
     1 C(13)  Bbb    -0.0135    -1.805    -0.644    -0.602  0.7149 -0.1519 -0.6825
              Bcc     0.0308     4.127     1.473     1.377  0.4683 -0.6208  0.6287
 
              Baa    -0.0080    -4.280    -1.527    -1.428  0.2323  0.9503 -0.2075
     2 H(1)   Bbb    -0.0058    -3.092    -1.103    -1.031 -0.1421  0.2442  0.9593
              Bcc     0.0138     7.372     2.630     2.459  0.9622 -0.1933  0.1918
 
              Baa    -0.0086    -4.596    -1.640    -1.533  0.6804  0.7215 -0.1281
     3 H(1)   Bbb    -0.0018    -0.935    -0.334    -0.312 -0.4961  0.5822  0.6442
              Bcc     0.0104     5.531     1.974     1.845  0.5394 -0.3748  0.7541
 
              Baa    -0.4118   -55.254   -19.716   -18.431 -0.0655  0.9979 -0.0006
     4 C(13)  Bbb    -0.4106   -55.094   -19.659   -18.377  0.9909  0.0651  0.1178
              Bcc     0.8223   110.348    39.375    36.808 -0.1175 -0.0072  0.9930
 
              Baa    -0.0507   -27.051    -9.652    -9.023 -0.4482  0.8906 -0.0766
     5 H(1)   Bbb    -0.0034    -1.791    -0.639    -0.597  0.0835  0.1270  0.9884
              Bcc     0.0541    28.842    10.291     9.621  0.8900  0.4366 -0.1313
 
              Baa    -0.0177    -2.371    -0.846    -0.791  0.9933 -0.0837  0.0797
     6 C(13)  Bbb    -0.0128    -1.713    -0.611    -0.571 -0.1140 -0.5970  0.7941
              Bcc     0.0304     4.084     1.457     1.362  0.0189  0.7978  0.6026
 
              Baa    -0.0081    -4.303    -1.535    -1.435  0.9983 -0.0463  0.0361
     7 H(1)   Bbb    -0.0023    -1.253    -0.447    -0.418 -0.0579 -0.6709  0.7393
              Bcc     0.0104     5.556     1.982     1.853  0.0100  0.7401  0.6724
 
              Baa    -0.0081    -4.316    -1.540    -1.440  0.9346  0.3532  0.0425
     8 H(1)   Bbb    -0.0057    -3.050    -1.088    -1.017 -0.0153 -0.0794  0.9967
              Bcc     0.0138     7.366     2.628     2.457 -0.3554  0.9322  0.0688
 
              Baa    -0.0079    -4.224    -1.507    -1.409  0.8900 -0.4555 -0.0215
     9 H(1)   Bbb    -0.0058    -3.107    -1.109    -1.036 -0.0376 -0.1203  0.9920
              Bcc     0.0137     7.331     2.616     2.445  0.4545  0.8820  0.1242
 
              Baa    -0.0533    -7.159    -2.555    -2.388  0.1528 -0.0910  0.9841
    10 C(13)  Bbb     0.0040     0.537     0.192     0.179  0.9120 -0.3706 -0.1759
              Bcc     0.0493     6.622     2.363     2.209  0.3807  0.9243  0.0264
 
              Baa    -0.0083    -4.448    -1.587    -1.484 -0.3532  0.9355 -0.0042
    11 H(1)   Bbb    -0.0010    -0.539    -0.192    -0.180  0.9012  0.3415  0.2667
              Bcc     0.0093     4.988     1.780     1.664 -0.2510 -0.0904  0.9638
 
              Baa    -0.0068    -3.652    -1.303    -1.218  0.8937  0.4335 -0.1157
    12 H(1)   Bbb    -0.0032    -1.688    -0.602    -0.563 -0.3274  0.8064  0.4925
              Bcc     0.0100     5.340     1.905     1.781  0.3068 -0.4023  0.8626
 
              Baa    -0.6771    48.995    17.483    16.343  0.6395  0.7375  0.2170
    13 O(17)  Bbb    -0.6647    48.097    17.162    16.044  0.7473 -0.6626  0.0494
              Bcc     1.3418   -97.092   -34.645   -32.386 -0.1802 -0.1306  0.9749
 
              Baa    -0.0158     1.140     0.407     0.380  0.7035 -0.4789  0.5251
    14 O(17)  Bbb    -0.0098     0.712     0.254     0.238 -0.5259  0.1461  0.8379
              Bcc     0.0256    -1.853    -0.661    -0.618  0.4780  0.8656  0.1490
 
              Baa    -0.0122     0.884     0.315     0.295  0.7116  0.5977 -0.3692
    15 O(17)  Bbb    -0.0070     0.505     0.180     0.168  0.5229 -0.0995  0.8466
              Bcc     0.0192    -1.388    -0.495    -0.463 -0.4693  0.7955  0.3834
 
              Baa    -0.0100    -5.313    -1.896    -1.772  0.6366  0.6127 -0.4684
    16 H(1)   Bbb    -0.0033    -1.735    -0.619    -0.579  0.2856  0.3769  0.8811
              Bcc     0.0132     7.047     2.515     2.351  0.7164 -0.6947  0.0649
 

 ---------------------------------------------------------------------------------

 Use density number 0.
 Entering OneElI...
 Calculate overlap and kinetic energy integrals
    NBasis = 187  MinDer = 2  MaxDer = 2
 Requested accuracy = 0.1000D-12
 PrsmSu:  NPrtUS=   1 ThrOK=F
 PRISM was handed   196296072 working-precision words and  2548 shell-pairs
 Entering OneElI...
 Calculate potential energy integrals
    NBasis = 187  MinDer = 2  MaxDer = 2
 Requested accuracy = 0.1000D-12
 PrsmSu:  NPrtUS=   8 ThrOK=T
 PRISM was handed    24493927 working-precision words and  2377 shell-pairs
 PRISM was handed    24493927 working-precision words and  2377 shell-pairs
 PRISM was handed    24493927 working-precision words and  2377 shell-pairs
 PRISM was handed    24493927 working-precision words and  2377 shell-pairs
 PRISM was handed    24493927 working-precision words and  2377 shell-pairs
 PRISM was handed    24493927 working-precision words and  2377 shell-pairs
 PRISM was handed    24493927 working-precision words and  2377 shell-pairs
 PRISM was handed    24493927 working-precision words and  2377 shell-pairs
 Polarizability after L701:
                1             2             3
      1  0.527045D+02
      2 -0.390443D+01  0.656404D+02
      3  0.351266D+01  0.884875D+01  0.741187D+02
 Dipole Derivatives after L701:
               1            2            3            4            5
      1 0.307975D+00-0.117519D+00-0.863197D-01-0.667066D-01-0.354151D-01
      2-0.542101D-01 0.543256D+00 0.810125D-01-0.625473D-01-0.331843D-01
      3 0.773874D-01 0.218145D-01 0.906378D-01-0.174062D-02-0.155259D-01
               6            7            8            9           10
      1 0.723845D-01 0.604037D-01 0.452229D-01-0.106264D-02 0.109519D+00
      2 0.422382D-01 0.390068D-01 0.857209D-02-0.230141D-01 0.304883D-01
      3 0.773784D-01-0.333539D-01 0.285671D-01-0.124692D+00 0.334008D-01
              11           12           13           14           15
      1 0.357411D-02 0.203857D-01-0.427715D-01-0.438489D-01-0.143242D-01
      2 0.226554D+00 0.138685D+00-0.185378D-01-0.278120D-01-0.240146D-01
      3 0.108854D+00-0.181172D-01-0.115486D-01-0.820178D-02-0.200953D-02
              16           17           18           19           20
      1 0.490672D-01 0.270220D-01 0.505465D-02 0.933541D-01 0.475112D-02
      2 0.530275D-01-0.676080D-01-0.155135D+00-0.122726D-01 0.175654D-01
      3 0.514347D-03-0.267878D-02-0.315513D-01-0.519512D-02-0.566796D-01
              21           22           23           24           25
      1 0.989667D-02-0.286565D-01 0.551707D-01-0.767108D-01-0.750148D-01
      2-0.322759D-01 0.730692D-01-0.698062D-02 0.705472D-01-0.805452D-01
      3-0.116571D+00-0.594861D-01 0.320393D-03 0.613293D-01 0.468307D-01
              26           27           28           29           30
      1-0.294877D-01 0.650601D-01 0.556140D+00-0.926317D-02 0.103242D+00
      2 0.279593D-01 0.528734D-01 0.669220D-01 0.721198D+00 0.554983D-01
      3-0.126413D-01 0.707452D-01 0.167067D+00 0.267508D+00 0.758656D+00
              31           32           33           34           35
      1-0.167791D+00-0.245554D-01-0.135949D-01-0.727378D-01 0.118141D+00
      2-0.678880D-01 0.732959D-02 0.196548D-02 0.129060D+00-0.136120D+00
      3 0.101437D-01 0.449122D-01-0.292441D-02-0.261370D-02 0.749700D-01
              36           37           38           39           40
      1-0.148861D-01-0.490544D+00-0.325973D-01-0.108753D+00-0.338285D+00
      2 0.217822D-01-0.381874D-01-0.830128D+00-0.974766D-01 0.301585D-01
      3 0.235519D-01-0.228061D+00-0.434470D+00-0.634755D+00-0.847375D-02
              41           42           43           44           45
      1 0.123393D+00-0.609786D-01-0.186585D+00-0.188350D-02-0.318647D-01
      2-0.476522D+00 0.237405D-01 0.930258D-01-0.444510D+00-0.430662D-01
      3-0.580859D-01-0.105020D+00-0.892403D-01 0.504041D-01-0.343981D+00
              46           47           48
      1 0.292634D+00-0.827048D-01 0.132471D+00
      2-0.180570D+00 0.470431D+00-0.113360D+00
      3 0.104368D+00-0.906764D-02 0.297322D+00
 Hessian after L701:
                1             2             3             4             5
      1  0.183677D+02
      2  0.190873D+01  0.120439D+02
      3 -0.829978D+00 -0.128175D+01  0.191588D+02
      4 -0.210811D+01  0.118985D+01 -0.822424D+00  0.183066D+01
      5  0.121112D+01 -0.430469D+01 -0.349548D+00 -0.138430D+01  0.408239D+01
      6 -0.600709D+00 -0.252768D+00 -0.461707D+01  0.589940D+00  0.151010D+00
      7 -0.449528D+01  0.192796D-01  0.803690D-01  0.262668D-01 -0.284922D-01
      8  0.155739D-01 -0.449418D+01  0.119295D+00 -0.293549D-01  0.746862D-01
      9  0.326989D-01  0.921892D-01 -0.139160D+01  0.880157D-01  0.401799D-01
     10 -0.316506D+01 -0.293427D+01  0.134051D+01 -0.245613D+00  0.128753D+00
     11 -0.300679D+01 -0.382656D+01 -0.122899D+01  0.127178D+00  0.220396D+00
     12  0.124883D+01 -0.110829D+01 -0.606052D+01  0.286990D-01 -0.800643D-02
     13 -0.374323D-01  0.223562D-01 -0.819356D-01  0.159089D+00  0.150823D-01
     14  0.919565D-01  0.105759D+00  0.151489D-01  0.110539D-01 -0.358705D-01
     15 -0.501999D-01  0.172148D-02  0.979215D-01  0.165955D-02  0.155049D-02
     16  0.243758D-01 -0.158946D+00  0.258044D-01  0.703899D-01 -0.568204D-01
     17 -0.808921D-01 -0.120978D-01 -0.209810D-01 -0.899446D-01 -0.754147D-02
     18  0.596020D-01 -0.114965D+00 -0.348825D-01 -0.118023D-01  0.105161D-01
     19 -0.121689D-01 -0.211317D-01 -0.110661D-01  0.186817D-02  0.175350D-02
     20 -0.144994D-01  0.121595D-01  0.197535D-01 -0.286104D-02 -0.334984D-02
     21 -0.149069D-01  0.483802D-01  0.678763D-02 -0.122724D-01 -0.151891D-02
     22  0.233918D-01 -0.108233D+00  0.151554D-01  0.105222D-01  0.253385D-03
     23 -0.972678D-01  0.108111D+00 -0.281318D-01 -0.840987D-02 -0.185373D-02
     24  0.194670D-01 -0.346876D-01 -0.390211D-01  0.409746D-02  0.301631D-03
     25 -0.815334D-02  0.206592D-01  0.358161D-02 -0.153731D-01 -0.192071D-01
     26 -0.849991D-02  0.262019D-02 -0.218115D-02 -0.451017D-01  0.348807D-01
     27  0.111264D-02 -0.265001D-01 -0.126451D-01  0.753222D-02 -0.520436D-02
     28 -0.122536D+00 -0.378236D-01  0.577032D-01 -0.151102D-01  0.102354D-01
     29 -0.145670D-01 -0.728224D-01 -0.526215D-01 -0.218824D-02 -0.470241D-02
     30  0.584490D-02 -0.735915D-01  0.839519D-01 -0.160354D-01  0.923396D-02
     31  0.623683D-02  0.981702D-02 -0.142786D-01 -0.155120D-01 -0.526867D-02
     32 -0.170504D-02  0.117636D-01  0.177561D-01 -0.118029D-01 -0.148494D-01
     33  0.595795D-03  0.119792D-01 -0.895065D-01  0.275347D-01 -0.762880D-02
     34  0.651196D-02 -0.308904D-01  0.519944D-01  0.101146D-01  0.480825D-03
     35 -0.311911D-01  0.345414D-02 -0.496086D-01 -0.103871D-01 -0.342169D-02
     36  0.464913D-01 -0.391422D-01  0.398036D-01  0.598213D-02 -0.604063D-03
     37 -0.100633D+00  0.161068D-01  0.208390D+00  0.400734D-01  0.227211D-01
     38  0.401872D-01 -0.203412D+00  0.918324D-01  0.300637D-01 -0.111984D-01
     39  0.202957D+00  0.505664D-01  0.233133D+00  0.647452D-01  0.242369D-01
     40 -0.843388D+01  0.127476D+00 -0.575851D-01  0.354855D+00  0.164875D+00
     41  0.117655D+00  0.558773D+00  0.260471D+01  0.210981D+00 -0.207150D-01
     42 -0.210994D-01  0.256210D+01 -0.723812D+01  0.281086D-01  0.469875D-01
     43  0.941833D-01 -0.586635D-01 -0.310430D-01 -0.112950D+00 -0.672327D-01
     44 -0.153933D+00  0.890056D-01  0.107002D+00  0.153887D-01  0.128255D-02
     45 -0.137077D+00  0.108773D+00 -0.198748D+00  0.644170D-02  0.867519D-01
     46 -0.391085D-01  0.356766D-01  0.648011D-01  0.882961D-02  0.605084D-02
     47  0.241222D-01 -0.218039D-01  0.383122D-01 -0.165465D-03 -0.544505D-02
     48  0.363735D-01  0.559772D-01  0.616696D-01  0.977793D-02  0.174147D-02
                6             7             8             9            10
      6  0.445827D+01
      7  0.104574D+00  0.449075D+01
      8  0.475311D-01 -0.424006D-01  0.450956D+01
      9 -0.340331D-01 -0.148684D+00 -0.227581D+00  0.755588D+00
     10 -0.391899D-01  0.915087D-01  0.563572D-01 -0.864273D-01  0.124912D+02
     11  0.293540D-02  0.558492D-01  0.955721D-01  0.729406D-01  0.202271D+01
     12  0.244748D+00 -0.992357D-01  0.937007D-01  0.677169D-01 -0.139716D+01
     13  0.282030D-02 -0.149029D-01  0.563688D-02 -0.370354D-02 -0.217206D+01
     14  0.119217D-04  0.712960D-02  0.687771D-02  0.106815D-01  0.123531D+01
     15 -0.340265D-01 -0.155707D-01  0.288678D-02 -0.213798D-02 -0.168573D+00
     16 -0.230758D-01 -0.260604D-01 -0.223225D-01  0.334902D-01 -0.568206D+01
     17  0.182348D-01 -0.185035D-01  0.198209D-01 -0.671887D-01  0.234639D+00
     18 -0.528843D-01  0.188006D-01 -0.465708D-01  0.234434D-01  0.459440D-01
     19 -0.113627D-02 -0.745862D-02 -0.236901D-01  0.751688D-02  0.460602D-01
     20  0.103999D-02 -0.239973D-01  0.357471D-01 -0.169925D-01 -0.172298D-01
     21  0.387680D-02 -0.288278D-02  0.686490D-02 -0.294951D-01 -0.245062D-01
     22 -0.171549D-02 -0.470932D-03 -0.176213D-03  0.766016D-02  0.926500D-01
     23  0.124109D-02  0.595323D-03 -0.171890D-02 -0.567278D-02 -0.903309D-02
     24 -0.238025D-02  0.158976D-03  0.278464D-04  0.432116D-02  0.435496D-01
     25  0.357914D-02 -0.416444D-03  0.359068D-02 -0.973351D-02  0.118044D+00
     26 -0.227673D-02  0.782907D-03 -0.120627D-02 -0.739208D-02 -0.684140D-01
     27 -0.209255D-01 -0.500588D-03 -0.610177D-03  0.507881D-02 -0.374001D-01
     28 -0.299267D-01 -0.149443D-01 -0.575282D-02  0.400874D-01 -0.139060D+01
     29  0.385593D-02 -0.553728D-02 -0.238733D-01 -0.311111D-01 -0.339839D-02
     30 -0.276557D-01  0.337857D-01 -0.201660D-01  0.104010D+00  0.273314D+00
     31  0.126768D-01 -0.225314D-02  0.893683D-03 -0.965480D-02 -0.710345D-01
     32 -0.137136D-01  0.205394D-03 -0.180630D-02 -0.591478D-02 -0.256967D-01
     33  0.253236D-01 -0.336500D-03 -0.148482D-02  0.750424D-02  0.138566D+00
     34  0.307758D-02  0.842831D-04 -0.256531D-03  0.616576D-02 -0.190786D-01
     35 -0.198648D-02 -0.670543D-03 -0.374509D-03 -0.788065D-02  0.111787D-01
     36  0.431588D-04 -0.446344D-03  0.665445D-03  0.140587D-02 -0.844883D-01
     37  0.303056D-01 -0.811456D-02  0.148328D-02  0.249288D-01 -0.123717D+00
     38  0.962554D-02  0.716964D-04 -0.955112D-02  0.164629D-01  0.487094D-02
     39  0.767501D-02  0.105301D-01  0.457750D-02  0.469810D-01  0.488175D-01
     40 -0.318888D-02  0.143663D-01  0.682483D-01  0.878697D-01  0.207216D+00
     41 -0.234237D-01  0.532343D-01 -0.182887D+00  0.227532D-01 -0.448355D+00
     42  0.743701D-01  0.621956D-01 -0.655900D-01  0.247243D+00  0.258538D-01
     43 -0.480353D-01 -0.550558D-01 -0.311248D-01 -0.796081D-01 -0.149317D+00
     44  0.624930D-01 -0.175445D-01 -0.238808D-01  0.126761D+00 -0.166349D+00
     45 -0.196796D-01 -0.411900D-01  0.940518D-01  0.204287D+00 -0.547060D-01
     46  0.399879D-05  0.197645D-02  0.329451D-02  0.937739D-02 -0.281471D-01
     47 -0.381074D-02 -0.220697D-05 -0.278720D-02 -0.122341D-01 -0.210694D-01
     48 -0.565392D-02 -0.156752D-02 -0.759820D-02 -0.103114D-01 -0.241091D-01
               11            12            13            14            15
     11  0.947594D+01
     12 -0.303779D+00  0.147004D+02
     13  0.143501D+01 -0.138394D-01  0.179435D+01
     14 -0.411707D+01 -0.175605D-01 -0.129588D+01  0.417622D+01
     15 -0.982780D-01 -0.471490D+01  0.269509D+00  0.558819D-02  0.464540D+01
     16  0.223129D+00  0.524782D-01  0.973294D-01 -0.644550D-01 -0.863583D-02
     17 -0.603627D+00  0.102326D+01 -0.610245D-01 -0.978254D-01 -0.659006D-02
     18  0.108973D+01 -0.564174D+01 -0.154576D-01 -0.223313D-01  0.810046D-01
     19 -0.436279D-02 -0.887420D-02  0.400074D-02 -0.545075D-02 -0.269442D-02
     20  0.632293D-02  0.126336D-01 -0.317308D-02 -0.715000D-02 -0.758385D-02
     21  0.607190D-01  0.196906D+00  0.992774D-02 -0.806285D-03  0.304808D-02
     22 -0.482244D-01  0.260091D-01  0.802655D-02 -0.105947D-01  0.150833D-02
     23 -0.271907D-02 -0.141605D-01  0.704720D-03 -0.470304D-01  0.725834D-02
     24 -0.591319D-01  0.536222D-01 -0.504486D-02 -0.913245D-03  0.158575D-01
     25  0.650991D-02 -0.235510D-01  0.493534D-01  0.771681D-01 -0.321181D-02
     26 -0.233837D-02 -0.172540D-01  0.893040D-01  0.576814D-01 -0.604962D-02
     27 -0.468203D-01  0.106953D+00 -0.610930D-02 -0.727359D-02 -0.277202D-01
     28  0.219405D-01  0.267611D+00  0.356535D-01  0.400342D-02  0.273413D-01
     29 -0.133770D+01  0.274756D+00 -0.313892D-03  0.261922D-01  0.139394D-01
     30  0.326582D+00  0.941651D+00 -0.178558D-02 -0.583282D-02 -0.671125D-01
     31 -0.153288D-01  0.584280D-01  0.494573D-01  0.251666D-01 -0.703513D-01
     32  0.420696D-01  0.182398D-02  0.282139D-01 -0.209103D-01 -0.260420D-01
     33  0.106765D-01  0.496161D-01 -0.730700D-01 -0.224803D-01  0.409520D-01
     34  0.160424D-01 -0.479090D-01  0.141676D-01 -0.574505D-02  0.619292D-02
     35  0.260222D-01 -0.394760D-01  0.458395D-02  0.631138D-02  0.389121D-01
     36  0.100761D-02 -0.774890D-02  0.669306D-02  0.347193D-01 -0.496901D-01
     37 -0.579912D-01 -0.374246D-01 -0.775794D-01  0.115286D-01  0.330668D-01
     38 -0.225747D+00  0.890178D-01 -0.323572D-01 -0.686073D-01  0.594265D-01
     39  0.971761D-01  0.313119D+00 -0.589704D-01  0.125067D-01  0.100203D+00
     40 -0.566356D+00  0.349136D-01  0.414569D-01 -0.682692D-01  0.131433D-02
     41 -0.729798D-03 -0.212737D+00 -0.158789D+00  0.344453D-01 -0.292304D-03
     42 -0.148284D+00 -0.148359D+00  0.132161D-02 -0.776427D-02 -0.742975D-01
     43 -0.215817D+00 -0.870346D-01  0.580048D-01 -0.139110D-01 -0.237874D-01
     44  0.224871D+00  0.178525D+00 -0.513928D-01 -0.166126D-01  0.149499D-01
     45  0.148790D+00 -0.128255D+00 -0.234595D-01  0.892873D-02 -0.135225D-01
     46  0.650140D-02 -0.194096D-02 -0.892039D-02  0.996395D-03  0.243227D-02
     47  0.252902D-01  0.475454D-01  0.204242D-02 -0.241171D-02 -0.139736D-02
     48  0.747283D-01  0.267690D-01 -0.689553D-02 -0.262294D-02 -0.981925D-03
               16            17            18            19            20
     16  0.145638D+02
     17  0.235538D+00  0.111976D+02
     18 -0.766897D-01 -0.830046D+00  0.145169D+02
     19 -0.390151D+01 -0.123303D-01 -0.140526D+00  0.384280D+01
     20 -0.127630D-01 -0.385914D+01  0.514173D+00  0.913211D-01  0.364154D+01
     21 -0.100667D+00  0.358735D+00 -0.131573D+01  0.131458D+00 -0.664709D+00
     22 -0.252702D+01 -0.103003D+01  0.832630D+00  0.449459D-01  0.293408D-02
     23 -0.115114D+01 -0.330153D+01 -0.637125D+00  0.775297D-02  0.617363D-01
     24  0.747271D+00 -0.513494D+00 -0.365557D+01 -0.667575D-01  0.317852D-01
     25 -0.212641D+01  0.978251D+00 -0.736846D+00  0.312612D-01 -0.562653D-02
     26  0.119299D+01 -0.364334D+01 -0.433100D+00 -0.163075D-01  0.796120D-01
     27 -0.669899D+00 -0.323043D+00 -0.393135D+01  0.991436D-01  0.257915D-01
     28 -0.157318D+00 -0.135296D-01 -0.104284D-01 -0.233543D-01  0.200172D-02
     29 -0.496918D-02 -0.133642D+00  0.136367D+00  0.589816D-03 -0.108793D-02
     30 -0.308785D-02  0.390882D-01  0.136688D+00 -0.654683D-03  0.474596D-01
     31  0.154016D-01 -0.193388D-01 -0.494071D-01  0.817014D-03 -0.109351D-02
     32 -0.148483D-01 -0.138773D-01  0.320239D-02  0.614479D-03 -0.108781D-02
     33 -0.288436D-01 -0.697006D-03 -0.169088D-01  0.131576D-02 -0.307824D-02
     34 -0.911730D-02  0.130951D-01  0.776966D-01 -0.103452D-02  0.124204D-02
     35  0.190046D-02 -0.449136D-01 -0.168182D-01 -0.317308D-03 -0.273185D-02
     36  0.599959D-01  0.126206D-01  0.450699D-01  0.921311D-03  0.122998D-02
     37 -0.137216D+00  0.354520D-01  0.419843D-01 -0.888519D-02  0.195565D-02
     38  0.430704D-01  0.726045D-01  0.240898D+00  0.286878D-03  0.211599D-02
     39  0.374233D-01  0.192682D+00  0.750666D-01  0.705156D-03  0.128923D-01
     40 -0.139498D+00 -0.103707D+00 -0.543564D-02 -0.114035D-01 -0.101750D-01
     41 -0.122248D+00  0.349391D+00  0.301377D-01 -0.110877D-01  0.250831D-01
     42 -0.152776D-01  0.526821D-01 -0.160855D+00 -0.445547D-02  0.145887D-01
     43 -0.525522D-01 -0.726462D-01 -0.316583D-01 -0.474248D-02 -0.908566D-02
     44 -0.854765D-01  0.730569D-01  0.662566D-01 -0.753184D-02  0.982704D-02
     45 -0.246795D-01  0.497865D-01 -0.682446D-01 -0.424980D-02  0.907507D-02
     46 -0.125188D-01  0.497503D-02  0.159343D-02 -0.119254D-02  0.104965D-02
     47 -0.263287D-02  0.510186D-02  0.967364D-02 -0.108761D-03  0.403470D-03
     48 -0.560689D-02  0.149473D-01 -0.518323D-05 -0.645838D-03  0.194115D-02
               21            22            23            24            25
     21  0.106340D+01
     22 -0.319499D-01  0.247627D+01
     23  0.234226D-01  0.129433D+01  0.302488D+01
     24 -0.223507D-01 -0.759371D+00  0.553768D+00  0.357786D+01
     25  0.613412D-01 -0.906142D-01  0.490083D-02  0.989632D-02  0.209541D+01
     26  0.294914D-01  0.143503D-01  0.836158D-01 -0.767012D-02 -0.116902D+01
     27 -0.234078D-01 -0.297286D-01 -0.603349D-02  0.769450D-01  0.637409D+00
     28  0.383208D-03 -0.805635D-02 -0.113265D-01 -0.428960D-02 -0.567118D-02
     29  0.460606D-01 -0.276329D-01  0.717727D-02  0.755553D-02  0.206480D-01
     30  0.778581D-01 -0.238003D-01  0.217731D-01 -0.995070D-02  0.234137D-01
     31 -0.722638D-02  0.883834D-02 -0.550397D-02  0.377531D-02 -0.268110D-01
     32 -0.342979D-02  0.104451D-02 -0.178083D-02 -0.229596D-02  0.192226D-02
     33 -0.371460D-02  0.424651D-03 -0.194851D-02 -0.393189D-02  0.475936D-02
     34  0.769194D-02 -0.309371D-01  0.756083D-02  0.348378D-02  0.680274D-02
     35 -0.657791D-02  0.143409D-02 -0.126178D-01  0.246156D-01 -0.773236D-02
     36  0.662213D-02 -0.116249D-01  0.441287D-01  0.314410D-01 -0.490551D-03
     37  0.724562D-02 -0.162458D-01 -0.428376D-02 -0.311401D-02  0.399704D-02
     38  0.338276D-01 -0.364335D-01  0.421177D-01  0.143299D-01  0.408728D-01
     39  0.270436D-01 -0.216809D-01  0.358690D-01 -0.892833D-02  0.265507D-01
     40 -0.122535D-01  0.351468D-02 -0.136024D-01  0.555198D-02 -0.165987D-01
     41  0.417077D-01 -0.283005D-01  0.216891D-01 -0.123952D-01  0.280985D-01
     42  0.255999D-02 -0.483544D-03  0.840263D-03 -0.992478D-02  0.878561D-03
     43 -0.157773D-01  0.931469D-02 -0.180763D-01  0.246891D-02 -0.177373D-01
     44  0.271026D-01 -0.238736D-01  0.187816D-01 -0.239994D-02  0.185321D-01
     45  0.223239D-02  0.538249D-03  0.802473D-03 -0.662536D-02 -0.869940D-03
     46  0.439537D-02 -0.412526D-02  0.280335D-02 -0.114335D-02  0.291608D-02
     47  0.730627D-03 -0.843738D-03  0.114017D-02  0.603966D-03  0.432194D-03
     48  0.436530D-02 -0.357184D-02  0.396824D-02 -0.136423D-02  0.329355D-02
               26            27            28            29            30
     26  0.329338D+01
     27  0.358073D+00  0.384040D+01
     28  0.310727D-02  0.217831D-02  0.187043D+02
     29 -0.109077D-01  0.364933D-02 -0.333223D+01  0.851882D+01
     30  0.133419D-01  0.345211D-02 -0.230787D+01 -0.377955D+01  0.224381D+02
     31 -0.109201D-01 -0.600934D-02 -0.117635D+01  0.940159D+00  0.253829D+00
     32  0.749420D-02  0.286501D-01  0.115460D+01 -0.430722D+01  0.885239D-01
     33  0.400536D-01  0.226786D-01 -0.608303D-01 -0.817676D-02 -0.451509D+01
     34  0.195073D-02 -0.459775D-02 -0.315995D+01 -0.158924D+01  0.138775D-01
     35 -0.424229D-02 -0.329507D-02 -0.163879D+01 -0.223643D+01 -0.618080D-01
     36 -0.243325D-02 -0.644893D-02  0.164444D+00 -0.238973D+00 -0.427536D+01
     37  0.199083D-01  0.675385D-02 -0.125910D+02  0.460141D+01  0.146284D+01
     38  0.271125D-01  0.138226D-01  0.439163D+01 -0.585683D+00  0.381994D+01
     39  0.280139D-01 -0.555607D-02  0.152674D+01  0.416088D+01 -0.147381D+02
     40 -0.226880D-03 -0.194682D-04 -0.146635D+00 -0.135910D+00  0.994033D-01
     41  0.483894D-01 -0.114108D-01 -0.122940D+00  0.570663D-01 -0.227225D+00
     42  0.111620D-02 -0.159038D-01  0.108110D+00 -0.259653D+00  0.362774D-01
     43 -0.774956D-02  0.617945D-03  0.769868D-01 -0.504457D+00  0.196448D+00
     44  0.255145D-01 -0.575389D-03 -0.443111D+00  0.118134D+00 -0.209538D+00
     45  0.402555D-02 -0.105374D-01  0.228299D+00 -0.304118D+00 -0.209664D+00
     46  0.384789D-02 -0.483396D-03 -0.551959D-02  0.576279D-01 -0.952138D-02
     47  0.173134D-02  0.779360D-03  0.179808D-01 -0.133195D-01  0.117622D-01
     48  0.424165D-02 -0.102106D-02 -0.955112D-02  0.271374D-01  0.209292D-01
               31            32            33            34            35
     31  0.124710D+01
     32 -0.111177D+01  0.431554D+01
     33 -0.270800D-01  0.149397D+00  0.396259D+01
     34 -0.531746D+00  0.246003D+00 -0.654575D-02  0.338015D+01
     35  0.327373D+00  0.247578D+00  0.274273D-03  0.188273D+01  0.199415D+01
     36 -0.876266D-01  0.226377D-01  0.332890D+00 -0.108949D+00  0.285783D+00
     37  0.586229D+00 -0.200946D+00  0.192522D-02  0.307604D+00 -0.443865D+00
     38 -0.159503D+00 -0.354812D+00 -0.735960D-01 -0.451195D+00 -0.758707D-01
     39 -0.235731D-01 -0.155740D+00  0.219072D+00 -0.420229D-01 -0.101024D+00
     40 -0.262848D-01  0.261704D-02 -0.357981D-02  0.441722D-02 -0.250715D-01
     41  0.342848D-01  0.232206D-01 -0.320579D-01 -0.274242D-01  0.287154D-01
     42 -0.265145D-01 -0.380299D-01  0.850654D-02  0.191698D-01 -0.298660D-01
     43 -0.998745D-01 -0.718077D-01  0.239151D-01  0.212794D-01 -0.433815D-01
     44  0.218337D-02  0.147814D+00 -0.823139D-01 -0.321425D-01  0.282796D-01
     45 -0.113629D-01 -0.813081D-01 -0.682733D-01  0.200938D-01 -0.259082D-01
     46  0.357834D-01  0.335647D-02  0.124895D-02  0.722463D-03 -0.277958D-01
     47 -0.111506D-01 -0.791299D-01  0.210817D-01 -0.322128D-01  0.460954D-01
     48  0.437536D-02  0.144833D-01  0.282911D-01  0.580738D-03 -0.533562D-02
               36            37            38            39            40
     36  0.380869D+01
     37 -0.163170D-01  0.122064D+02
     38 -0.847576D-01 -0.324622D+01  0.215323D+01
     39  0.976391D-01 -0.273490D+01 -0.369298D+01  0.137245D+02
     40  0.120886D-01 -0.967919D-01 -0.133959D+00  0.439946D+00  0.117301D+02
     41 -0.193778D-01 -0.183407D+00 -0.269851D+00 -0.321910D+00  0.122803D+01
     42 -0.126654D-02  0.424565D+00 -0.237524D+00  0.424356D+00  0.231578D+01
     43  0.111616D-01  0.134328D+00 -0.182818D+00  0.244360D+00 -0.372682D+01
     44 -0.874871D-02 -0.202596D+00 -0.254385D+00 -0.935155D-01 -0.532690D+00
     45 -0.109223D-01  0.328076D+00 -0.126010D+00 -0.148862D+00 -0.310447D+01
     46  0.216494D-02 -0.118517D+00 -0.308565D+00  0.278377D+00  0.241990D+00
     47 -0.875593D-02 -0.371259D+00 -0.238062D+00 -0.254226D+00 -0.127784D-02
     48 -0.121685D-01  0.221680D+00 -0.174315D+00 -0.367419D+00  0.189658D+00
               41            42            43            44            45
     41  0.413689D+01
     42 -0.299854D+01  0.575803D+01
     43 -0.569017D+00 -0.322751D+01  0.761621D+01
     44 -0.498501D+01  0.126952D+01  0.241518D+01  0.111976D+02
     45  0.123030D+01  0.135353D+01  0.507069D+00 -0.825907D+00  0.356712D+01
     46 -0.714280D-03  0.309348D+00 -0.379126D+01 -0.734643D+00  0.231155D+01
     47  0.175532D+00 -0.162589D+00 -0.549393D+00 -0.665429D+01 -0.378032D+00
     48 -0.702431D-01 -0.256137D+00  0.255841D+01 -0.629607D+00 -0.424383D+01
               46            47            48
     46  0.371709D+01
     47  0.945538D+00  0.676195D+01
     48 -0.297220D+01  0.690556D+00  0.475687D+01
 ReadGW:  IGet=0 IStart=         114 Next=        7220 LGW=        7106.
 ICntrl=12127.
 Symmetry not used in FoFDir.
 MinBra= 0 MaxBra= 2 Meth= 1.
 IRaf=       0 NMat=   1 IRICut=       1 DoRegI=T DoRafI=F ISym2E= 0 JSym2E=0.
 PrsmSu:  NPrtUS=   8 ThrOK=T
 PRISM was handed    24480422 working-precision words and  2450 shell-pairs
 PRISM was handed    24480422 working-precision words and  2450 shell-pairs
 PRISM was handed    24480422 working-precision words and  2450 shell-pairs
 PRISM was handed    24480422 working-precision words and  2450 shell-pairs
 PRISM was handed    24480422 working-precision words and  2450 shell-pairs
 PRISM was handed    24480422 working-precision words and  2450 shell-pairs
 PRISM was handed    24480422 working-precision words and  2450 shell-pairs
 PRISM was handed    24480422 working-precision words and  2450 shell-pairs
 Pruned (  75, 302) grid will be used in CalDFT.
 CkSvGd:  ISavGI=        -1 IRadAn=       4 IRASav=       4 ISavGd=        -1.
 CalDSu:  NPrtUS=   8 ThrOK=T
 IPart= 6 IRanGd=          0 ScrnBf=T ScrnGd=T RCrit=4.00D+00 DoMicB=T.
 IPart= 1 IRanGd=          0 ScrnBf=T ScrnGd=T RCrit=4.00D+00 DoMicB=T.
 IPart= 5 IRanGd=          0 ScrnBf=T ScrnGd=T RCrit=4.00D+00 DoMicB=T.
 IPart= 7 IRanGd=          0 ScrnBf=T ScrnGd=T RCrit=4.00D+00 DoMicB=T.
 IPart= 3 IRanGd=          0 ScrnBf=T ScrnGd=T RCrit=4.00D+00 DoMicB=T.
 CutRad = 1000.00    CtRdIn =    0.00    XCrit =  15.00   ICut = 0
 CutRad = 1000.00    CtRdIn =    0.00    XCrit =  15.00   ICut = 0
 CutRad = 1000.00    CtRdIn =    0.00    XCrit =  15.00   ICut = 0
 CutRad = 1000.00    CtRdIn =    0.00    XCrit =  15.00   ICut = 0
 IPart= 0 IRanGd=          0 ScrnBf=T ScrnGd=T RCrit=4.00D+00 DoMicB=T.
 IPart= 2 IRanGd=          0 ScrnBf=T ScrnGd=T RCrit=4.00D+00 DoMicB=T.
 IPart= 4 IRanGd=          0 ScrnBf=T ScrnGd=T RCrit=4.00D+00 DoMicB=T.
 CutRad = 1000.00    CtRdIn =    0.00    XCrit =  15.00   ICut = 0
 CutRad = 1000.00    CtRdIn =    0.00    XCrit =  15.00   ICut = 0
 CutRad = 1000.00    CtRdIn =    0.00    XCrit =  15.00   ICut = 0
 CutRad = 1000.00    CtRdIn =    0.00    XCrit =  15.00   ICut = 0
 IPart= 4        14335 of        16636 points in      36 batches and      105 microbatches, Max-NSigAt=      16 Max-NSgAt2=      16
 IPart= 5        13330 of        15252 points in      31 batches and      100 microbatches, Max-NSigAt=      16 Max-NSgAt2=      16
 IPart= 7        14215 of        16018 points in      31 batches and       81 microbatches, Max-NSigAt=      16 Max-NSgAt2=      16
 IPart= 1        12304 of        14034 points in      29 batches and       97 microbatches, Max-NSigAt=      16 Max-NSgAt2=      16
 IPart= 2        13238 of        15258 points in      33 batches and      107 microbatches, Max-NSigAt=      16 Max-NSgAt2=      16
 IPart= 0        15208 of        17276 points in      35 batches and       93 microbatches, Max-NSigAt=      16 Max-NSgAt2=      16
 IPart= 3        14810 of        16720 points in      34 batches and       93 microbatches, Max-NSigAt=      16 Max-NSgAt2=      16
 IPart= 6        14767 of        16888 points in      35 batches and      106 microbatches, Max-NSigAt=      16 Max-NSgAt2=      16
 Polarizability after L703:
                1             2             3
      1  0.527045D+02
      2 -0.390443D+01  0.656404D+02
      3  0.351266D+01  0.884875D+01  0.741187D+02
 Dipole Derivatives after L703:
               1            2            3            4            5
      1 0.307975D+00-0.117519D+00-0.863197D-01-0.667066D-01-0.354151D-01
      2-0.542101D-01 0.543256D+00 0.810125D-01-0.625473D-01-0.331843D-01
      3 0.773874D-01 0.218145D-01 0.906378D-01-0.174062D-02-0.155259D-01
               6            7            8            9           10
      1 0.723845D-01 0.604037D-01 0.452229D-01-0.106264D-02 0.109519D+00
      2 0.422382D-01 0.390068D-01 0.857209D-02-0.230141D-01 0.304883D-01
      3 0.773784D-01-0.333539D-01 0.285671D-01-0.124692D+00 0.334008D-01
              11           12           13           14           15
      1 0.357411D-02 0.203857D-01-0.427715D-01-0.438489D-01-0.143242D-01
      2 0.226554D+00 0.138685D+00-0.185378D-01-0.278120D-01-0.240146D-01
      3 0.108854D+00-0.181172D-01-0.115486D-01-0.820178D-02-0.200953D-02
              16           17           18           19           20
      1 0.490672D-01 0.270220D-01 0.505465D-02 0.933541D-01 0.475112D-02
      2 0.530275D-01-0.676080D-01-0.155135D+00-0.122726D-01 0.175654D-01
      3 0.514347D-03-0.267878D-02-0.315513D-01-0.519512D-02-0.566796D-01
              21           22           23           24           25
      1 0.989667D-02-0.286565D-01 0.551707D-01-0.767108D-01-0.750148D-01
      2-0.322759D-01 0.730692D-01-0.698062D-02 0.705472D-01-0.805452D-01
      3-0.116571D+00-0.594861D-01 0.320393D-03 0.613293D-01 0.468307D-01
              26           27           28           29           30
      1-0.294877D-01 0.650601D-01 0.556140D+00-0.926317D-02 0.103242D+00
      2 0.279593D-01 0.528734D-01 0.669220D-01 0.721198D+00 0.554983D-01
      3-0.126413D-01 0.707452D-01 0.167067D+00 0.267508D+00 0.758656D+00
              31           32           33           34           35
      1-0.167791D+00-0.245554D-01-0.135949D-01-0.727378D-01 0.118141D+00
      2-0.678880D-01 0.732959D-02 0.196548D-02 0.129060D+00-0.136120D+00
      3 0.101437D-01 0.449122D-01-0.292441D-02-0.261370D-02 0.749700D-01
              36           37           38           39           40
      1-0.148861D-01-0.490544D+00-0.325973D-01-0.108753D+00-0.338285D+00
      2 0.217822D-01-0.381874D-01-0.830128D+00-0.974766D-01 0.301585D-01
      3 0.235519D-01-0.228061D+00-0.434470D+00-0.634755D+00-0.847375D-02
              41           42           43           44           45
      1 0.123393D+00-0.609786D-01-0.186585D+00-0.188350D-02-0.318647D-01
      2-0.476522D+00 0.237405D-01 0.930258D-01-0.444510D+00-0.430662D-01
      3-0.580859D-01-0.105020D+00-0.892403D-01 0.504041D-01-0.343981D+00
              46           47           48
      1 0.292634D+00-0.827048D-01 0.132471D+00
      2-0.180570D+00 0.470431D+00-0.113360D+00
      3 0.104368D+00-0.906764D-02 0.297322D+00
 Hessian after L703:
                1             2             3             4             5
      1  0.538342D+00
      2  0.430636D-01  0.444569D+00
      3 -0.515102D-01 -0.214229D-01  0.518988D+00
      4 -0.247567D+00 -0.777254D-01  0.653141D-01  0.269524D+00
      5 -0.724078D-01 -0.758315D-01  0.225152D-01  0.868005D-01  0.956864D-01
      6  0.686384D-01  0.299606D-01 -0.672555D-01 -0.692883D-01 -0.286571D-01
      7 -0.438890D-01 -0.211623D-02  0.204091D-02  0.527422D-03 -0.794247D-03
      8 -0.382503D-02 -0.435992D-01  0.213089D-01  0.389052D-03  0.102943D-02
      9  0.115225D-01  0.754146D-02 -0.278892D+00  0.679931D-03  0.118790D-02
     10 -0.163327D+00  0.412043D-01 -0.372938D-01 -0.243288D-01  0.155941D-01
     11  0.376554D-01 -0.102193D+00  0.204663D-01 -0.756632D-02  0.859361D-02
     12 -0.269020D-01  0.146108D-01 -0.765175D-01  0.462770D-02 -0.440968D-02
     13 -0.192070D-01 -0.124215D-01  0.331450D-02 -0.235566D-02  0.260012D-02
     14  0.176695D-01  0.910159D-02 -0.111620D-02  0.306839D-02 -0.216514D-02
     15 -0.134249D-01 -0.431956D-02  0.584526D-02 -0.699940D-03  0.178439D-02
     16  0.590801D-02  0.207681D-01  0.892594D-02  0.367278D-03 -0.394253D-04
     17  0.181663D-02 -0.199053D-01 -0.511247D-02 -0.794198D-03  0.135224D-02
     18  0.169478D-02  0.939039D-02  0.108402D-01 -0.285918D-03 -0.280859D-03
     19  0.363743D-03  0.848958D-05 -0.382049D-03  0.499619D-04  0.184118D-05
     20 -0.779783D-03  0.100924D-02  0.128803D-02 -0.523186D-04 -0.314913D-04
     21 -0.709926D-03  0.804707D-03 -0.505384D-03 -0.921077D-05  0.716238D-04
     22  0.931860D-03 -0.397219D-03 -0.466447D-03  0.460393D-03 -0.174189D-03
     23 -0.354209D-02 -0.330450D-02 -0.325091D-02  0.152328D-03  0.164648D-03
     24 -0.577675D-03 -0.829482D-03 -0.261213D-03 -0.189622D-03  0.926122D-04
     25  0.359062D-03  0.101982D-02 -0.621955D-03  0.516497D-03 -0.364237D-03
     26 -0.157511D-02  0.864083D-03 -0.153324D-03  0.975146D-03 -0.357905D-04
     27  0.441999D-03  0.344131D-03 -0.681452D-03 -0.201064D-05  0.172712D-03
     28 -0.156269D-03  0.233802D-02 -0.397090D-02 -0.688489D-03  0.171018D-04
     29 -0.115912D-02  0.597815D-02  0.528954D-02  0.388995D-04 -0.355142D-04
     30 -0.549655D-02  0.704592D-02 -0.478873D-02  0.170435D-02 -0.600241D-03
     31  0.268755D-03 -0.532905D-03 -0.118232D-02  0.505875D-03 -0.148445D-03
     32 -0.819718D-03  0.586626D-03  0.104913D-02  0.251127D-03 -0.388201D-04
     33  0.145511D-02 -0.110434D-03 -0.131178D-02 -0.709300D-03  0.115829D-03
     34 -0.471225D-03  0.341317D-03  0.116677D-03  0.369215D-03 -0.113805D-04
     35 -0.425120D-03 -0.229894D-03  0.603402D-03  0.446290D-04  0.314273D-04
     36  0.810465D-03 -0.908172D-03 -0.192426D-02 -0.312326D-04 -0.266707D-04
     37  0.727533D-03  0.404383D-03 -0.234430D-03  0.170842D-03 -0.114198D-03
     38  0.225476D-02 -0.839959D-02 -0.343416D-02 -0.276561D-03  0.386659D-03
     39  0.791761D-03 -0.899111D-03  0.749582D-03 -0.370487D-03  0.196424D-03
     40 -0.706265D-01 -0.172311D-01  0.142799D-01  0.713369D-03 -0.321477D-01
     41 -0.353099D-01 -0.207936D+00  0.466923D-02 -0.735548D-02 -0.332398D-01
     42  0.508157D-02 -0.291915D-01 -0.696973D-01 -0.873779D-03  0.410658D-02
     43 -0.275120D-02  0.824242D-02  0.192365D-02  0.176146D-02  0.450757D-03
     44  0.191773D-01 -0.383536D-02 -0.397837D-01  0.235348D-02  0.426088D-02
     45  0.956149D-02 -0.791715D-02 -0.300265D-01 -0.505131D-03  0.348560D-02
     46  0.109471D-02 -0.696590D-02 -0.253525D-03 -0.262048D-04  0.737253D-03
     47 -0.179358D-02  0.312548D-02 -0.291612D-02 -0.303245D-03 -0.127137D-03
     48 -0.137685D-02 -0.409969D-02 -0.456119D-02  0.638829D-03  0.245657D-03
                6             7             8             9            10
      6  0.695223D-01
      7  0.269403D-01  0.456917D-01
      8  0.112017D-01 -0.344344D-02  0.568311D-01
      9 -0.802750D-02 -0.649914D-02 -0.494315D-02  0.312144D+00
     10 -0.142132D-01 -0.374058D-02  0.181851D-02 -0.575472D-02  0.564493D+00
     11 -0.267598D-02  0.617808D-02 -0.248413D-03  0.622282D-02  0.567199D-01
     12  0.254029D-02 -0.275397D-01  0.173102D-01 -0.149919D-01  0.316860D-01
     13 -0.233754D-02  0.497518D-04  0.181743D-03 -0.448254D-03 -0.281059D+00
     14  0.137444D-02 -0.382057D-03  0.191905D-03  0.142985D-03 -0.109106D+00
     15  0.106779D-04  0.168603D-02 -0.602451D-03  0.605099D-03  0.201995D-01
     16  0.243223D-03  0.406018D-03 -0.358722D-03 -0.127114D-03 -0.894121D-01
     17 -0.437032D-03 -0.889266D-03  0.464619D-03 -0.742175D-03 -0.847190D-02
     18 -0.411414D-03  0.124485D-02 -0.117331D-02 -0.982236D-04 -0.481743D-02
     19  0.213432D-03 -0.167565D-05  0.256134D-03 -0.898556D-04 -0.893167D-03
     20 -0.153472D-03  0.829497D-03 -0.691489D-03  0.539981D-03  0.176623D-02
     21 -0.367150D-04  0.275652D-03 -0.240900D-03  0.548645D-03 -0.226225D-03
     22  0.622048D-04 -0.173387D-03 -0.877684D-04 -0.208659D-03  0.268663D-02
     23 -0.135190D-03 -0.268886D-03  0.281036D-03  0.266632D-03  0.273635D-01
     24 -0.974497D-04  0.232077D-03 -0.217013D-03  0.338698D-03  0.875263D-02
     25  0.328711D-03 -0.842637D-05  0.129602D-03  0.317684D-04 -0.159683D-03
     26 -0.378333D-04 -0.687342D-04  0.200270D-04 -0.106184D-03 -0.304536D-01
     27  0.250122D-03 -0.147888D-04  0.247032D-03 -0.226106D-04 -0.902522D-02
     28 -0.920065D-03 -0.310042D-03 -0.333131D-04 -0.359279D-03 -0.854726D-02
     29 -0.116556D-03  0.174573D-02 -0.181804D-02  0.903578D-03  0.668536D-02
     30  0.774569D-03  0.183042D-02 -0.151269D-02  0.173431D-02  0.903893D-02
     31  0.112151D-03  0.100377D-03  0.271254D-03  0.133068D-03 -0.247501D-02
     32  0.346326D-03  0.341019D-03 -0.256084D-03 -0.120618D-03 -0.485197D-03
     33 -0.156099D-03 -0.415200D-03  0.868971D-04  0.222098D-03  0.609882D-02
     34  0.114178D-03  0.202024D-03  0.884890D-04 -0.887765D-04 -0.751302D-03
     35 -0.501873D-04  0.170203D-03 -0.407116D-04  0.654169D-04  0.638751D-03
     36 -0.627595D-04 -0.539978D-03  0.610504D-03 -0.391480D-03 -0.556785D-02
     37  0.359994D-03 -0.153963D-03 -0.462117D-04 -0.323819D-03 -0.316708D-02
     38 -0.135223D-03 -0.190325D-02  0.218203D-02 -0.449185D-03 -0.648396D-02
     39 -0.837304D-04 -0.319904D-03  0.362481D-03 -0.339318D-03 -0.300724D-02
     40 -0.724281D-02  0.151349D-02  0.623748D-02  0.401547D-02  0.939539D-02
     41 -0.101101D-01 -0.169482D-02 -0.819400D-02 -0.767232D-02  0.423674D-02
     42  0.363423D-03 -0.589886D-03 -0.357389D-01 -0.136956D-01  0.483930D-02
     43 -0.284265D-02  0.580118D-03 -0.384762D-02 -0.299775D-02 -0.538187D-03
     44 -0.433452D-03  0.153800D-02 -0.458634D-02 -0.235918D-02 -0.760944D-03
     45  0.311622D-02  0.199198D-02 -0.651618D-02  0.801292D-03 -0.160805D-02
     46 -0.168083D-03 -0.793899D-03  0.226984D-02  0.514599D-03  0.182426D-02
     47  0.590548D-04  0.758395D-03 -0.156581D-02 -0.477960D-03 -0.265444D-03
     48 -0.446373D-03 -0.323598D-03 -0.183159D-03  0.651475D-04  0.898639D-03
               11            12            13            14            15
     11  0.505584D+00
     12 -0.191028D-02  0.155360D+00
     13 -0.108627D+00  0.826593D-02  0.293375D+00
     14 -0.105424D+00  0.642245D-02  0.115817D+00  0.109705D+00
     15  0.116933D-01 -0.266017D-01 -0.868417D-02 -0.662717D-02  0.272878D-01
     16 -0.434822D-02 -0.411586D-02  0.414354D-02 -0.261689D-01 -0.860477D-02
     17 -0.207957D+00 -0.192221D-01  0.262481D-02 -0.964795D-02 -0.490043D-02
     18 -0.262705D-01 -0.645416D-01  0.480857D-03  0.418066D-02  0.508067D-02
     19 -0.383997D-03 -0.212787D-02 -0.616653D-04 -0.335974D-04  0.864571D-03
     20 -0.930866D-02 -0.339123D-01 -0.246882D-03  0.154850D-03  0.149432D-02
     21 -0.817046D-02 -0.777153D-02  0.127060D-04 -0.482999D-03  0.260144D-03
     22 -0.360981D-03  0.294935D-02  0.631280D-03  0.354628D-03  0.663084D-03
     23 -0.173246D-01  0.126415D-01 -0.594899D-03  0.133097D-02 -0.174314D-03
     24 -0.585385D-02  0.216777D-02 -0.247729D-03  0.519825D-03 -0.222147D-03
     25 -0.391596D-02 -0.234390D-02  0.111066D-02  0.182340D-04  0.841863D-03
     26 -0.141491D-01  0.837144D-02  0.113114D-02 -0.529100D-02 -0.980506D-03
     27 -0.542955D-02  0.144498D-02  0.450016D-04 -0.214713D-02  0.521163D-03
     28  0.218019D-02  0.163321D-01 -0.113153D-02 -0.449460D-03  0.447927D-02
     29 -0.507834D-02  0.553221D-01 -0.223438D-02 -0.351507D-03 -0.316323D-02
     30  0.123281D-01  0.695008D-01 -0.604540D-03 -0.145908D-02 -0.138759D-01
     31 -0.442702D-03  0.195785D-02  0.233849D-03  0.149181D-03  0.243307D-03
     32  0.580551D-03  0.929279D-03  0.355999D-04 -0.552072D-04  0.358626D-03
     33  0.481077D-03 -0.150214D-01  0.813841D-04  0.128928D-04 -0.459141D-03
     34  0.733817D-03  0.213064D-02  0.360021D-03 -0.164304D-04  0.141585D-03
     35 -0.722692D-03  0.495382D-03  0.562493D-04 -0.188221D-03  0.423115D-03
     36  0.366747D-02 -0.129667D-01  0.905035D-04  0.323336D-03  0.102085D-02
     37 -0.380175D-02 -0.149815D-01  0.110468D-02  0.900664D-03  0.168094D-02
     38 -0.836848D-02 -0.498927D-01  0.163589D-02  0.495943D-03  0.425881D-02
     39 -0.122210D-01 -0.198937D-01 -0.587567D-03 -0.497733D-03  0.121157D-02
     40  0.251416D-01  0.808963D-02  0.294491D-02 -0.161944D-02  0.544886D-03
     41 -0.453363D-01 -0.505386D-02 -0.257324D-03  0.237187D-02  0.495408D-03
     42  0.630359D-02  0.575204D-02  0.454187D-03 -0.348877D-03 -0.342143D-03
     43  0.114462D-04  0.779678D-03  0.311836D-03 -0.165639D-03  0.527893D-03
     44  0.182816D-02 -0.528936D-03  0.122587D-03 -0.380788D-03 -0.674091D-04
     45  0.125904D-02  0.323411D-03  0.224809D-03 -0.990199D-04  0.156911D-03
     46  0.826858D-03  0.119204D-02 -0.450608D-03 -0.358071D-04 -0.459143D-03
     47 -0.475420D-03 -0.117330D-02  0.177263D-03  0.151948D-03  0.327125D-03
     48  0.109900D-03  0.121696D-02 -0.600848D-04 -0.198381D-03 -0.499153D-03
               16            17            18            19            20
     16  0.567746D+00
     17 -0.114061D-01  0.483411D+00
     18  0.700663D-02 -0.320127D-01  0.500601D+00
     19 -0.424186D-01  0.201827D-02  0.120233D-01  0.432828D-01
     20  0.223206D-02 -0.453952D-01 -0.353749D-01 -0.182212D-02  0.522203D-01
     21  0.128289D-01 -0.254710D-01 -0.284023D+00 -0.135202D-01  0.360687D-01
     22 -0.204684D+00  0.992728D-01 -0.832059D-01  0.119545D-02 -0.147883D-02
     23  0.985665D-01 -0.111151D+00  0.549094D-01 -0.348392D-02  0.193201D-02
     24 -0.837215D-01  0.562880D-01 -0.877725D-01 -0.250824D-01  0.158475D-01
     25 -0.239054D+00 -0.858576D-01  0.692319D-01 -0.161242D-02 -0.115597D-03
     26 -0.865333D-01 -0.889599D-01  0.339394D-01  0.363034D-02  0.148881D-02
     27  0.695618D-01  0.351106D-01 -0.694701D-01  0.282844D-01  0.129023D-01
     28  0.134899D-02 -0.145868D-02 -0.746001D-03 -0.777726D-03  0.729435D-03
     29 -0.385051D-03 -0.450176D-02 -0.810669D-02  0.497294D-03 -0.215394D-03
     30  0.327606D-03 -0.671162D-02 -0.495906D-02  0.781464D-04  0.330135D-02
     31 -0.456758D-03  0.165703D-03 -0.280550D-03  0.361020D-03  0.124051D-03
     32  0.416738D-03 -0.256456D-03  0.426957D-03 -0.947535D-04  0.272341D-03
     33  0.408090D-03  0.952459D-03 -0.471847D-03 -0.209459D-03 -0.465653D-03
     34 -0.271272D-03 -0.665721D-04  0.802174D-03  0.265310D-03 -0.162824D-03
     35  0.101884D-03  0.389450D-04 -0.801579D-03 -0.250496D-03  0.267182D-03
     36 -0.720069D-03  0.920911D-03 -0.606084D-03  0.550054D-04 -0.239663D-03
     37  0.194562D-04  0.796163D-03 -0.192642D-03  0.318246D-03 -0.569010D-03
     38  0.597318D-03  0.281368D-02 -0.192801D-02 -0.386627D-03 -0.189029D-02
     39 -0.111059D-03  0.122708D-03 -0.313534D-02 -0.336483D-04 -0.159332D-02
     40 -0.341594D-02  0.169989D-02 -0.142849D-02 -0.598242D-04  0.671427D-04
     41  0.674688D-02 -0.219098D-03  0.252935D-02  0.123200D-04 -0.156962D-03
     42 -0.184656D-02  0.113777D-02 -0.707032D-03 -0.111499D-04  0.131108D-03
     43  0.346637D-03  0.115581D-03 -0.388156D-03  0.234024D-04 -0.554682D-04
     44 -0.312315D-03  0.174553D-03 -0.154435D-03  0.000000D+00  0.264245D-05
     45  0.283328D-03 -0.293263D-03  0.567443D-03 -0.747083D-04  0.441678D-03
     46 -0.573388D-03  0.434463D-03 -0.113937D-02 -0.348369D-04 -0.465583D-03
     47  0.122477D-03 -0.260679D-03  0.726811D-03  0.301338D-04  0.342175D-03
     48 -0.338584D-03  0.370347D-03 -0.893430D-03  0.124115D-04 -0.275758D-03
               21            22            23            24            25
     21  0.313419D+00
     22  0.723774D-03  0.217677D+00
     23 -0.109179D-02 -0.110002D+00  0.122982D+00
     24 -0.135242D-01  0.920573D-01 -0.574340D-01  0.949111D-01
     25  0.734960D-03 -0.191049D-01 -0.969555D-02  0.850119D-02  0.257823D+00
     26 -0.624310D-03  0.134158D-01  0.696644D-02 -0.668723D-02  0.986944D-01
     27 -0.105018D-01 -0.118949D-01 -0.694601D-02  0.422363D-02 -0.770409D-01
     28 -0.338232D-03 -0.106122D-02  0.122217D-02  0.276456D-03 -0.202059D-03
     29  0.435555D-04  0.540949D-04 -0.653265D-03 -0.110768D-02  0.809954D-03
     30  0.200572D-02 -0.925231D-03  0.179306D-02  0.144506D-03  0.995905D-03
     31  0.170919D-03  0.208604D-03 -0.191740D-03  0.249486D-04  0.348439D-03
     32  0.176500D-03 -0.296460D-05  0.211479D-03 -0.223185D-04 -0.111550D-03
     33  0.179897D-03  0.756559D-04 -0.268652D-03  0.737783D-05 -0.316424D-03
     34  0.130777D-03  0.613432D-03 -0.453362D-03 -0.201068D-03 -0.103813D-03
     35  0.272373D-04 -0.249550D-03  0.535114D-03 -0.251537D-03 -0.913543D-04
[...]
    X7        0.04925  -0.00001   0.00000  -0.00102  -0.00087   0.04838
    Y7        3.04554   0.00000   0.00000  -0.00127  -0.00124   3.04430
    Z7        5.90585   0.00000   0.00000   0.00020   0.00020   5.90605
    X8       -1.42170  -0.00001   0.00000  -0.00001   0.00003  -1.42167
    Y8        3.79901   0.00000   0.00000   0.00006   0.00010   3.79911
    Z8        3.01782  -0.00001   0.00000   0.00006   0.00012   3.01793
    X9        1.92512  -0.00001   0.00000  -0.00006  -0.00001   1.92511
    Y9        3.60598   0.00000   0.00000   0.00056   0.00058   3.60655
    Z9        3.21442   0.00000   0.00000   0.00122   0.00114   3.21556
   X10        0.01718   0.00005   0.00000  -0.00001  -0.00015   0.01703
   Y10       -0.13069   0.00011   0.00000   0.00014   0.00017  -0.13052
   Z10       -0.86531   0.00003   0.00000   0.00131   0.00130  -0.86400
   X11        2.04329  -0.00003   0.00000   0.00003  -0.00010   2.04318
   Y11        0.36020   0.00000   0.00000  -0.00057  -0.00056   0.35964
   Z11       -0.82226   0.00004   0.00000   0.00111   0.00103  -0.82123
   X12       -1.30040   0.00000   0.00000   0.00060   0.00047  -1.29992
   Y12        1.47529   0.00000   0.00000   0.00044   0.00047   1.47576
   Z12       -1.01002   0.00000   0.00000  -0.00051  -0.00046  -1.01049
   X13       -0.69007  -0.00005   0.00000  -0.00061  -0.00078  -0.69085
   Y13       -2.28989  -0.00012   0.00000   0.00003   0.00006  -2.28984
   Z13       -1.43239  -0.00003   0.00000   0.00018   0.00021  -1.43219
   X14        2.04217   0.00001   0.00000   0.00012   0.00012   2.04229
   Y14       -4.21188   0.00001   0.00000   0.00017   0.00018  -4.21170
   Z14        3.43650   0.00000   0.00000   0.00015   0.00007   3.43657
   X15        3.24564   0.00000   0.00000  -0.00007  -0.00017   3.24547
   Y15       -4.51645   0.00000   0.00000  -0.00037  -0.00037  -4.51681
   Z15        0.99400   0.00000   0.00000   0.00013   0.00000   0.99400
   X16        1.80756   0.00003   0.00000  -0.00010  -0.00024   1.80732
   Y16       -4.25411  -0.00001   0.00000  -0.00067  -0.00066  -4.25477
   Z16       -0.15040   0.00000   0.00000   0.00015   0.00008  -0.15033
         Item               Value     Threshold  Converged?
 Maximum Force            0.000119     0.000450     YES
 RMS     Force            0.000033     0.000300     YES
 Maximum Displacement     0.001905     0.001800     NO 
 RMS     Displacement     0.000567     0.001200     YES
 Predicted change in Energy=-2.668851D-07
 GradGradGradGradGradGradGradGradGradGradGradGradGradGradGradGradGradGrad


 Test job not archived.
 1\1\GINC-NODE45\Freq\UB3LYP\CBSB7\C4H9O3(2)\GOLDMANM\26-Jun-2019\0\\# 
 freq nosymm b3lyp/cbsb7 iop(7/33=1)\\NBO NRT\\0,2\C,1.1603,-0.8641,2.1
 8801\H,2.13202,-0.45425,1.89039\H,1.13471,-0.8831,3.29043\C,0.01697,-0
 .00497,1.72218\H,-0.95784,-0.48176,1.78065\C,0.07973,1.45808,2.03751\H
 ,0.02606,1.61163,3.12524\H,-0.75233,2.01035,1.59696\H,1.01873,1.9082,1
 .701\C,0.00909,-0.06916,-0.4579\H,1.08126,0.19061,-0.43512\H,-0.68814,
 0.78069,-0.53448\O,-0.36517,-1.21176,-0.75799\O,1.08067,-2.22883,1.818
 52\O,1.71752,-2.39,0.526\H,0.95652,-2.25118,-0.07959\\Version=AM64L-G0
 3RevD.01\HF=-383.4374765\S2=0.763371\S2-1=0.\S2A=0.750058\RMSD=9.369e-
 09\RMSF=3.284e-05\ZeroPoint=0.1282601\Thermal=0.1366825\Dipole=-0.2557
 009,1.8770067,0.6346802\DipoleDeriv=0.3079747,-0.0542101,0.0773874,-0.
 1175192,0.5432562,0.0218145,-0.0863197,0.0810125,0.0906378,-0.0667066,
 -0.0625473,-0.0017406,-0.0354151,-0.0331843,-0.0155259,0.0723845,0.042
 2382,0.0773784,0.0604037,0.0390068,-0.0333539,0.0452229,0.0085721,0.02
 85671,-0.0010626,-0.0230141,-0.1246917,0.1095191,0.0304883,0.0334008,0
 .0035741,0.2265542,0.1088542,0.0203857,0.1386847,-0.0181172,-0.0427715
 ,-0.0185378,-0.0115486,-0.0438489,-0.027812,-0.0082018,-0.0143242,-0.0
 240146,-0.0020095,0.0490672,0.0530275,0.0005143,0.027022,-0.067608,-0.
 0026788,0.0050547,-0.1551354,-0.0315513,0.0933541,-0.0122726,-0.005195
 1,0.0047511,0.0175654,-0.0566796,0.0098967,-0.0322759,-0.1165711,-0.02
 86565,0.0730692,-0.0594861,0.0551707,-0.0069806,0.0003204,-0.0767108,0
 .0705472,0.0613293,-0.0750148,-0.0805452,0.0468307,-0.0294877,0.027959
 3,-0.0126413,0.0650601,0.0528734,0.0707452,0.55614,0.066922,0.1670674,
 -0.0092632,0.7211983,0.2675081,0.1032419,0.0554983,0.7586561,-0.167791
 1,-0.067888,0.0101437,-0.0245554,0.0073296,0.0449122,-0.0135949,0.0019
 655,-0.0029244,-0.0727378,0.1290602,-0.0026137,0.1181413,-0.1361204,0.
 07497,-0.0148861,0.0217822,0.0235519,-0.4905439,-0.0381874,-0.2280606,
 -0.0325973,-0.8301281,-0.4344698,-0.108753,-0.0974766,-0.6347552,-0.33
 82849,0.0301585,-0.0084737,0.123393,-0.476522,-0.0580859,-0.0609786,0.
 0237405,-0.1050199,-0.1865855,0.0930258,-0.0892403,-0.0018835,-0.44451
 03,0.0504041,-0.0318647,-0.0430662,-0.3439806,0.2926338,-0.1805699,0.1
 043684,-0.0827048,0.4704306,-0.0090676,0.132471,-0.1133598,0.2973224\P
 olar=52.7045115,-3.9044277,65.6404024,3.5126551,8.8487481,74.1186713\P
 G=C01 [X(C4H9O3)]\NImag=1\\0.53834185,0.04306357,0.44456909,-0.0515101
 7,-0.02142288,0.51898809,-0.24756708,-0.07772543,0.06531408,0.26952393
 ,-0.07240778,-0.07583154,0.02251521,0.08680051,0.09568639,0.06863845,0
 .02996059,-0.06725553,-0.06928825,-0.02865708,0.06952227,-0.04388896,-
 0.00211623,0.00204091,0.00052742,-0.00079425,0.02694030,0.04569173,-0.
 00382503,-0.04359925,0.02130894,0.00038905,0.00102943,0.01120172,-0.00
 344344,0.05683110,0.01152253,0.00754146,-0.27889232,0.00067993,0.00118
 790,-0.00802750,-0.00649914,-0.00494315,0.31214372,-0.16332725,0.04120
 428,-0.03729384,-0.02432881,0.01559406,-0.01421324,-0.00374058,0.00181
 851,-0.00575472,0.56449276,0.03765543,-0.10219265,0.02046627,-0.007566
 32,0.00859361,-0.00267598,0.00617808,-0.00024841,0.00622282,0.05671985
 ,0.50558386,-0.02690205,0.01461078,-0.07651750,0.00462770,-0.00440968,
 0.00254029,-0.02753973,0.01731022,-0.01499192,0.03168599,-0.00191028,0
 .15535980,-0.01920704,-0.01242155,0.00331450,-0.00235566,0.00260012,-0
 .00233754,0.00004975,0.00018174,-0.00044825,-0.28105861,-0.10862731,0.
 00826593,0.29337459,0.01766951,0.00910159,-0.00111620,0.00306839,-0.00
 216514,0.00137444,-0.00038206,0.00019191,0.00014299,-0.10910623,-0.105
 42414,0.00642245,0.11581694,0.10970487,-0.01342493,-0.00431956,0.00584
 526,-0.00069994,0.00178439,0.00001068,0.00168603,-0.00060245,0.0006051
 0,0.02019951,0.01169327,-0.02660171,-0.00868417,-0.00662717,0.02728783
 ,0.00590801,0.02076808,0.00892594,0.00036728,-0.00003943,0.00024322,0.
 00040602,-0.00035872,-0.00012711,-0.08941211,-0.00434822,-0.00411586,0
 .00414354,-0.02616888,-0.00860477,0.56774582,0.00181663,-0.01990528,-0
 .00511247,-0.00079420,0.00135224,-0.00043703,-0.00088927,0.00046462,-0
 .00074217,-0.00847190,-0.20795738,-0.01922210,0.00262481,-0.00964795,-
 0.00490043,-0.01140605,0.48341080,0.00169478,0.00939039,0.01084020,-0.
 00028592,-0.00028086,-0.00041141,0.00124485,-0.00117331,-0.00009822,-0
 .00481743,-0.02627048,-0.06454158,0.00048086,0.00418066,0.00508067,0.0
 0700663,-0.03201267,0.50060092,0.00036374,0.00000849,-0.00038205,0.000
 04996,0.00000184,0.00021343,-0.00000168,0.00025613,-0.00008986,-0.0008
 9317,-0.00038400,-0.00212787,-0.00006167,-0.00003360,0.00086457,-0.042
 41857,0.00201827,0.01202329,0.04328275,-0.00077978,0.00100924,0.001288
 03,-0.00005232,-0.00003149,-0.00015347,0.00082950,-0.00069149,0.000539
 98,0.00176623,-0.00930866,-0.03391227,-0.00024688,0.00015485,0.0014943
 2,0.00223206,-0.04539522,-0.03537490,-0.00182212,0.05222026,-0.0007099
 3,0.00080471,-0.00050538,-0.00000921,0.00007162,-0.00003672,0.00027565
 ,-0.00024090,0.00054864,-0.00022623,-0.00817046,-0.00777153,0.00001271
 ,-0.00048300,0.00026014,0.01282890,-0.02547098,-0.28402270,-0.01352015
 ,0.03606874,0.31341935,0.00093186,-0.00039722,-0.00046645,0.00046039,-
 0.00017419,0.00006220,-0.00017339,-0.00008777,-0.00020866,0.00268663,-
 0.00036098,0.00294935,0.00063128,0.00035463,0.00066308,-0.20468355,0.0
 9927275,-0.08320590,0.00119545,-0.00147883,0.00072377,0.21767663,-0.00
 354209,-0.00330450,-0.00325091,0.00015233,0.00016465,-0.00013519,-0.00
 026889,0.00028104,0.00026663,0.02736351,-0.01732462,0.01264149,-0.0005
 9490,0.00133097,-0.00017431,0.09856649,-0.11115111,0.05490936,-0.00348
 392,0.00193201,-0.00109179,-0.11000193,0.12298229,-0.00057768,-0.00082
 948,-0.00026121,-0.00018962,0.00009261,-0.00009745,0.00023208,-0.00021
 701,0.00033870,0.00875263,-0.00585385,0.00216777,-0.00024773,0.0005198
 2,-0.00022215,-0.08372153,0.05628796,-0.08777247,-0.02508238,0.0158475
 2,-0.01352418,0.09205735,-0.05743399,0.09491112,0.00035906,0.00101982,
 -0.00062195,0.00051650,-0.00036424,0.00032871,-0.00000843,0.00012960,0
 .00003177,-0.00015968,-0.00391596,-0.00234390,0.00111066,0.00001823,0.
 00084186,-0.23905416,-0.08585759,0.06923187,-0.00161242,-0.00011560,0.
 00073496,-0.01910489,-0.00969555,0.00850119,0.25782276,-0.00157511,0.0
 0086408,-0.00015332,0.00097515,-0.00003579,-0.00003783,-0.00006873,0.0
 0002003,-0.00010618,-0.03045362,-0.01414906,0.00837144,0.00113114,-0.0
 0529100,-0.00098051,-0.08653327,-0.08895990,0.03393941,0.00363034,0.00
 148881,-0.00062431,0.01341579,0.00696644,-0.00668723,0.09869436,0.0983
 0706,0.00044200,0.00034413,-0.00068145,-0.00000201,0.00017271,0.000250
 12,-0.00001479,0.00024703,-0.00002261,-0.00902522,-0.00542955,0.001444
 98,0.00004500,-0.00214713,0.00052116,0.06956182,0.03511058,-0.06947005
 ,0.02828442,0.01290230,-0.01050183,-0.01189487,-0.00694601,0.00422363,
 -0.07704089,-0.03414267,0.07375563,-0.00015627,0.00233802,-0.00397090,
 -0.00068849,0.00001710,-0.00092007,-0.00031004,-0.00003331,-0.00035928
 ,-0.00854726,0.00218019,0.01633208,-0.00113153,-0.00044946,0.00447927,
 0.00134899,-0.00145868,-0.00074600,-0.00077773,0.00072943,-0.00033823,
 -0.00106122,0.00122217,0.00027646,-0.00020206,-0.00084798,-0.00056223,
 0.59807898,-0.00115912,0.00597815,0.00528954,0.00003890,-0.00003551,-0
 .00011656,0.00174573,-0.00181804,0.00090358,0.00668536,-0.00507834,0.0
 5532206,-0.00223438,-0.00035151,-0.00316323,-0.00038505,-0.00450176,-0
 .00810669,0.00049729,-0.00021539,0.00004356,0.00005409,-0.00065326,-0.
 00110768,0.00080995,0.00024025,-0.00039717,0.03611489,0.74108248,-0.00
 549655,0.00704592,-0.00478873,0.00170435,-0.00060024,0.00077457,0.0018
 3042,-0.00151269,0.00173431,0.00903893,0.01232811,0.06950076,-0.000604
 54,-0.00145908,-0.01387588,0.00032761,-0.00671162,-0.00495906,0.000078
 15,0.00330135,0.00200572,-0.00092523,0.00179306,0.00014451,0.00099590,
 0.00157913,0.00033132,0.03361830,0.01954009,0.08042113,0.00026875,-0.0
 0053291,-0.00118232,0.00050587,-0.00014845,0.00011215,0.00010038,0.000
 27125,0.00013307,-0.00247501,-0.00044270,0.00195785,0.00023385,0.00014
 918,0.00024331,-0.00045676,0.00016570,-0.00028055,0.00036102,0.0001240
 5,0.00017092,0.00020860,-0.00019174,0.00002495,0.00034844,0.00055492,0
 .00027464,-0.27409552,-0.02558524,-0.00460006,0.29571546,-0.00081972,0
 .00058663,0.00104913,0.00025113,-0.00003882,0.00034633,0.00034102,-0.0
 0025608,-0.00012062,-0.00048520,0.00058055,0.00092928,0.00003560,-0.00
 005521,0.00035863,0.00041674,-0.00025646,0.00042696,-0.00009475,0.0002
 7234,0.00017650,-0.00000296,0.00021148,-0.00002232,-0.00011155,0.00006
 613,-0.00025184,-0.02972047,-0.06367718,-0.00127489,0.05365960,0.07361
 669,0.00145511,-0.00011043,-0.00131178,-0.00070930,0.00011583,-0.00015
 610,-0.00041520,0.00008690,0.00022210,0.00609882,0.00048108,-0.0150214
 3,0.00008138,0.00001289,-0.00045914,0.00040809,0.00095246,-0.00047185,
 -0.00020946,-0.00046565,0.00017990,0.00007566,-0.00026865,0.00000738,-
 0.00031642,-0.00040158,0.00016323,0.00722780,0.01200499,-0.03188867,0.
 00772739,0.00794637,0.02918827,-0.00047122,0.00034132,0.00011668,0.000
 36922,-0.00001138,0.00011418,0.00020202,0.00008849,-0.00008878,-0.0007
 5130,0.00073382,0.00213064,0.00036002,-0.00001643,0.00014159,-0.000271
 27,-0.00006657,0.00080217,0.00026531,-0.00016282,0.00013078,0.00061343
 ,-0.00045336,-0.00020107,-0.00010381,0.00011711,-0.00012219,-0.1735285
 7,0.10608357,-0.01646665,-0.01481892,0.02004254,-0.00532039,0.16435632
 ,-0.00042512,-0.00022989,0.00060340,0.00004463,0.00003143,-0.00005019,
 0.00017020,-0.00004071,0.00006542,0.00063875,-0.00072269,0.00049538,0.
 00005625,-0.00018822,0.00042311,0.00010188,0.00003894,-0.00080158,-0.0
 0025050,0.00026718,0.00002724,-0.00024955,0.00053511,-0.00025154,-0.00
 009135,0.00007876,0.00005392,0.11407142,-0.16659429,0.01325704,-0.0033
 2788,0.00652077,-0.00093552,-0.12284546,0.20798105,0.00081047,-0.00090
 817,-0.00192426,-0.00003123,-0.00002667,-0.00006276,-0.00053998,0.0006
 1050,-0.00039148,-0.00556785,0.00366747,-0.01296667,0.00009050,0.00032
 334,0.00102085,-0.00072007,0.00092091,-0.00060608,0.00005501,-0.000239
 66,0.00036011,0.00029274,-0.00052451,-0.00024194,-0.00013666,-0.000246
 11,0.00005281,-0.01446957,0.02590425,-0.03624360,0.00104474,-0.0020177
 9,0.01061200,0.01678623,-0.00692035,0.03061991,0.00072753,0.00040438,-
 0.00023443,0.00017084,-0.00011420,0.00035999,-0.00015396,-0.00004621,-
 0.00032382,-0.00316708,-0.00380175,-0.01498148,0.00110468,0.00090066,0
 .00168094,0.00001946,0.00079616,-0.00019264,0.00031825,-0.00056901,-0.
 00002573,0.00039575,-0.00060036,0.00004633,0.00006416,0.00037351,0.000
 14062,-0.14012016,-0.12656074,-0.02115059,-0.00537753,-0.04215421,-0.0
 1661298,0.02348447,0.01316935,0.00336471,0.13796833,0.00225476,-0.0083
 9959,-0.00343416,-0.00027656,0.00038666,-0.00013522,-0.00190325,0.0021
 8203,-0.00044918,-0.00648396,-0.00836848,-0.04989267,0.00163589,0.0004
 9594,0.00425881,0.00059732,0.00281368,-0.00192801,-0.00038663,-0.00189
 029,-0.00085327,-0.00023541,0.00013204,0.00059876,-0.00035663,-0.00017
 765,0.00060062,-0.12567823,-0.48980202,-0.04390368,-0.02614077,-0.0178
 5639,-0.01869365,-0.00326620,-0.04899521,-0.02161560,0.15555093,0.5649
 7023,0.00079176,-0.00089911,0.00074958,-0.00037049,0.00019642,-0.00008
 373,-0.00031990,0.00036248,-0.00033932,-0.00300724,-0.01222096,-0.0198
 9367,-0.00058757,-0.00049773,0.00121157,-0.00011106,0.00012271,-0.0031
 3534,-0.00003365,-0.00159332,-0.00079962,0.00020191,-0.00042975,-0.000
 11941,-0.00010340,-0.00028611,-0.00008524,-0.04140651,-0.10659825,-0.0
 6379398,-0.00528697,-0.00628688,0.00942197,0.00239729,-0.00488785,0.00
 872618,0.05469994,0.13020556,0.07524652,-0.07062650,-0.01723113,0.0142
 7987,0.00071337,-0.03214774,-0.00724281,0.00151349,0.00623748,0.004015
 47,0.00939539,0.02514157,0.00808963,0.00294491,-0.00161944,0.00054489,
 -0.00341594,0.00169989,-0.00142849,-0.00005982,0.00006714,0.00003732,0
 .00023660,0.00122749,0.00005661,0.00008024,0.00061732,-0.00022014,-0.0
 0020708,-0.00108411,0.00151192,0.00014358,0.00035300,-0.00029748,0.000
 24483,0.00017013,-0.00014449,0.00071471,0.00008087,-0.00033247,0.12003
 902,-0.03530988,-0.20793621,0.00466923,-0.00735548,-0.03323985,-0.0101
 1012,-0.00169482,-0.00819400,-0.00767232,0.00423674,-0.04533632,-0.005
 05386,-0.00025732,0.00237187,0.00049541,0.00674688,-0.00021910,0.00252
 935,0.00001232,-0.00015696,-0.00047057,-0.00010462,-0.00206874,-0.0010
 4022,-0.00015548,0.00053650,-0.00002778,-0.00112004,-0.00293850,-0.003
 33693,0.00010245,-0.00026404,0.00031215,-0.00040205,0.00020726,0.00012
 601,-0.00028683,0.00430220,0.00055500,0.02574999,0.33961214,0.00508157
 ,-0.02919152,-0.06969731,-0.00087378,0.00410658,0.00036342,-0.00058989
 ,-0.03573894,-0.01369563,0.00483930,0.00630359,0.00575204,0.00045419,-
 0.00034888,-0.00034214,-0.00184656,0.00113777,-0.00070703,-0.00001115,
 0.00013111,0.00023850,-0.00035039,0.00062868,0.00030532,-0.00010409,-0
 .00024741,-0.00000593,-0.00057991,-0.00025121,-0.00028525,0.00031553,-
 0.00004175,0.00006122,0.00009240,0.00012097,-0.00015390,-0.00011177,0.
 00030078,0.00168228,-0.09089300,0.04739485,0.29732284,-0.00275120,0.00
 824242,0.00192365,0.00176146,0.00045076,-0.00284265,0.00058012,-0.0038
 4762,-0.00299775,-0.00053819,0.00001145,0.00077968,0.00031184,-0.00016
 564,0.00052789,0.00034664,0.00011558,-0.00038816,0.00002340,-0.0000554
 7,0.00008445,0.00013329,-0.00003901,-0.00009588,-0.00004713,0.00017778
 ,-0.00005483,-0.00446503,-0.00578133,-0.00378165,0.00102502,0.00082328
 ,-0.00059141,-0.00003641,0.00132333,0.00163102,-0.01006251,0.01601630,
 -0.00914908,-0.07374710,0.00703638,0.05169141,0.39068734,0.01917732,-0
 .00383536,-0.03978372,0.00235348,0.00426088,-0.00043345,0.00153800,-0.
 00458634,-0.00235918,-0.00076094,0.00182816,-0.00052894,0.00012259,-0.
 00038079,-0.00006741,-0.00031232,0.00017455,-0.00015443,0.00000069,0.0
 0000264,0.00001408,-0.00008703,0.00004861,0.00022487,0.00003478,-0.000
 03049,0.00009776,0.00014630,0.00089806,0.00187002,0.00080516,0.0011142
 9,-0.00054386,0.00073232,-0.00007618,-0.00016340,0.00807646,-0.0040782
 1,0.00439942,-0.00678088,-0.04386962,0.01014700,-0.07537069,0.06814988
 ,0.00956149,-0.00791715,-0.03002646,-0.00050513,0.00348560,0.00311622,
 0.00199198,-0.00651618,0.00080129,-0.00160805,0.00125904,0.00032341,0.
 00022481,-0.00009902,0.00015691,0.00028333,-0.00029326,0.00056744,-0.0
 0007471,0.00044168,0.00023087,0.00011812,-0.00027871,0.00000625,-0.000
 04493,0.00007299,-0.00012570,-0.00239524,-0.00554733,-0.00343351,0.000
 62457,-0.00015712,-0.00038031,-0.00032432,0.00102356,0.00102493,-0.007
 55313,0.01190458,-0.00234526,0.09037246,-0.03257075,-0.18698661,0.1183
 5434,0.00218793,0.39021219,0.00109471,-0.00696590,-0.00025352,-0.00002
 620,0.00073725,-0.00016808,-0.00079390,0.00226984,0.00051460,0.0018242
 6,0.00082686,0.00119204,-0.00045061,-0.00003581,-0.00045914,-0.0005733
 9,0.00043446,-0.00113937,-0.00003484,-0.00046558,-0.00016998,-0.000146
 87,0.00033975,0.00016831,-0.00000924,-0.00020872,0.00018868,0.00586299
 ,0.01076016,0.00391969,-0.00168725,-0.00253404,0.00139839,0.00008587,-
 0.00255608,-0.00246557,-0.00608694,-0.01140844,0.00261743,0.01203031,0
 .00280177,0.03288614,-0.30322153,0.05032476,-0.20902558,0.29213262,-0.
 00179358,0.00312548,-0.00291612,-0.00030325,-0.00012714,0.00005905,0.0
 0075839,-0.00156581,-0.00047796,-0.00026544,-0.00047542,-0.00117330,0.
 00017726,0.00015195,0.00032712,0.00012248,-0.00026068,0.00072681,0.000
 03013,0.00034217,0.00019884,0.00008323,-0.00008240,-0.00012824,-0.0000
 4280,0.00007583,-0.00018690,0.00248864,-0.01253314,-0.00191560,0.00053
 736,-0.00056471,-0.00049331,-0.00091489,0.00118668,0.00110978,-0.00513
 816,0.00428507,-0.00214162,-0.00248159,-0.00280662,-0.00445160,0.05106
 248,-0.01962010,0.03300416,-0.04432028,0.02886884,-0.00137685,-0.00409
 969,-0.00456119,0.00063883,0.00024566,-0.00044637,-0.00032360,-0.00018
 316,0.00006515,0.00089864,0.00010990,0.00121696,-0.00006008,-0.0001983
 8,-0.00049915,-0.00033858,0.00037035,-0.00089343,0.00001241,-0.0002757
 6,-0.00008127,-0.00009268,0.00029462,0.00013413,0.00004599,-0.00004970
 ,0.00014992,0.00381402,0.00628006,0.00435638,-0.00127922,-0.00105997,-
 0.00016680,-0.00018856,-0.00222302,0.00017392,0.00089403,-0.00696366,-
 0.00644253,-0.01834928,0.00420055,-0.03385181,-0.15509105,0.02509332,-
 0.17314167,0.17079598,-0.02154111,0.21398778\\0.00001787,-0.00001975,-
 0.00003967,0.00000009,-0.00000650,0.00000248,-0.00000583,-0.00000293,-
 0.00000232,-0.00003838,-0.00000373,0.00010326,0.00000013,0.00000417,-0
 .00000965,0.00000487,0.00001038,-0.00003130,0.00000745,-0.00000480,0.0
 0000083,0.00001061,0.00000391,0.00000644,0.00000597,-0.00000017,0.0000
 0346,-0.00005148,-0.00010526,-0.00002731,0.00002937,-0.00000180,-0.000
 03567,-0.00000165,0.00000306,-0.00000025,0.00005302,0.00011902,0.00003
 301,-0.00000529,-0.00000632,0.00000189,0.00000188,-0.00000017,-0.00000
 026,-0.00002864,0.00001091,-0.00000493\\\@


 THEREFORE SHALL EVIL COME UPON THEE...
 THOU SHALT NOT KNOW FROM WHENCE IT RISETH...
 AND MISCHIEF SHALL FALL UPON THEE...
 THOU SHALT NOT BE ABLE TO PUT IT OFF...
 AND DESOLATION SHALL COME UPON THEE SUDDENLY...
 WHICH THOU SHALT NOT KNOW...

                                         ISAIAH 47.11
 Job cpu time:  0 days  1 hours  7 minutes 18.6 seconds.
 File lengths (MBytes):  RWF=    125 Int=      0 D2E=      0 Chk=      8 Scr=      1
 Normal termination of Gaussian 03 at Wed Jun 26 12:05:41 2019.
