 Entering Gaussian System, Link 0=g03
 Input=p16freq.gjf
 Output=p16freq.log
 Initial command:
 /opt/g03/l1.exe /scratch/nyee/Gau-9320.inp -scrdir=/scratch/nyee/
 Entering Link 1 = /opt/g03/l1.exe PID=      9322.
  
 Copyright (c) 1988,1990,1992,1993,1995,1998,2003,2004, Gaussian, Inc.
                  All Rights Reserved.
  
 This is the Gaussian(R) 03 program.  It is based on the
 the Gaussian(R) 98 system (copyright 1998, Gaussian, Inc.),
 the Gaussian(R) 94 system (copyright 1995, Gaussian, Inc.),
 the Gaussian 92(TM) system (copyright 1992, Gaussian, Inc.),
 the Gaussian 90(TM) system (copyright 1990, Gaussian, Inc.),
 the Gaussian 88(TM) system (copyright 1988, Gaussian, Inc.),
 the Gaussian 86(TM) system (copyright 1986, Carnegie Mellon
 University), and the Gaussian 82(TM) system (copyright 1983,
 Carnegie Mellon University). Gaussian is a federally registered
 trademark of Gaussian, Inc.
  
 This software contains proprietary and confidential information,
 including trade secrets, belonging to Gaussian, Inc.
  
 This software is provided under written license and may be
 used, copied, transmitted, or stored only in accord with that
 written license.
  
 The following legend is applicable only to US Government
 contracts under FAR:
  
                    RESTRICTED RIGHTS LEGEND
  
 Use, reproduction and disclosure by the US Government is
 subject to restrictions as set forth in subparagraphs (a)
 and (c) of the Commercial Computer Software - Restricted
 Rights clause in FAR 52.227-19.
  
 Gaussian, Inc.
 340 Quinnipiac St., Bldg. 40, Wallingford CT 06492
  
  
 ---------------------------------------------------------------
 Warning -- This program may not be used in any manner that
 competes with the business of Gaussian, Inc. or will provide
 assistance to any competitor of Gaussian, Inc.  The licensee
 of this program is prohibited from giving any competitor of
 Gaussian, Inc. access to this program.  By using this program,
 the user acknowledges that Gaussian, Inc. is engaged in the
 business of creating and licensing software in the field of
 computational chemistry and represents and warrants to the
 licensee that it is not a competitor of Gaussian, Inc. and that
 it will not use this program in any manner prohibited above.
 ---------------------------------------------------------------
  

 Cite this work as:
 Gaussian 03, Revision D.01,
 M. J. Frisch, G. W. Trucks, H. B. Schlegel, G. E. Scuseria, 
 M. A. Robb, J. R. Cheeseman, J. A. Montgomery, Jr., T. Vreven, 
 K. N. Kudin, J. C. Burant, J. M. Millam, S. S. Iyengar, J. Tomasi, 
 V. Barone, B. Mennucci, M. Cossi, G. Scalmani, N. Rega, 
 G. A. Petersson, H. Nakatsuji, M. Hada, M. Ehara, K. Toyota, 
 R. Fukuda, J. Hasegawa, M. Ishida, T. Nakajima, Y. Honda, O. Kitao, 
 H. Nakai, M. Klene, X. Li, J. E. Knox, H. P. Hratchian, J. B. Cross, 
 V. Bakken, C. Adamo, J. Jaramillo, R. Gomperts, R. E. Stratmann, 
 O. Yazyev, A. J. Austin, R. Cammi, C. Pomelli, J. W. Ochterski, 
 P. Y. Ayala, K. Morokuma, G. A. Voth, P. Salvador, J. J. Dannenberg, 
 V. G. Zakrzewski, S. Dapprich, A. D. Daniels, M. C. Strain, 
 O. Farkas, D. K. Malick, A. D. Rabuck, K. Raghavachari, 
 J. B. Foresman, J. V. Ortiz, Q. Cui, A. G. Baboul, S. Clifford, 
 J. Cioslowski, B. B. Stefanov, G. Liu, A. Liashenko, P. Piskorz, 
 I. Komaromi, R. L. Martin, D. J. Fox, T. Keith, M. A. Al-Laham, 
 C. Y. Peng, A. Nanayakkara, M. Challacombe, P. M. W. Gill, 
 B. Johnson, W. Chen, M. W. Wong, C. Gonzalez, and J. A. Pople, 
 Gaussian, Inc., Wallingford CT, 2004.
 
 ******************************************
 Gaussian 03:  AM64L-G03RevD.01 13-Oct-2005
                14-May-2015 
 ******************************************
 %chk=p16freq.chk
 %mem=1000mb
 %nproc=8
 Will use up to    8 processors via shared memory.
 -------------------------------------
 # freq nosymm b3lyp/cbsb7 iop(7/33=1)
 -------------------------------------
 1/10=4,30=1,38=1/1,3;
 2/15=1,17=6,18=5,40=1/2;
 3/5=4,6=6,7=700,11=2,16=1,25=1,30=1,74=-5/1,2,3;
 4//1;
 5/5=2,38=5/2;
 8/6=4,10=90,11=11/1;
 11/6=1,8=1,9=11,15=111,16=1,31=1/1,2,10;
 10/6=1,31=1/2;
 6/7=2,8=2,9=2,10=2,18=1,28=1/1;
 7/8=1,10=1,25=1,30=1,33=1/1,2,3,16;
 1/10=4,30=1/3;
 99//99;
 -------------------
 Title Card Required
 -------------------
 Symbolic Z-matrix:
 Charge =  0 Multiplicity = 1
 C                    -1.8226   -0.06896  -1.76377 
 H                    -1.82052  -0.30281  -0.67608 
 C                    -1.80471  -1.27535  -2.67963 
 H                    -2.79391  -1.74261  -2.55872 
 C                    -0.73364  -2.27828  -2.21964 
 H                    -0.85917  -2.54509  -1.16691 
 H                    -0.79526  -3.19833  -2.80481 
 H                     0.27228  -1.86673  -2.34416 
 C                    -1.64817  -0.86784  -4.15099 
 H                    -1.6588   -1.76354  -4.77693 
 H                    -0.67073  -0.38184  -4.28632 
 O                    -1.83941   1.08181  -2.13395 
 O                    -2.70338  -0.0421   -4.6077 
 H                    -2.62793   0.78191  -4.1109 
 

 GradGradGradGradGradGradGradGradGradGradGradGradGradGradGradGradGradGrad
 Berny optimization.
 Initialization pass.
 Trust Radius=3.00D-01 FncErr=1.00D-07 GrdErr=1.00D-07
 Number of steps in this run=   2 maximum allowed number of steps=   2.
 GradGradGradGradGradGradGradGradGradGradGradGradGradGradGradGradGradGrad

                          Input orientation:                          
 ---------------------------------------------------------------------
 Center     Atomic     Atomic              Coordinates (Angstroms)
 Number     Number      Type              X           Y           Z
 ---------------------------------------------------------------------
    1          6             0       -1.822602   -0.068957   -1.763769
    2          1             0       -1.820518   -0.302808   -0.676080
    3          6             0       -1.804711   -1.275354   -2.679626
    4          1             0       -2.793912   -1.742609   -2.558723
    5          6             0       -0.733640   -2.278275   -2.219642
    6          1             0       -0.859167   -2.545088   -1.166910
    7          1             0       -0.795260   -3.198326   -2.804814
    8          1             0        0.272279   -1.866733   -2.344162
    9          6             0       -1.648168   -0.867843   -4.150989
   10          1             0       -1.658804   -1.763544   -4.776935
   11          1             0       -0.670733   -0.381839   -4.286318
   12          8             0       -1.839411    1.081807   -2.133945
   13          8             0       -2.703379   -0.042104   -4.607699
   14          1             0       -2.627926    0.781914   -4.110898
 ---------------------------------------------------------------------
                    Distance matrix (angstroms):
                    1          2          3          4          5
     1  C    0.000000
     2  H    1.112546   0.000000
     3  C    1.514763   2.227171   0.000000
     4  H    2.092010   2.562200   1.100665   0.000000
     5  C    2.504944   2.732464   1.537735   2.155605   0.000000
     6  H    2.723173   2.488560   2.189655   2.514827   1.093248
     7  H    3.454295   3.737203   2.175427   2.484810   1.092116
     8  H    2.820883   3.099703   2.185441   3.076194   1.093958
     9  C    2.523384   3.524764   1.534757   2.147849   2.560426
    10  H    3.460870   4.356250   2.158315   2.491861   2.767783
    11  H    2.790690   3.789732   2.160031   3.056823   2.805633
    12  O    1.208954   2.010693   2.419748   3.011451   3.538393
    13  O    2.977319   4.037950   2.458856   2.664248   3.818789
    14  H    2.623269   3.691410   2.637911   2.968167   4.065701
                    6          7          8          9         10
     6  H    0.000000
     7  H    1.764521   0.000000
     8  H    1.768123   1.767761   0.000000
     9  C    3.512891   2.823259   2.819667   0.000000
    10  H    3.779221   2.587193   3.107751   1.092795   0.000000
    11  H    3.800771   3.184801   2.620334   1.099951   1.768078
    12  O    3.879485   4.456440   3.632811   2.811792   3.887678
    13  O    4.637357   4.105247   4.160218   1.415591   2.020676
    14  H    4.781685   4.572399   4.306725   1.919175   2.803954
                   11         12         13         14
    11  H    0.000000
    12  O    2.853205   0.000000
    13  O    2.085751   2.851153   0.000000
    14  H    2.283790   2.149427   0.965148   0.000000
 Symmetry turned off by external request.
 Stoichiometry    C4H8O2
 Framework group  C1[X(C4H8O2)]
 Deg. of freedom    36
 Full point group                 C1
 Rotational constants (GHZ):      4.2044228      3.3796580      2.0489548
 Standard basis: CBSB7 (5D, 7F)
 Integral buffers will be    131072 words long.
 Raffenetti 2 integral format.
 Two-electron integral symmetry is turned off.
   156 basis functions,   256 primitive gaussians,   162 cartesian basis functions
    24 alpha electrons       24 beta electrons
       nuclear repulsion energy       244.7355175099 Hartrees.
 NAtoms=   14 NActive=   14 NUniq=   14 SFac= 7.50D-01 NAtFMM=   80 NAOKFM=F Big=F
 One-electron integrals computed using PRISM.
 NBasis=   156 RedAO= T  NBF=   156
 NBsUse=   156 1.00D-06 NBFU=   156
 Harris functional with IExCor=  402 diagonalized for initial guess.
 ExpMin= 1.03D-01 ExpMax= 8.59D+03 ExpMxC= 1.30D+03 IAcc=1 IRadAn=         1 AccDes= 1.00D-06
 HarFok:  IExCor= 402 AccDes= 1.00D-06 IRadAn=         1 IDoV=1
 ScaDFX=  1.000000  1.000000  1.000000  1.000000
 Requested convergence on RMS density matrix=1.00D-08 within 128 cycles.
 Requested convergence on MAX density matrix=1.00D-06.
 Requested convergence on             energy=1.00D-06.
 No special actions if energy rises.
 Keep R1 integrals in memory in canonical form, NReq=    90380474.
 Integral accuracy reduced to 1.0D-05 until final iterations.
 Initial convergence to 1.0D-05 achieved.  Increase integral accuracy.
 SCF Done:  E(RB+HF-LYP) =  -307.763011588     A.U. after   14 cycles
             Convg  =    0.3905D-08             -V/T =  2.0036
             S**2   =   0.0000
 Range of M.O.s used for correlation:     1   156
 NBasis=   156 NAE=    24 NBE=    24 NFC=     0 NFV=     0
 NROrb=    156 NOA=    24 NOB=    24 NVA=   132 NVB=   132
 Symmetrizing basis deriv contribution to polar:
 IMax=3 JMax=2 DiffMx= 0.00D+00
 G2DrvN: will do   15 centers at a time, making    1 passes doing MaxLOS=2.
 FoFDir/FoFCou used for L=0 through L=2.
 DoAtom=TTTTTTTTTTTTTT
          Differentiating once with respect to electric field.
                with respect to dipole field.
          Differentiating once with respect to nuclear coordinates.
          Store integrals in memory, NReq=    87990493.
          There are  45 degrees of freedom in the 1st order CPHF.
    42 vectors were produced by pass  0.
 AX will form  42 AO Fock derivatives at one time.
    42 vectors were produced by pass  1.
    42 vectors were produced by pass  2.
    42 vectors were produced by pass  3.
    42 vectors were produced by pass  4.
    26 vectors were produced by pass  5.
     4 vectors were produced by pass  6.
     1 vectors were produced by pass  7.
 Inv2:  IOpt= 1 Iter= 1 AM= 2.31D-15 Conv= 1.00D-12.
 Inverted reduced A of dimension  241 with in-core refinement.
 Isotropic polarizability for W=    0.000000       51.16 Bohr**3.
 End of Minotr Frequency-dependent properties file   721 does not exist.

 **********************************************************************

            Population analysis using the SCF density.

 **********************************************************************

 Alpha  occ. eigenvalues --  -19.13754 -19.10425 -10.27480 -10.22000 -10.19707
 Alpha  occ. eigenvalues --  -10.18607  -1.07169  -1.01520  -0.81621  -0.69030
 Alpha  occ. eigenvalues --   -0.66211  -0.57562  -0.52462  -0.48665  -0.47158
 Alpha  occ. eigenvalues --   -0.44632  -0.42926  -0.41375  -0.40256  -0.39218
 Alpha  occ. eigenvalues --   -0.36566  -0.33597  -0.27628  -0.26588
 Alpha virt. eigenvalues --   -0.04603   0.03579   0.06359   0.06664   0.07740
 Alpha virt. eigenvalues --    0.09524   0.11270   0.11906   0.13967   0.19065
 Alpha virt. eigenvalues --    0.19095   0.19893   0.23823   0.26356   0.28546
 Alpha virt. eigenvalues --    0.33522   0.35113   0.37522   0.39034   0.41612
 Alpha virt. eigenvalues --    0.42994   0.48524   0.50564   0.51223   0.53235
 Alpha virt. eigenvalues --    0.54339   0.55471   0.55963   0.57239   0.59186
 Alpha virt. eigenvalues --    0.60528   0.61033   0.62623   0.64747   0.65939
 Alpha virt. eigenvalues --    0.74845   0.77921   0.81491   0.88326   0.90805
 Alpha virt. eigenvalues --    0.91265   0.94095   0.95851   1.03115   1.06518
 Alpha virt. eigenvalues --    1.13987   1.17510   1.19647   1.28664   1.31888
 Alpha virt. eigenvalues --    1.36081   1.37153   1.38657   1.43183   1.44921
 Alpha virt. eigenvalues --    1.46001   1.48837   1.50278   1.51374   1.52366
 Alpha virt. eigenvalues --    1.54071   1.56528   1.58832   1.61083   1.67305
 Alpha virt. eigenvalues --    1.69339   1.72106   1.73518   1.77007   1.78667
 Alpha virt. eigenvalues --    1.82696   1.86736   1.89522   1.92290   2.02439
 Alpha virt. eigenvalues --    2.03039   2.08176   2.09269   2.13544   2.16727
 Alpha virt. eigenvalues --    2.23214   2.27991   2.33032   2.37204   2.39783
 Alpha virt. eigenvalues --    2.41625   2.45920   2.47708   2.48519   2.51422
 Alpha virt. eigenvalues --    2.54914   2.55575   2.59922   2.61246   2.66630
 Alpha virt. eigenvalues --    2.70703   2.76416   2.77738   2.82005   2.87842
 Alpha virt. eigenvalues --    2.90225   2.92432   2.96729   3.07733   3.15103
 Alpha virt. eigenvalues --    3.20685   3.30149   3.32737   3.36541   3.45416
 Alpha virt. eigenvalues --    3.48635   3.69693   3.75800   3.77980   3.79848
 Alpha virt. eigenvalues --    3.85011   3.91769   3.95840   4.21364   4.27781
 Alpha virt. eigenvalues --    4.88064   4.91337   5.03226   5.28135   5.56129
 Alpha virt. eigenvalues --    5.65034  23.76867  23.80532  23.82049  23.90538
 Alpha virt. eigenvalues --   49.89816  49.93306
          Condensed to atoms (all electrons):
              1          2          3          4          5          6
     1  C    4.677228   0.405387   0.258468  -0.037299  -0.056117  -0.003126
     2  H    0.405387   0.654996  -0.122888   0.003411   0.000456   0.006556
     3  C    0.258468  -0.122888   5.588569   0.359651   0.272396  -0.028026
     4  H   -0.037299   0.003411   0.359651   0.581897  -0.026535  -0.005277
     5  C   -0.056117   0.000456   0.272396  -0.026535   4.942697   0.392883
     6  H   -0.003126   0.006556  -0.028026  -0.005277   0.392883   0.570610
     7  H    0.005702  -0.001054  -0.028388  -0.009978   0.404458  -0.025962
     8  H   -0.004944   0.000504  -0.043069   0.009028   0.404886  -0.028527
     9  C   -0.048061   0.009631   0.280324  -0.028511  -0.046806   0.006007
    10  H    0.007963  -0.000325  -0.032334  -0.011408  -0.003573  -0.000230
    11  H   -0.011049   0.000693  -0.066977   0.012874   0.003718  -0.000475
    12  O    0.594236  -0.043586  -0.108499   0.001521   0.002526   0.000106
    13  O    0.000491  -0.000520  -0.040046   0.009946   0.004924  -0.000237
    14  H    0.003167   0.001500  -0.012774  -0.002144  -0.000239   0.000073
              7          8          9         10         11         12
     1  C    0.005702  -0.004944  -0.048061   0.007963  -0.011049   0.594236
     2  H   -0.001054   0.000504   0.009631  -0.000325   0.000693  -0.043586
     3  C   -0.028388  -0.043069   0.280324  -0.032334  -0.066977  -0.108499
     4  H   -0.009978   0.009028  -0.028511  -0.011408   0.012874   0.001521
     5  C    0.404458   0.404886  -0.046806  -0.003573   0.003718   0.002526
     6  H   -0.025962  -0.028527   0.006007  -0.000230  -0.000475   0.000106
     7  H    0.560043  -0.029313  -0.003153   0.005354  -0.001634  -0.000264
     8  H   -0.029313   0.571425  -0.004259  -0.001343   0.007234   0.000688
     9  C   -0.003153  -0.004259   4.735991   0.398036   0.398291   0.020805
    10  H    0.005354  -0.001343   0.398036   0.595808  -0.045056   0.000151
    11  H   -0.001634   0.007234   0.398291  -0.045056   0.643139   0.004856
    12  O   -0.000264   0.000688   0.020805   0.000151   0.004856   7.811268
    13  O    0.000057  -0.000066   0.288883  -0.028675  -0.031082  -0.011772
    14  H   -0.000015  -0.000058  -0.043067   0.008390  -0.009044   0.027987
             13         14
     1  C    0.000491   0.003167
     2  H   -0.000520   0.001500
     3  C   -0.040046  -0.012774
     4  H    0.009946  -0.002144
     5  C    0.004924  -0.000239
     6  H   -0.000237   0.000073
     7  H    0.000057  -0.000015
     8  H   -0.000066  -0.000058
     9  C    0.288883  -0.043067
    10  H   -0.028675   0.008390
    11  H   -0.031082  -0.009044
    12  O   -0.011772   0.027987
    13  O    7.885314   0.322247
    14  H    0.322247   0.463655
 Mulliken atomic charges:
              1
     1  C    0.207952
     2  H    0.085239
     3  C   -0.276407
     4  H    0.142821
     5  C   -0.295673
     6  H    0.115624
     7  H    0.124148
     8  H    0.117815
     9  C    0.035889
    10  H    0.107243
    11  H    0.094512
    12  O   -0.300024
    13  O   -0.399462
    14  H    0.240323
 Sum of Mulliken charges=   0.00000
 Atomic charges with hydrogens summed into heavy atoms:
              1
     1  C    0.293190
     2  H    0.000000
     3  C   -0.133585
     4  H    0.000000
     5  C    0.061914
     6  H    0.000000
     7  H    0.000000
     8  H    0.000000
     9  C    0.237644
    10  H    0.000000
    11  H    0.000000
    12  O   -0.300024
    13  O   -0.159139
    14  H    0.000000
 Sum of Mulliken charges=   0.00000
 APT atomic charges:
              1
     1  C    0.723743
     2  H   -0.082159
     3  C   -0.103634
     4  H   -0.013668
     5  C    0.076979
     6  H   -0.012629
     7  H   -0.007850
     8  H   -0.010534
     9  C    0.493056
    10  H   -0.032676
    11  H   -0.067780
    12  O   -0.645588
    13  O   -0.623175
    14  H    0.305915
 Sum of APT charges=   0.00000
 APT Atomic charges with hydrogens summed into heavy atoms:
              1
     1  C    0.641584
     2  H    0.000000
     3  C   -0.117303
     4  H    0.000000
     5  C    0.045967
     6  H    0.000000
     7  H    0.000000
     8  H    0.000000
     9  C    0.392600
    10  H    0.000000
    11  H    0.000000
    12  O   -0.645588
    13  O   -0.317260
    14  H    0.000000
 Sum of APT charges=   0.00000
 Electronic spatial extent (au):  <R**2>=  2701.1841
 Charge=     0.0000 electrons
 Dipole moment (field-independent basis, Debye):
    X=     1.1617    Y=    -2.2924    Z=     1.7273  Tot=     3.0965
 Quadrupole moment (field-independent basis, Debye-Ang):
   XX=   -41.7956   YY=   -35.7772   ZZ=   -49.2272
   XY=     3.1122   XZ=    -9.1611   YZ=     4.5509
 Traceless Quadrupole moment (field-independent basis, Debye-Ang):
   XX=     0.4711   YY=     6.4895   ZZ=    -6.9605
   XY=     3.1122   XZ=    -9.1611   YZ=     4.5509
 Octapole moment (field-independent basis, Debye-Ang**2):
  XXX=   204.9928  YYY=    70.4988  ZZZ=   399.4962  XYY=    59.2714
  XXY=    23.3929  XXZ=   140.3597  XZZ=   115.6032  YZZ=    15.9561
  YYZ=    98.9129  XYZ=    -3.8241
 Hexadecapole moment (field-independent basis, Debye-Ang**3):
 XXXX=  -830.9463 YYYY=  -420.0330 ZZZZ= -2653.2991 XXXY=   -82.6518
 XXXZ=  -691.9867 YYYX=   -67.1473 YYYZ=  -195.3410 ZZZX=  -877.0496
 ZZZY=  -190.9418 XXYY=  -192.2155 XXZZ=  -679.9586 YYZZ=  -393.4248
 XXYZ=   -78.9272 YYXZ=  -173.7684 ZZXY=   -26.6522
 N-N= 2.447355175099D+02 E-N=-1.209749226585D+03  KE= 3.066591475575D+02
  Exact polarizability:  43.744  -4.111  56.335   1.513  -2.215  53.400
 Approx polarizability:  62.175  -2.244  83.263   1.692  -4.130  69.445
 Use density number 0.
 Entering OneElI...
 Calculate overlap and kinetic energy integrals
    NBasis = 162  MinDer = 2  MaxDer = 2
 Requested accuracy = 0.1000D-12
 PrsmSu:  NPrtUS=   1 ThrOK=F
 PRISM was handed   130832159 working-precision words and  1953 shell-pairs
 Entering OneElI...
 Calculate potential energy integrals
    NBasis = 162  MinDer = 2  MaxDer = 2
 Requested accuracy = 0.1000D-12
 PrsmSu:  NPrtUS=   8 ThrOK=T
 PRISM was handed    16318589 working-precision words and  1861 shell-pairs
 PRISM was handed    16318589 working-precision words and  1861 shell-pairs
 PRISM was handed    16318589 working-precision words and  1861 shell-pairs
 PRISM was handed    16318589 working-precision words and  1861 shell-pairs
 PRISM was handed    16318589 working-precision words and  1861 shell-pairs
 PRISM was handed    16318589 working-precision words and  1861 shell-pairs
 PRISM was handed    16318589 working-precision words and  1861 shell-pairs
 PRISM was handed    16318589 working-precision words and  1861 shell-pairs
 Polarizability after L701:
                1             2             3
      1  0.437440D+02
      2 -0.411137D+01  0.563354D+02
      3  0.151325D+01 -0.221469D+01  0.533996D+02
 Dipole Derivatives after L701:
               1            2            3            4            5
      1 0.105237D+00-0.570859D-01-0.395789D-01 0.561348D-01 0.265608D-02
      2 0.494190D-01 0.118526D+01 0.124648D+00-0.715576D-02 0.647050D-03
      3-0.293450D-02-0.735538D-01 0.880732D+00-0.885248D-03 0.652388D-01
               6            7            8            9           10
      1 0.783180D-02 0.110072D+00 0.340580D-01-0.238322D-01-0.932665D-01
      2 0.314918D-01-0.116833D-01-0.242603D+00-0.127384D+00-0.275575D-01
      3-0.303258D+00-0.152372D-01-0.790228D-01-0.178372D+00 0.429622D-01
              11           12           13           14           15
      1-0.270564D-01 0.355007D-01 0.117683D+00 0.225729D-01-0.240675D-01
      2 0.302644D-01-0.201469D-01-0.137943D-01 0.850791D-01-0.326169D-01
      3 0.709893D-02 0.219971D-01-0.778148D-02 0.843333D-02 0.281761D-01
              16           17           18           19           20
      1 0.446835D-01 0.188328D-01-0.153285D-02 0.489356D-01 0.188129D-01
      2 0.891275D-02 0.578992D-01 0.789064D-01 0.393296D-02-0.859570D-01
      3 0.288933D-01 0.400484D-01-0.140469D+00-0.197786D-01-0.773293D-01
              21           22           23           24           25
      1-0.813497D-02-0.113874D+00-0.887573D-01 0.332987D-01 0.569349D+00
      2-0.105383D+00-0.207041D-01 0.132573D-01 0.176011D-01-0.128056D+00
      3 0.134722D-01 0.110904D-01 0.165709D-01 0.690158D-01 0.970710D-01
              26           27           28           29           30
      1-0.185051D+00 0.129771D+00 0.455254D-01 0.302159D-01 0.105553D-05
      2 0.439077D+00-0.116230D+00-0.350813D-02-0.999383D-01-0.827478D-01
      3-0.151217D+00 0.470743D+00-0.113108D-01-0.926353D-01-0.436161D-01
              31           32           33           34           35
      1-0.196830D+00-0.797129D-01-0.225397D-01-0.284860D+00 0.759224D-01
      2-0.322419D-01-0.123853D-01 0.223667D-01-0.114242D-01-0.106076D+01
      3 0.243178D-01 0.477937D-01 0.587479D-02-0.251380D-01 0.104630D+00
              36           37           38           39           40
      1-0.126950D-01-0.669609D+00 0.255642D+00-0.686392D-01 0.260820D+00
      2 0.101536D+00 0.237521D+00-0.588515D+00 0.214182D+00-0.436608D-01
      3-0.591144D+00-0.127979D+00 0.223621D+00-0.611403D+00 0.671016D-02
              41           42
      1-0.210501D-01-0.538244D-02
      2 0.278674D+00-0.106223D+00
      3-0.396761D-01 0.378252D+00
 Hessian after L701:
                1             2             3             4             5
      1  0.279177D+02
      2  0.575551D+00  0.505160D+01
      3 -0.155833D+00  0.243329D+01  0.178369D+02
      4 -0.399406D+01  0.912382D-02 -0.457868D-02  0.357231D+01
      5  0.239389D-02 -0.403886D+01 -0.581144D+00  0.389115D-01  0.402001D+01
      6  0.338324D-01 -0.603382D+00 -0.102173D+01  0.211307D-02  0.760100D+00
      7 -0.584757D+01 -0.166853D+00 -0.234825D+00  0.425748D+00 -0.224547D-02
      8 -0.170302D+00 -0.156118D+01  0.321742D+01  0.527155D-02  0.367851D+00
      9 -0.205609D+00  0.300137D+01 -0.363091D+01  0.189005D-01 -0.313447D+00
     10  0.414667D-01 -0.382497D-01 -0.330491D-01 -0.587157D-02  0.120003D-01
     11 -0.762122D-01  0.293425D-01 -0.200585D-01  0.154497D-01  0.514159D-03
     12 -0.490696D-01 -0.196513D-01  0.600026D-01  0.151118D-01  0.187178D-01
     13 -0.351497D-01 -0.100396D+00  0.141050D-02 -0.285633D-01 -0.212866D-01
     14 -0.987663D-01  0.168485D+00  0.436220D-01 -0.309692D-01 -0.866373D-02
     15 -0.495157D-01  0.129787D+00 -0.612547D-01 -0.299628D-01  0.408285D-01
     16 -0.215729D-01 -0.900880D-03 -0.351279D-03 -0.135061D-01 -0.250182D-01
     17 -0.116014D-01  0.166062D-02 -0.966676D-02 -0.289896D-01  0.387653D-01
     18  0.112182D-01 -0.231777D-01 -0.108671D-01  0.117248D-03  0.275672D-02
     19 -0.245246D-01 -0.482839D-01 -0.207928D-01 -0.374280D-03  0.202035D-02
     20 -0.518302D-01  0.124421D+00  0.620310D-01  0.880706D-03 -0.474385D-02
     21 -0.193931D-01  0.532027D-01 -0.239516D-01  0.103480D-02 -0.262025D-02
     22  0.145652D-01 -0.142179D-01 -0.597791D-02  0.705763D-02 -0.650648D-02
     23  0.631972D-02 -0.126474D-01  0.196376D-02 -0.460170D-02 -0.198405D-02
     24 -0.117359D-01  0.965981D-02 -0.134185D-01 -0.735916D-02  0.451301D-02
     25 -0.324570D-01  0.138101D-01  0.118480D+00 -0.524644D-01 -0.582113D-03
     26  0.230255D-01 -0.795222D-01  0.849875D-01 -0.229312D-02 -0.581473D-01
     27  0.891656D-01  0.219515D-01  0.230793D+00 -0.854960D-02  0.245250D-01
     28 -0.454547D-01 -0.413726D-02 -0.854121D-02 -0.770183D-03  0.237632D-03
     29 -0.867898D-04  0.125761D-02  0.128539D+00  0.227404D-04 -0.581880D-03
     30 -0.211978D-02  0.101036D+00  0.144306D+00  0.102989D-03 -0.330218D-02
     31  0.354583D-02  0.116227D-01  0.271382D-01 -0.164714D-02  0.133065D-02
     32  0.189613D-03  0.184899D-01  0.364616D-02  0.297781D-03 -0.362654D-02
     33  0.456040D-01 -0.350015D-02 -0.904074D-01 -0.584815D-02 -0.788596D-03
     34 -0.177605D+02 -0.196037D+00  0.684500D-01  0.111464D+00  0.465239D-02
     35 -0.191421D+00  0.624591D+00 -0.533717D+01 -0.114695D-02 -0.294227D+00
     36  0.700001D-01 -0.493569D+01 -0.138815D+02  0.302867D-02  0.676302D-01
     37 -0.185372D+00 -0.126195D-01  0.207091D+00 -0.148584D-01 -0.272861D-02
     38  0.342522D-01 -0.354837D+00  0.918844D-01  0.122773D-02 -0.150748D-01
     39  0.215197D+00 -0.103866D+00  0.420594D+00  0.110872D-01 -0.830953D-02
     40 -0.306182D-01 -0.284121D-01  0.413794D-01 -0.445931D-02 -0.317918D-02
     41 -0.415117D-01  0.272036D-01 -0.119352D+00 -0.318494D-02 -0.123304D-02
     42  0.282588D-01 -0.610311D-01  0.414251D-01  0.480207D-02 -0.945980D-02
                6             7             8             9            10
      6  0.690933D+00
      7 -0.148358D-01  0.157744D+02
      8 -0.364567D+00  0.144287D+01  0.127312D+02
      9 -0.539203D+00 -0.439914D+00 -0.890387D+00  0.123870D+02
     10  0.322272D-01 -0.189200D+01  0.909027D+00 -0.247086D+00  0.160383D+01
     11  0.340362D-01  0.103256D+01 -0.384617D+01 -0.103807D+00 -0.128368D+01
     12  0.149749D-01 -0.319914D+00 -0.122665D+00 -0.420990D+01  0.352456D+00
     13 -0.308915D-01 -0.279013D+01 -0.223620D+01  0.966594D+00  0.383881D-01
     14  0.647933D-01 -0.223900D+01 -0.293987D+01 -0.955875D+00  0.658509D-01
     15  0.303676D-01  0.971521D+00 -0.975597D+00 -0.479966D+01 -0.505735D-01
     16 -0.100466D-01  0.141052D-01  0.227840D-01 -0.411029D-01 -0.132480D-01
     17  0.313803D-01  0.192383D-01  0.156878D-01  0.158475D-01  0.871008D-02
     18 -0.321741D-01 -0.688367D-02 -0.345854D-01  0.106519D+00 -0.426976D-02
     19  0.175188D-02  0.134840D-01  0.304606D-01  0.127378D-01 -0.391432D-01
     20  0.510147D-02  0.417494D-02  0.981233D-01  0.138125D-01  0.408835D-01
     21  0.459654D-02 -0.147554D-01  0.709803D-01  0.496378D-01 -0.132256D-03
     22 -0.212861D-01  0.152829D-01  0.345695D-01 -0.588523D-02  0.147565D+00
     23  0.335102D-02  0.106252D+00  0.823435D-01  0.587427D-02 -0.165854D-02
     24  0.432989D-02 -0.348727D-01  0.212863D-02  0.931674D-01  0.102918D-01
     25 -0.155531D-02 -0.571039D+01 -0.255012D-01 -0.193610D+00  0.107925D+00
     26  0.373444D-01 -0.193069D-01 -0.496197D+01 -0.148615D+01  0.670911D-01
     27  0.213650D+00 -0.148824D+00 -0.157460D+01 -0.702875D+00 -0.499110D-02
     28  0.359381D-04  0.687793D-01 -0.583795D-03 -0.507314D-01  0.695343D-02
     29  0.792378D-02 -0.617249D-02  0.566938D-01 -0.353607D-01 -0.503828D-02
     30  0.248315D-02 -0.503480D-01 -0.103464D+00 -0.352852D-01  0.494017D-01
     31 -0.162461D-01  0.687282D-01 -0.192262D+00  0.135073D+00  0.832401D-01
     32 -0.379360D-02 -0.153009D+00  0.430765D-01  0.159655D+00  0.773884D-01
     33  0.187996D-01  0.182399D+00  0.228302D+00  0.875123D-01 -0.968313D-01
     34  0.437829D-03  0.225698D+00 -0.716826D-01 -0.402826D-01  0.461487D-02
     35  0.391239D-01 -0.148867D+00  0.305062D-01  0.923903D+00  0.138229D+00
     36  0.531561D+00 -0.407489D-01  0.787894D+00  0.609456D+00  0.644653D-02
     37  0.159888D-01 -0.340675D+00  0.190935D+00  0.151001D+00 -0.880778D-01
     38  0.114269D-01  0.101483D+00 -0.153908D+00 -0.358947D+00  0.261848D-03
     39  0.601047D-01  0.216868D+00 -0.316023D+00  0.643791D+00 -0.183487D-01
     40  0.847421D-02 -0.254960D-01  0.606105D-01 -0.600842D-01  0.435985D-02
     41 -0.228396D-01  0.288738D-01  0.376307D-01  0.235135D-01  0.918139D-02
     42  0.213066D-01 -0.648657D-01  0.751581D-01 -0.592519D-01  0.445814D-02
               11            12            13            14            15
     11  0.358855D+01
     12  0.245120D+00  0.419249D+01
     13  0.833958D-01 -0.491031D-01  0.122683D+02
     14  0.376913D-01  0.149160D-01  0.160259D+01  0.115440D+02
     15  0.126870D-01  0.317466D-01 -0.626775D+00  0.726845D+00  0.131848D+02
     16  0.984623D-02 -0.176091D-01 -0.373833D+01  0.546545D-01 -0.183996D+00
     17  0.410715D-02  0.791022D-02  0.916919D-01 -0.360887D+01 -0.684114D+00
     18  0.115549D-01 -0.140721D-02 -0.272629D+00 -0.548044D+00 -0.143218D+01
     19  0.420650D-01  0.942646D-02 -0.380295D+01  0.326422D-01  0.774121D-02
     20 -0.106734D-01 -0.525247D-02  0.112822D+00 -0.194466D+01  0.122492D+01
     21 -0.647140D-02  0.246672D-01  0.530725D-01  0.108049D+01 -0.311061D+01
     22  0.114362D-01  0.611056D-02 -0.160279D+01  0.984915D+00 -0.298680D+00
     23 -0.329970D-01  0.102042D-02  0.778300D+00 -0.359385D+01 -0.886576D-01
     24  0.176297D-02 -0.306052D-01 -0.215861D+00 -0.792976D-01 -0.387817D+01
     25  0.347694D-01  0.384183D-01 -0.126295D+00 -0.742985D-02  0.740505D-01
     26  0.943243D-01  0.292003D-02  0.132539D-01 -0.460529D-01 -0.146720D+00
     27  0.566103D-02 -0.486624D-01 -0.241498D-01 -0.595043D-01  0.142861D+00
     28 -0.682766D-03  0.500328D-01 -0.120767D-01  0.702449D-03  0.265579D-01
     29  0.291304D-01 -0.517283D-02  0.443786D-02 -0.272200D-01  0.321958D-01
     30  0.702521D-03 -0.717437D-01  0.270182D-01  0.122930D-01  0.406674D-01
     31  0.849305D-01 -0.941602D-01 -0.400008D-01  0.371121D-01 -0.411444D-01
     32  0.469844D-02 -0.532858D-01  0.234092D-01  0.408550D-01 -0.875323D-01
     33 -0.622737D-01  0.210725D-01 -0.224834D-01 -0.779580D-01  0.193119D-01
     34  0.887117D-01  0.878232D-02 -0.131777D+00 -0.208252D+00 -0.525781D-02
     35  0.114756D+00  0.275458D-02 -0.169701D+00  0.365812D+00  0.218591D-01
     36  0.209512D-02 -0.499583D-01  0.876052D-02 -0.247453D-01 -0.196261D+00
     37 -0.432922D-01  0.501340D-01  0.533353D-02 -0.185227D+00  0.199355D+00
     38 -0.638854D-02 -0.969754D-01 -0.168736D+00 -0.184155D-02 -0.186337D+00
     39 -0.138964D+00  0.743388D-01  0.182300D+00 -0.195468D+00  0.389935D-01
     40  0.695046D-03 -0.616889D-03 -0.400541D-02 -0.882012D-02  0.667958D-02
     41 -0.688615D-02  0.964375D-02 -0.135826D-01  0.142075D-01 -0.201648D-01
     42  0.179542D-01 -0.701434D-02  0.273705D-02 -0.207019D-02 -0.106273D-01
               16            17            18            19            20
     16  0.376328D+01
     17  0.476386D-02  0.338996D+01
     18  0.127622D+00  0.767941D+00  0.124640D+01
     19  0.531321D-01  0.653233D-02  0.122287D-01  0.382707D+01
     20 -0.186314D-02  0.549708D-01 -0.250874D-01  0.420117D-01  0.157065D+01
     21 -0.613027D-02 -0.556908D-01 -0.305754D-01 -0.121845D-01 -0.113416D+01
     22  0.142676D-01 -0.448299D-01  0.620357D-01  0.236047D-01 -0.693100D-01
     23 -0.313991D-01  0.465303D-01  0.246373D-01 -0.787041D-01 -0.100649D-01
     24  0.855824D-01  0.529460D-01  0.100274D-01 -0.420610D-01 -0.391467D-01
     25 -0.320976D-01 -0.236021D-01  0.472103D-01 -0.233994D-01 -0.244959D-01
     26 -0.198260D-01  0.601786D-02 -0.890158D-01 -0.124906D-02  0.356057D-01
     27  0.393877D-01 -0.858141D-01  0.108644D+00  0.132539D-02 -0.256791D-01
     28 -0.167580D-02 -0.159898D-04  0.726933D-03 -0.127471D-01 -0.167822D-01
     29 -0.456936D-05 -0.331207D-02  0.760978D-02 -0.102035D-01 -0.746465D-02
     30  0.460279D-03 -0.240797D-02  0.108672D-01  0.212428D-01 -0.511846D-01
     31  0.394476D-03  0.288118D-02 -0.774437D-02  0.149689D-02  0.824364D-02
     32  0.964872D-03  0.415147D-03 -0.467473D-02  0.147910D-02  0.224399D-02
     33 -0.981658D-03  0.344646D-05  0.122263D-02 -0.844933D-03  0.196975D-02
     34 -0.164570D-01 -0.168433D-01  0.126876D-01 -0.896852D-02 -0.108223D-01
     35 -0.104673D-01  0.532486D-01 -0.638921D-01 -0.178907D-02  0.504348D-01
     36  0.363933D-02 -0.236553D-01 -0.463686D-03  0.593522D-03  0.350462D-02
     37 -0.770795D-02 -0.675721D-02  0.163147D-01 -0.616957D-02 -0.321104D-01
     38 -0.207279D-02 -0.408248D-02 -0.152625D-01 -0.152956D-01  0.299453D-01
     39  0.301850D-02 -0.143852D-01  0.262997D-01  0.854403D-02 -0.333812D-01
     40 -0.586201D-03 -0.117808D-02  0.136477D-02 -0.511986D-03 -0.180285D-02
     41 -0.146139D-02  0.490357D-02 -0.107597D-01 -0.168597D-02  0.112104D-01
     42  0.507589D-03 -0.294256D-03 -0.231437D-02  0.291379D-03  0.255040D-02
               21            22            23            24            25
     21  0.304737D+01
     22 -0.161212D-01  0.133553D+01
     23 -0.109366D-01 -0.741721D+00  0.353591D+01
     24  0.634108D-01  0.184026D+00  0.908221D-01  0.376624D+01
     25 -0.255517D-02  0.113523D-01  0.130707D-01  0.859749D-02  0.150840D+02
     26 -0.311339D-02 -0.145529D-01 -0.236016D-01 -0.728650D-02  0.310612D+01
     27 -0.142690D-01  0.161735D-01  0.476389D-02 -0.452336D-02 -0.174589D+01
     28  0.158904D-01  0.530998D-03  0.179286D-02 -0.224747D-02 -0.426976D+01
     29 -0.235441D-01  0.924703D-02  0.242987D-02  0.248463D-02 -0.118501D+00
     30  0.194874D-01  0.666344D-02  0.477579D-02 -0.247600D-02 -0.844574D-01
     31  0.278127D-02 -0.232360D-01 -0.122921D-01  0.133823D-01 -0.175050D+01
     32  0.700215D-02 -0.317138D-01  0.119444D-02 -0.391441D-01  0.111138D+01
     33 -0.345146D-02  0.364306D-01 -0.365906D-01  0.240157D-01 -0.446806D+00
     34 -0.334031D-02  0.236104D-01 -0.299009D-01 -0.481437D-02 -0.459929D+00
     35  0.276734D-01 -0.888285D-01  0.205988D-01  0.963287D-02  0.133153D-01
     36 -0.940877D-02  0.127372D-02  0.166778D-02 -0.267112D-01 -0.316193D-02
     37  0.172017D-02  0.317012D-01 -0.540582D-02  0.166888D-01 -0.287788D+01
     38 -0.570529D-02 -0.180939D-01 -0.122623D-01 -0.796614D-02 -0.405897D+01
     39 -0.172823D-01  0.380848D-01 -0.230771D-02 -0.409176D-02  0.219059D+01
     40  0.113042D-03  0.955870D-03 -0.517853D-04  0.382658D-03  0.131920D+00
     41  0.288905D-02 -0.103939D-01 -0.159964D-02 -0.110906D-02 -0.333793D-01
     42  0.372642D-03 -0.284754D-02 -0.383781D-03 -0.118739D-02  0.689397D-03
               26            27            28            29            30
     26  0.152628D+02
     27  0.160564D+01  0.142873D+02
     28 -0.162619D+00 -0.105730D+00  0.445313D+01
     29 -0.225549D+01  0.133371D+01  0.241710D+00  0.193818D+01
     30  0.142114D+01 -0.335331D+01  0.196498D+00 -0.158843D+01  0.304834D+01
     31  0.119711D+01 -0.251447D+00  0.356176D-01 -0.180680D+00 -0.766381D-01
     32 -0.380627D+01 -0.106313D+00 -0.173991D+00 -0.808443D-01 -0.910959D-01
     33 -0.209246D+00 -0.432379D+01 -0.591550D-01 -0.715464D-01  0.133883D+00
     34 -0.449272D-01 -0.343528D-01 -0.176460D-01 -0.110995D-02 -0.745155D-03
     35  0.265931D+00  0.582278D+00 -0.408744D-02  0.548523D-01  0.596278D-01
     36  0.539272D+00 -0.318009D-01 -0.376882D-02  0.450644D-01  0.185216D-01
     37 -0.419698D+01  0.211099D+01 -0.188146D+00  0.124591D+00 -0.651662D-01
     38 -0.449318D+01 -0.162502D+01  0.177683D+00  0.145445D+00  0.177148D+00
     39 -0.178282D+01 -0.661583D+01 -0.425034D-01  0.117457D+00  0.639268D-01
     40  0.551463D-01  0.668966D-01 -0.167445D-01 -0.582133D-01 -0.219131D-01
     41  0.595022D-01 -0.101596D+00 -0.592272D-01  0.146931D+00  0.631638D-01
     42  0.330505D-01  0.111777D+00 -0.170652D-01  0.490752D-01 -0.196685D-01
               31            32            33            34            35
     31  0.148256D+01
     32 -0.115372D+01  0.379053D+01
     33  0.548060D+00  0.105317D+00  0.400062D+01
     34 -0.197253D-01 -0.227605D-01 -0.506092D-01  0.184862D+02
     35 -0.874403D-01 -0.258973D-01  0.929918D-01  0.374370D+00 -0.879008D+00
     36 -0.855149D-01  0.489403D-01  0.419236D-01 -0.345009D+00  0.310579D+01
     37  0.235331D+00  0.254983D+00 -0.140804D+00 -0.301756D+00  0.128029D+00
     38  0.226228D+00  0.257132D-01  0.383865D-01  0.144521D+00 -0.134039D+00
     39 -0.145691D+00  0.647155D-01  0.348371D-01  0.229523D+00  0.439940D+00
     40 -0.758049D-01  0.651060D-01  0.118702D-01 -0.134826D+00  0.498053D-01
     41  0.569315D-01 -0.105774D-01 -0.506688D-02 -0.991973D-02 -0.247560D+00
     42 -0.784764D-02 -0.343593D-02  0.344461D-01  0.164530D+00  0.954886D-01
               36            37            38            39            40
     36  0.125291D+02
     37  0.201063D+00  0.101708D+02
     38  0.406325D+00  0.369268D+01  0.731704D+01
     39  0.328395D+00 -0.287517D+01 -0.506744D+00  0.102304D+02
     40  0.183398D+00 -0.643249D+01 -0.115167D+00 -0.135000D-01  0.658831D+01
     41 -0.240880D-01  0.938984D-01 -0.234253D+01  0.248015D+01 -0.145383D-01
     42  0.137145D+00  0.110796D+00  0.207779D+01 -0.528448D+01 -0.224444D+00
               41            42
     41  0.230880D+01
     42 -0.227439D+01  0.503807D+01
 ReadGW:  IGet=0 IStart=         102 Next=        6311 LGW=        6209.
 ICntrl=12127.
 Symmetry not used in FoFDir.
 MinBra= 0 MaxBra= 2 Meth= 1.
 IRaf=       0 NMat=   1 IRICut=       1 DoRegI=T DoRafI=F ISym2E= 0 JSym2E=0.
 PrsmSu:  NPrtUS=   8 ThrOK=T
 PRISM was handed    16311765 working-precision words and  1908 shell-pairs
 PRISM was handed    16311765 working-precision words and  1908 shell-pairs
 PRISM was handed    16311765 working-precision words and  1908 shell-pairs
 PRISM was handed    16311765 working-precision words and  1908 shell-pairs
 PRISM was handed    16311765 working-precision words and  1908 shell-pairs
 PRISM was handed    16311765 working-precision words and  1908 shell-pairs
 PRISM was handed    16311765 working-precision words and  1908 shell-pairs
 PRISM was handed    16311765 working-precision words and  1908 shell-pairs
 Pruned (  75, 302) grid will be used in CalDFT.
 CkSvGd:  ISavGI=        -1 IRadAn=       4 IRASav=       4 ISavGd=        -1.
 CalDSu:  NPrtUS=   8 ThrOK=T
 IPart= 6 IRanGd=          0 ScrnBf=T ScrnGd=T RCrit=4.00D+00 DoMicB=T.
 IPart= 1 IRanGd=          0 ScrnBf=T ScrnGd=T RCrit=4.00D+00 DoMicB=T.
 IPart= 3 IRanGd=          0 ScrnBf=T ScrnGd=T RCrit=4.00D+00 DoMicB=T.
 CutRad = 1000.00    CtRdIn =    0.00    XCrit =  15.00   ICut = 0
 IPart= 7 IRanGd=          0 ScrnBf=T ScrnGd=T RCrit=4.00D+00 DoMicB=T.
 CutRad = 1000.00    CtRdIn =    0.00    XCrit =  15.00   ICut = 0
 CutRad = 1000.00    CtRdIn =    0.00    XCrit =  15.00   ICut = 0
 IPart= 4 IRanGd=          0 ScrnBf=T ScrnGd=T RCrit=4.00D+00 DoMicB=T.
 CutRad = 1000.00    CtRdIn =    0.00    XCrit =  15.00   ICut = 0
 CutRad = 1000.00    CtRdIn =    0.00    XCrit =  15.00   ICut = 0
 IPart= 0 IRanGd=          0 ScrnBf=T ScrnGd=T RCrit=4.00D+00 DoMicB=T.
 IPart= 2 IRanGd=          0 ScrnBf=T ScrnGd=T RCrit=4.00D+00 DoMicB=T.
 IPart= 5 IRanGd=          0 ScrnBf=T ScrnGd=T RCrit=4.00D+00 DoMicB=T.
 CutRad = 1000.00    CtRdIn =    0.00    XCrit =  15.00   ICut = 0
 CutRad = 1000.00    CtRdIn =    0.00    XCrit =  15.00   ICut = 0
 CutRad = 1000.00    CtRdIn =    0.00    XCrit =  15.00   ICut = 0
 IPart= 1        12252 of        13724 points in      27 batches and       69 microbatches, Max-NSigAt=      14 Max-NSgAt2=      14
 IPart= 0        12835 of        14178 points in      28 batches and       94 microbatches, Max-NSigAt=      14 Max-NSgAt2=      14
 IPart= 2        12743 of        14508 points in      31 batches and       91 microbatches, Max-NSigAt=      14 Max-NSgAt2=      14
 IPart= 7        12063 of        13870 points in      28 batches and       86 microbatches, Max-NSigAt=      14 Max-NSgAt2=      14
 IPart= 6        11921 of        13442 points in      27 batches and       75 microbatches, Max-NSigAt=      14 Max-NSgAt2=      14
 IPart= 3        12012 of        13946 points in      31 batches and       98 microbatches, Max-NSigAt=      14 Max-NSgAt2=      14
 IPart= 4        12314 of        13646 points in      27 batches and       83 microbatches, Max-NSigAt=      14 Max-NSgAt2=      14
 IPart= 5        12407 of        14408 points in      30 batches and       83 microbatches, Max-NSigAt=      14 Max-NSgAt2=      14
 Polarizability after L703:
                1             2             3
      1  0.437440D+02
      2 -0.411137D+01  0.563354D+02
      3  0.151325D+01 -0.221469D+01  0.533996D+02
 Dipole Derivatives after L703:
               1            2            3            4            5
      1 0.105237D+00-0.570859D-01-0.395789D-01 0.561348D-01 0.265608D-02
      2 0.494190D-01 0.118526D+01 0.124648D+00-0.715576D-02 0.647050D-03
      3-0.293450D-02-0.735538D-01 0.880732D+00-0.885248D-03 0.652388D-01
               6            7            8            9           10
      1 0.783180D-02 0.110072D+00 0.340580D-01-0.238322D-01-0.932665D-01
      2 0.314918D-01-0.116833D-01-0.242603D+00-0.127384D+00-0.275575D-01
      3-0.303258D+00-0.152372D-01-0.790228D-01-0.178372D+00 0.429622D-01
              11           12           13           14           15
      1-0.270564D-01 0.355007D-01 0.117683D+00 0.225729D-01-0.240675D-01
      2 0.302644D-01-0.201469D-01-0.137943D-01 0.850791D-01-0.326169D-01
      3 0.709893D-02 0.219971D-01-0.778148D-02 0.843333D-02 0.281761D-01
              16           17           18           19           20
      1 0.446835D-01 0.188328D-01-0.153285D-02 0.489356D-01 0.188129D-01
      2 0.891275D-02 0.578992D-01 0.789064D-01 0.393296D-02-0.859570D-01
      3 0.288933D-01 0.400484D-01-0.140469D+00-0.197786D-01-0.773293D-01
              21           22           23           24           25
      1-0.813497D-02-0.113874D+00-0.887573D-01 0.332987D-01 0.569349D+00
      2-0.105383D+00-0.207041D-01 0.132573D-01 0.176011D-01-0.128056D+00
      3 0.134722D-01 0.110904D-01 0.165709D-01 0.690158D-01 0.970710D-01
              26           27           28           29           30
      1-0.185051D+00 0.129771D+00 0.455254D-01 0.302159D-01 0.105553D-05
      2 0.439077D+00-0.116230D+00-0.350813D-02-0.999383D-01-0.827478D-01
      3-0.151217D+00 0.470743D+00-0.113108D-01-0.926353D-01-0.436161D-01
              31           32           33           34           35
      1-0.196830D+00-0.797129D-01-0.225397D-01-0.284860D+00 0.759224D-01
      2-0.322419D-01-0.123853D-01 0.223667D-01-0.114242D-01-0.106076D+01
      3 0.243178D-01 0.477937D-01 0.587479D-02-0.251380D-01 0.104630D+00
              36           37           38           39           40
      1-0.126950D-01-0.669609D+00 0.255642D+00-0.686392D-01 0.260820D+00
      2 0.101536D+00 0.237521D+00-0.588515D+00 0.214182D+00-0.436608D-01
      3-0.591144D+00-0.127979D+00 0.223621D+00-0.611403D+00 0.671016D-02
              41           42
      1-0.210501D-01-0.538244D-02
      2 0.278674D+00-0.106223D+00
      3-0.396761D-01 0.378252D+00
 Hessian after L703:
                1             2             3             4             5
      1  0.214809D+00
      2 -0.134153D-01  0.889346D+00
      3  0.139224D-02 -0.156586D+00  0.602792D+00
      4 -0.608537D-01 -0.881027D-03  0.501650D-03  0.219261D-01
      5 -0.124466D-02 -0.566851D-01  0.193833D-01 -0.116042D-02  0.757384D-01
      6  0.322925D-03  0.114597D-01 -0.258941D+00  0.379704D-03 -0.439350D-01
      7 -0.858740D-01  0.218691D-02  0.183226D-02  0.174149D-01  0.285418D-02
      8 -0.706932D-03 -0.112590D+00 -0.466222D-01  0.230357D-02  0.673698D-02
      9  0.321494D-03 -0.399736D-01 -0.145444D+00 -0.227842D-02 -0.221179D-01
     10 -0.954146D-03 -0.279714D-02  0.175265D-03 -0.367488D-04 -0.707108D-03
     11 -0.272739D-01 -0.157839D-01  0.533222D-02  0.303648D-02  0.650889D-03
     12 -0.190628D-01 -0.691853D-02  0.397832D-02  0.292673D-02  0.121030D-02
     13 -0.477570D-03  0.825402D-02  0.379561D-02  0.349072D-03 -0.636111D-03
     14  0.225120D-01 -0.303664D-01  0.705310D-02 -0.216176D-02  0.160257D-02
     15  0.165931D-01 -0.531236D-02  0.112824D-01 -0.951712D-03 -0.716992D-03
     16  0.849748D-03  0.299138D-04 -0.775211D-03 -0.574484D-04  0.134714D-03
     17 -0.857710D-03 -0.133080D-03  0.332720D-02  0.116066D-03 -0.403905D-03
     18  0.387919D-03 -0.182554D-02 -0.905192D-03  0.144483D-03  0.465301D-03
     19 -0.386942D-02  0.147647D-02 -0.400210D-02  0.284861D-03 -0.322508D-03
     20  0.320613D-02  0.398343D-03  0.410756D-02 -0.494540D-03  0.158445D-03
     21 -0.138627D-02 -0.214318D-03 -0.179118D-02  0.152557D-03  0.357765D-03
     22 -0.433876D-03 -0.287325D-02 -0.956488D-03 -0.280479D-03  0.112244D-03
     23  0.110784D-02  0.210176D-02 -0.115440D-03 -0.283067D-04 -0.247241D-04
     24  0.624103D-03 -0.196911D-03  0.627566D-04 -0.115478D-03  0.382492D-04
     25  0.226463D-03 -0.541841D-02  0.133627D-02  0.237448D-02  0.548031D-03
     26  0.440027D-02  0.196009D-01 -0.320870D-01 -0.787048D-03 -0.590339D-02
     27  0.296972D-02 -0.796299D-02 -0.342190D-01  0.956580D-03 -0.137750D-02
     28  0.579674D-03 -0.152069D-02  0.103395D-02 -0.126833D-03  0.160692D-03
     29  0.181324D-04 -0.147992D-02  0.304015D-02 -0.282184D-04  0.626711D-03
     30  0.851382D-03  0.461544D-02 -0.536268D-02 -0.111654D-03 -0.151056D-02
     31 -0.298111D-04 -0.138253D-02 -0.666200D-03 -0.207531D-03  0.117556D-03
     32  0.870805D-03 -0.112549D-02 -0.577259D-03 -0.146040D-03  0.216613D-04
     33  0.965208D-03  0.320628D-02  0.908799D-03 -0.398344D-03 -0.613154D-04
     34 -0.641637D-01  0.852618D-02 -0.334102D-02  0.193320D-01  0.121420D-02
     35  0.110089D-01 -0.685940D+00  0.190763D+00 -0.989779D-04 -0.234182D-01
     36 -0.248134D-02  0.193573D+00 -0.173722D+00 -0.826235D-03  0.486240D-01
     37 -0.643834D-03  0.402735D-02  0.791528D-03 -0.264671D-03 -0.288530D-03
     38 -0.308375D-03 -0.100595D-01 -0.550041D-03  0.332213D-03  0.144784D-02
     39  0.616523D-04 -0.347784D-02  0.518999D-02  0.428653D-03  0.925804D-03
     40  0.835558D-03  0.378748D-02 -0.111775D-02  0.145951D-03 -0.782283D-03
     41  0.682824D-03  0.271666D-02  0.353122D-02 -0.199427D-05 -0.548220D-03
     42 -0.155934D-02  0.961347D-02 -0.382942D-02 -0.808516D-03 -0.128552D-02
                6             7             8             9            10
      6  0.284153D+00
      7 -0.354434D-04  0.508890D+00
      8  0.781147D-02  0.320839D-01  0.470213D+00
      9 -0.167221D-01 -0.186590D-01 -0.932555D-02  0.477684D+00
     10 -0.729527D-03 -0.235234D+00 -0.966155D-01  0.240895D-01  0.263072D+00
     11 -0.945936D-03 -0.104052D+00 -0.902048D-01  0.798101D-02  0.104940D+00
     12 -0.401028D-03  0.174862D-01  0.518847D-02 -0.485707D-01 -0.238125D-01
     13 -0.435411D-03 -0.122463D+00  0.410296D-01 -0.181746D-01 -0.228099D-01
     14  0.112940D-02  0.498650D-01 -0.109548D+00  0.189974D-01 -0.788711D-02
     15 -0.750581D-04 -0.125308D-01  0.148847D-01 -0.910780D-01  0.627285D-03
     16  0.498949D-03  0.324967D-02  0.520928D-02 -0.248616D-01  0.697600D-03
     17 -0.117114D-02 -0.424593D-02 -0.657354D-02  0.209746D-01 -0.144501D-03
     18  0.862243D-03  0.158099D-03  0.288477D-02 -0.825387D-02 -0.373725D-03
     19  0.285283D-03 -0.928173D-03  0.215360D-01  0.140916D-01  0.122787D-02
     20 -0.332272D-03  0.796577D-03 -0.186070D-01 -0.111501D-01 -0.287494D-03
     21  0.470892D-03 -0.355508D-03  0.104714D-01  0.564369D-02  0.700490D-03
     22  0.250217D-03 -0.206511D-01 -0.616265D-02  0.293970D-02 -0.195221D-02
     23 -0.116992D-03  0.210974D-01  0.862578D-02 -0.356123D-02  0.354161D-02
     24  0.103491D-04 -0.870291D-02 -0.424637D-02  0.787270D-03 -0.150049D-02
     25 -0.433272D-03 -0.818904D-01 -0.632885D-02  0.228231D-01 -0.592159D-02
     26 -0.514516D-02 -0.835110D-02 -0.868142D-01  0.139916D-01 -0.202781D-02
     27  0.438924D-03  0.260336D-01  0.129766D-01 -0.159216D+00  0.101307D-02
     28  0.400261D-03  0.804104D-03  0.405948D-02  0.574281D-02  0.304634D-03
     29  0.406104D-03 -0.131903D-03  0.768381D-02  0.593244D-02  0.268010D-03
     30 -0.146141D-02 -0.171671D-02 -0.254809D-01 -0.207310D-01  0.297975D-03
     31  0.160376D-03 -0.363220D-02 -0.403130D-02  0.204734D-02  0.611211D-03
     32  0.244050D-03 -0.776832D-02 -0.257685D-02  0.175481D-02  0.326591D-03
     33  0.171150D-03  0.280016D-01  0.163852D-01 -0.778018D-02  0.998725D-03
     34 -0.310113D-03  0.247607D-01  0.597110D-03  0.258834D-02 -0.995895D-03
     35  0.302266D-01 -0.401897D-03 -0.555527D-01  0.407953D-02  0.121225D-02
     36 -0.900760D-02  0.189976D-02 -0.124401D-01  0.234903D-01 -0.115844D-02
     37 -0.841528D-03 -0.523933D-02  0.746861D-02 -0.924752D-02  0.208219D-02
     38  0.575437D-03  0.176688D-01 -0.102872D-01  0.130947D-01  0.117221D-03
     39 -0.136609D-03 -0.332718D-01  0.265816D-01 -0.106827D-01 -0.573704D-03
     40  0.487580D-03  0.792548D-03 -0.442343D-03 -0.142272D-02 -0.914335D-04
     41 -0.206265D-03 -0.160187D-02 -0.505225D-03 -0.677691D-03  0.609332D-04
     42  0.637820D-03 -0.139454D-03  0.930917D-03  0.874078D-03  0.246130D-03
               11            12            13            14            15
     11  0.102259D+00
     12 -0.108996D-01  0.532536D-01
     13  0.231415D-01 -0.996907D-02  0.503491D+00
     14  0.884956D-02 -0.246193D-02  0.514003D-01  0.517570D+00
     15 -0.102484D-02  0.486338D-03 -0.248461D-01  0.242082D-01  0.557265D+00
     16 -0.802023D-03 -0.590354D-04 -0.508807D-01 -0.822227D-02  0.325313D-01
     17  0.856647D-03 -0.537882D-03 -0.759563D-02 -0.607445D-01  0.594035D-01
     18 -0.104776D-03  0.309305D-03  0.323784D-01  0.597374D-01 -0.288780D+00
     19 -0.646646D-03  0.801524D-03 -0.473203D-01 -0.170267D-01 -0.982219D-02
     20  0.138610D-02  0.489338D-04 -0.161435D-01 -0.231963D+00 -0.120659D+00
     21 -0.668850D-03  0.169218D-03 -0.899841D-02 -0.120711D+00 -0.123529D+00
     22  0.363151D-02 -0.103224D-02 -0.262367D+00 -0.923146D-01  0.278912D-01
     23 -0.272548D-02  0.145056D-02 -0.925417D-01 -0.876117D-01  0.116545D-01
     24  0.157539D-02  0.106869D-03  0.283342D-01  0.115417D-01 -0.519618D-01
     25 -0.756974D-02  0.311764D-01  0.130643D-02  0.722873D-02 -0.234636D-01
     26 -0.329677D-02  0.158504D-01  0.132401D-03 -0.770364D-02  0.203662D-01
     27  0.185950D-02 -0.688053D-02 -0.540814D-02  0.656691D-02 -0.527506D-02
     28  0.647098D-03 -0.118697D-03  0.847712D-04 -0.201921D-03 -0.591059D-03
     29  0.532934D-03 -0.464726D-03 -0.242521D-03  0.766652D-03  0.336675D-04
     30 -0.707254D-04  0.127996D-02  0.466038D-03 -0.143959D-02  0.113073D-02
     31  0.211494D-03  0.327804D-03  0.237094D-03 -0.307477D-04  0.355039D-03
     32  0.170299D-03  0.204228D-02 -0.744666D-03  0.208676D-03 -0.503703D-03
     33  0.136469D-02 -0.597707D-02  0.128823D-02 -0.618970D-03  0.102033D-02
     34  0.423732D-02  0.258374D-02 -0.129641D-02 -0.250636D-02 -0.361528D-02
     35 -0.276684D-02 -0.212146D-02 -0.503697D-02 -0.162162D-02 -0.672195D-02
     36 -0.317351D-02 -0.766234D-03 -0.223571D-03 -0.360123D-02 -0.135895D-02
     37  0.927409D-03 -0.128189D-02  0.222653D-02 -0.614854D-03 -0.210026D-02
     38  0.345549D-03 -0.244575D-02 -0.133642D-02  0.807934D-03  0.517049D-02
     39 -0.115959D-02  0.322592D-02  0.225148D-02 -0.123488D-03 -0.766762D-02
     40 -0.428732D-03  0.338490D-04 -0.800079D-04 -0.395198D-04 -0.769568D-04
     41 -0.273520D-03  0.589442D-04  0.319727D-03 -0.247003D-03 -0.782859D-03
     42 -0.649495D-04 -0.213895D-03 -0.458573D-03 -0.278242D-03 -0.145977D-02
               16            17            18            19            20
     16  0.532993D-01
     17  0.582585D-02  0.644688D-01
     18 -0.341409D-01 -0.665191D-01  0.313854D+00
     19 -0.684550D-03  0.390950D-02  0.258574D-02  0.506621D-01
     20  0.668374D-03  0.785211D-02  0.436714D-02  0.141356D-01  0.251902D+00
     21 -0.269270D-02 -0.266584D-01 -0.164461D-01  0.121042D-01  0.131134D+00
     22 -0.279794D-02 -0.130603D-02  0.698409D-03 -0.114652D-02 -0.835894D-03
     23 -0.604771D-02 -0.380515D-02  0.136462D-03 -0.246926D-01 -0.101412D-01
     24  0.292808D-01  0.124156D-01 -0.248905D-02 -0.173066D-01 -0.641871D-02
     25 -0.332752D-02  0.340339D-02 -0.190494D-02  0.351216D-03 -0.409772D-03
     26  0.212937D-02 -0.212667D-02  0.202459D-03 -0.138318D-03 -0.396732D-03
     27  0.185472D-02 -0.203248D-02  0.170921D-02  0.721449D-03 -0.157975D-02
     28 -0.177440D-03  0.287138D-04  0.102054D-03  0.243098D-03  0.119692D-03
     29 -0.100103D-03  0.268876D-03 -0.130202D-03 -0.160589D-03  0.318501D-03
     30  0.201758D-03  0.290516D-03  0.326911D-03 -0.436894D-03  0.108165D-02
     31  0.490905D-03 -0.117732D-03  0.185302D-03  0.119446D-04  0.233342D-04
     32  0.263983D-03  0.140000D-03 -0.593583D-04 -0.573355D-04  0.288214D-04
     33 -0.308200D-03 -0.318199D-03  0.990213D-04 -0.158564D-03  0.270768D-04
     34 -0.205897D-03  0.264747D-03 -0.375938D-05  0.106390D-02 -0.549238D-03
     35 -0.346265D-03  0.689333D-03  0.294017D-03  0.248558D-02 -0.175721D-02
     36  0.423645D-03 -0.124640D-02  0.573329D-03  0.762691D-03 -0.691141D-03
     37 -0.420495D-03  0.733670D-03 -0.203995D-03  0.650421D-04 -0.309948D-04
     38  0.144114D-02 -0.824083D-03  0.729493D-03 -0.473290D-03  0.748654D-03
     39 -0.179367D-02  0.188257D-02 -0.696096D-03  0.441663D-04  0.525734D-03
     40 -0.352045D-04 -0.144111D-04 -0.130855D-04  0.390044D-04 -0.198327D-03
     41 -0.184251D-03  0.335173D-03 -0.178045D-03 -0.251727D-04  0.715069D-04
     42 -0.159915D-03  0.189733D-03 -0.164266D-03  0.329680D-03 -0.461804D-03
               21            22            23            24            25
     21  0.131867D+00
     22 -0.203168D-04  0.288307D+00
     23  0.482498D-02  0.983916D-01  0.928622D-01
     24  0.225051D-02 -0.298383D-01 -0.142211D-01  0.509467D-01
     25 -0.447478D-04 -0.698406D-04  0.396205D-03 -0.143074D-02  0.531250D+00
     26  0.854161D-03 -0.110120D-02  0.979315D-03 -0.860764D-03  0.379425D-01
     27  0.788960D-03  0.135989D-02 -0.602347D-03  0.477192D-03 -0.113112D-01
     28 -0.228195D-03  0.196732D-05 -0.151640D-03 -0.414086D-04 -0.512168D-01
     29 -0.169914D-03  0.388455D-04 -0.813143D-04 -0.262588D-04 -0.101193D-01
     30 -0.133423D-03 -0.892023D-04  0.148853D-03 -0.679466D-04 -0.456330D-02
     31  0.195717D-04  0.550633D-03 -0.325905D-03  0.199674D-03 -0.223633D+00
     32  0.167133D-04  0.594300D-03 -0.478546D-04  0.354346D-03 -0.103398D+00
     33 -0.574673D-04 -0.890715D-03  0.874957D-04  0.706721D-04  0.278985D-01
     34  0.403179D-03  0.219513D-03 -0.394273D-03 -0.119124D-03 -0.381093D-02
     35  0.110561D-02  0.161163D-02 -0.565824D-04  0.210559D-04  0.280249D-02
     36  0.501630D-03 -0.201653D-03  0.268019D-03 -0.730399D-04 -0.424223D-02
     37  0.285257D-03  0.743490D-03 -0.445246D-03  0.637521D-03 -0.162337D+00
     38 -0.449582D-03  0.273075D-03 -0.996127D-04 -0.776218D-05  0.793456D-01
     39  0.149774D-03 -0.283126D-03  0.273920D-04 -0.257917D-03 -0.353427D-01
     40  0.609052D-04 -0.123527D-03  0.926055D-04 -0.212502D-04 -0.330130D-02
     41  0.106859D-03 -0.595766D-04  0.246171D-04  0.315653D-04  0.157669D-02
     42  0.115261D-03  0.172650D-03  0.188052D-04  0.137410D-03 -0.497609D-03
               26            27            28            29            30
     26  0.579214D+00
     27  0.778820D-01  0.479243D+00
     28 -0.172101D-01 -0.937821D-02  0.568709D-01
     29 -0.216771D+00 -0.120860D+00  0.670381D-03  0.243634D+00
     30 -0.125636D+00 -0.138152D+00  0.773410D-02  0.129055D+00  0.148132D+00
     31 -0.994943D-01  0.293246D-01  0.532533D-03 -0.232230D-02  0.218611D-03
     32 -0.109681D+00  0.127860D-01 -0.225679D-01 -0.112824D-01  0.384789D-02
     33  0.135264D-01 -0.554070D-01 -0.161476D-01 -0.940859D-02  0.375688D-02
     34  0.128354D-02 -0.154191D-02  0.607914D-03 -0.167890D-03 -0.100416D-03
     35 -0.363002D-02  0.867034D-02  0.438575D-03  0.902147D-03 -0.287166D-03
     36  0.701242D-02  0.234526D-03 -0.604906D-03 -0.103384D-02  0.128132D-02
     37  0.471753D-01 -0.532364D-01 -0.411720D-02  0.831974D-02 -0.537436D-03
     38 -0.135237D+00  0.267196D-01  0.320255D-01 -0.247594D-01  0.127972D-01
     39  0.757579D-03 -0.907071D-01  0.137541D-01 -0.823348D-02  0.961702D-02
     40  0.360465D-01  0.166422D-01 -0.439127D-02  0.395776D-02 -0.221426D-02
     41 -0.282333D-01 -0.130457D-01  0.350212D-02 -0.359320D-03  0.258905D-02
     42  0.132857D-01  0.696451D-02 -0.165721D-02  0.186038D-02  0.383688D-03
               31            32            33            34            35
     31  0.257968D+00
     32  0.103842D+00  0.111923D+00
     33 -0.263564D-01 -0.200182D-01  0.593428D-01
     34  0.104097D-02 -0.174119D-03 -0.165501D-03  0.239569D-01
     35  0.913385D-03  0.813811D-03 -0.177093D-02 -0.925231D-02  0.770428D+00
     36 -0.214807D-03 -0.347336D-03  0.112372D-02  0.493857D-02 -0.217176D+00
     37 -0.344165D-01  0.284804D-01 -0.158784D-01  0.126732D-02 -0.347477D-02
     38  0.410381D-02  0.899703D-02 -0.165269D-02 -0.229728D-02  0.631405D-02
     39 -0.405401D-02  0.531357D-03  0.311472D-02 -0.432684D-02 -0.164368D-02
     40  0.475694D-03  0.477638D-03  0.115140D-02 -0.177646D-02 -0.186158D-02
     41 -0.150697D-02  0.241082D-02 -0.748304D-03 -0.781626D-03 -0.440406D-02
     42 -0.154689D-02 -0.716201D-04 -0.386429D-03  0.301013D-02 -0.543894D-02
               36            37            38            39            40
     36  0.163578D+00
     37 -0.152836D-02  0.238238D+00
     38 -0.723907D-02 -0.799750D-01  0.529235D+00
     39 -0.797719D-02  0.112523D+00  0.180431D+00  0.248457D+00
     40  0.345689D-02 -0.371837D-01 -0.509170D-01 -0.494168D-01  0.446941D-01
     41 -0.252889D-02 -0.123031D-01 -0.366629D+00 -0.197025D+00  0.103223D-01
     42  0.212219D-02 -0.293811D-01 -0.227173D+00 -0.151629D+00  0.324500D-01
               41            42
     41  0.395641D+00
     42  0.208875D+00  0.146448D+00
 FrcOut:
 IF    =  1026 IFX   =  1068 IFXYZ =  1110
 IFFX  =  1152 IFFFX =  2055 IFLen =    42
 IFFLen=   903 IFFFLn=     0 IEDerv=  2055
 LEDerv=  2069 IFroze=  4128 ICStrt= 53261
 DipoleDeriv   = 1.05236875D-01 4.94190393D-02-2.93450424D-03
                -5.70858873D-02 1.18525849D+00-7.35538171D-02
                -3.95789330D-02 1.24647839D-01 8.80732255D-01
                 5.61347736D-02-7.15576067D-03-8.85248213D-04
                 2.65607898D-03 6.47050029D-04 6.52387847D-02
                 7.83179882D-03 3.14917519D-02-3.03258451D-01
                 1.10072392D-01-1.16833378D-02-1.52372150D-02
                 3.40579902D-02-2.42602680D-01-7.90227821D-02
                -2.38321804D-02-1.27384079D-01-1.78372243D-01
                -9.32665330D-02-2.75574952D-02 4.29621732D-02
                -2.70563677D-02 3.02644172D-02 7.09892534D-03
                 3.55007004D-02-2.01468576D-02 2.19971398D-02
                 1.17682694D-01-1.37943361D-02-7.78148435D-03
                 2.25729251D-02 8.50790554D-02 8.43332962D-03
                -2.40674712D-02-3.26169087D-02 2.81760831D-02
                 4.46834724D-02 8.91274653D-03 2.88933371D-02
                 1.88327505D-02 5.78992428D-02 4.00483947D-02
                -1.53284959D-03 7.89064128D-02-1.40468727D-01
                 4.89355923D-02 3.93296440D-03-1.97785534D-02
                 1.88129446D-02-8.59570269D-02-7.73292962D-02
                -8.13496798D-03-1.05383284D-01 1.34721686D-02
                -1.13874120D-01-2.07040745D-02 1.10904134D-02
                -8.87572656D-02 1.32572684D-02 1.65709252D-02
                 3.32986977D-02 1.76010536D-02 6.90158331D-02
                 5.69348875D-01-1.28055994D-01 9.70709521D-02
                -1.85050883D-01 4.39077302D-01-1.51217141D-01
                 1.29770502D-01-1.16230371D-01 4.70742544D-01
                 4.55253776D-02-3.50813283D-03-1.13107601D-02
                 3.02158772D-02-9.99382932D-02-9.26353291D-02
                 1.05552582D-06-8.27477756D-02-4.36161127D-02
                -1.96830197D-01-3.22418932D-02 2.43178027D-02
                -7.97128865D-02-1.23852913D-02 4.77936920D-02
                -2.25397121D-02 2.23667088D-02 5.87478558D-03
                -2.84860085D-01-1.14242402D-02-2.51379515D-02
                 7.59224388D-02-1.06075912D+00 1.04629925D-01
                -1.26949595D-02 1.01536328D-01-5.91144025D-01
                -6.69608813D-01 2.37521337D-01-1.27979122D-01
                 2.55642416D-01-5.88514544D-01 2.23620515D-01
                -6.86392446D-02 2.14182153D-01-6.11402962D-01
                 2.60819696D-01-4.36608229D-02 6.71016066D-03
                -2.10501311D-02 2.78674136D-01-3.96761261D-02
                -5.38243628D-03-1.06222971D-01 3.78251711D-01
 Full mass-weighted force constant matrix:
 Low frequencies ---  -19.6367  -14.6062   -0.0005    0.0004    0.0006    6.9716
 Low frequencies ---  108.7189  151.1719  199.7526
 Dipole derivatives wrt mode   1:  1.93408D+00 -4.39034D-02  8.35093D-01
 Vibrational polarizability contributions from mode   1       8.5188719       0.0043896       1.5881870
 Vibrational hyperpolarizability contributions from mode   1       0.0000000       0.0000000       0.0000000
 Dipole derivatives wrt mode   2: -1.28497D+00  1.85080D+00 -1.32098D+00
 Vibrational polarizability contributions from mode   2       1.9451453       4.0354176       2.0557056
 Vibrational hyperpolarizability contributions from mode   2       0.0000000       0.0000000       0.0000000
 Dipole derivatives wrt mode   3:  6.88102D-01 -1.14573D-01  5.07878D-01
 Vibrational polarizability contributions from mode   3       0.3193483       0.0088537       0.1739718
 Vibrational hyperpolarizability contributions from mode   3       0.0000000       0.0000000       0.0000000
 Dipole derivatives wrt mode   4: -4.78745D-01 -1.95558D-01 -1.25440D+00
 Vibrational polarizability contributions from mode   4       0.1152216       0.0192255       0.7910395
 Vibrational hyperpolarizability contributions from mode   4       0.0000000       0.0000000       0.0000000
 Dipole derivatives wrt mode   5: -9.51826D-01  1.25799D+00  2.52865D+00
 Vibrational polarizability contributions from mode   5       0.2598956       0.4539798       1.8342597
 Vibrational hyperpolarizability contributions from mode   5       0.0000000       0.0000000       0.0000000
 Dipole derivatives wrt mode   6: -4.04311D-01  6.07211D-01  2.44975D+00
 Vibrational polarizability contributions from mode   6       0.0358542       0.0808701       1.3162893
 Vibrational hyperpolarizability contributions from mode   6       0.0000000       0.0000000       0.0000000
 Dipole derivatives wrt mode   7:  5.43793D-01  6.82401D-01  1.73348D-01
 Vibrational polarizability contributions from mode   7       0.0371597       0.0585175       0.0037761
 Vibrational hyperpolarizability contributions from mode   7       0.0000000       0.0000000       0.0000000
 Dipole derivatives wrt mode   8: -5.16520D+00 -5.17310D+00  9.43251D+00
 Vibrational polarizability contributions from mode   8       2.2695854       2.2765335       7.5687962
 Vibrational hyperpolarizability contributions from mode   8       0.0000000       0.0000000       0.0000000
 Dipole derivatives wrt mode   9: -8.47389D-01  1.41287D+00  1.36955D+00
 Vibrational polarizability contributions from mode   9       0.0489986       0.1362134       0.1279886
 Vibrational hyperpolarizability contributions from mode   9       0.0000000       0.0000000       0.0000000
 Dipole derivatives wrt mode  10:  1.30439D+00  3.09744D+00  1.33095D+00
 Vibrational polarizability contributions from mode  10       0.0687511       0.3876794       0.0715797
 Vibrational hyperpolarizability contributions from mode  10       0.0000000       0.0000000       0.0000000
 Dipole derivatives wrt mode  11: -1.22414D+00 -6.44245D-01 -1.52018D-02
 Vibrational polarizability contributions from mode  11       0.0482233       0.0133565       0.0000074
 Vibrational hyperpolarizability contributions from mode  11       0.0000000       0.0000000       0.0000000
 Dipole derivatives wrt mode  12:  6.43592D-01 -2.79542D+00 -4.21056D+00
 Vibrational polarizability contributions from mode  12       0.0128069       0.2416106       0.5481535
 Vibrational hyperpolarizability contributions from mode  12       0.0000000       0.0000000       0.0000000
 Dipole derivatives wrt mode  13: -1.91319D+00  1.84200D+00 -6.48714D-01
 Vibrational polarizability contributions from mode  13       0.1128664       0.1046238       0.0129765
 Vibrational hyperpolarizability contributions from mode  13       0.0000000       0.0000000       0.0000000
 Dipole derivatives wrt mode  14: -2.39486D+00  1.76067D+00 -1.17238D+00
 Vibrational polarizability contributions from mode  14       0.1376132       0.0743795       0.0329786
 Vibrational hyperpolarizability contributions from mode  14       0.0000000       0.0000000       0.0000000
 Dipole derivatives wrt mode  15:  6.64988D+00 -5.31839D+00  5.90441D+00
 Vibrational polarizability contributions from mode  15       1.0169708       0.6504900       0.8017392
 Vibrational hyperpolarizability contributions from mode  15       0.0000000       0.0000000       0.0000000
 Dipole derivatives wrt mode  16: -6.20345D-01 -5.65214D-02  5.40586D-02
 Vibrational polarizability contributions from mode  16       0.0080960       0.0000672       0.0000615
 Vibrational hyperpolarizability contributions from mode  16       0.0000000       0.0000000       0.0000000
 Dipole derivatives wrt mode  17:  9.84638D-01 -1.04107D+00 -1.47531D+00
 Vibrational polarizability contributions from mode  17       0.0191687       0.0214290       0.0430332
 Vibrational hyperpolarizability contributions from mode  17       0.0000000       0.0000000       0.0000000
 Dipole derivatives wrt mode  18:  2.72586D+00 -3.79063D+00  1.55070D+00
 Vibrational polarizability contributions from mode  18       0.1328393       0.2568875       0.0429909
 Vibrational hyperpolarizability contributions from mode  18       0.0000000       0.0000000       0.0000000
 Dipole derivatives wrt mode  19: -3.84910D-01  8.37801D-01 -1.12957D+00
 Vibrational polarizability contributions from mode  19       0.0024253       0.0114900       0.0208866
 Vibrational hyperpolarizability contributions from mode  19       0.0000000       0.0000000       0.0000000
 Dipole derivatives wrt mode  20: -1.75131D+00 -4.70111D-01 -2.58840D+00
 Vibrational polarizability contributions from mode  20       0.0449549       0.0032393       0.0982011
 Vibrational hyperpolarizability contributions from mode  20       0.0000000       0.0000000       0.0000000
 Dipole derivatives wrt mode  21:  8.87247D-02  8.03674D-01  1.05509D+00
 Vibrational polarizability contributions from mode  21       0.0001101       0.0090358       0.0155734
 Vibrational hyperpolarizability contributions from mode  21       0.0000000       0.0000000       0.0000000
 Dipole derivatives wrt mode  22: -4.54486D-01  7.45656D-01 -1.11951D+00
 Vibrational polarizability contributions from mode  22       0.0028084       0.0075595       0.0170400
 Vibrational hyperpolarizability contributions from mode  22       0.0000000       0.0000000       0.0000000
 Dipole derivatives wrt mode  23: -1.73928D+00  2.13280D+00 -3.71330D+00
 Vibrational polarizability contributions from mode  23       0.0402559       0.0605326       0.1834901
 Vibrational hyperpolarizability contributions from mode  23       0.0000000       0.0000000       0.0000000
 Dipole derivatives wrt mode  24:  5.20763D+00 -3.50947D+00  3.96172D+00
 Vibrational polarizability contributions from mode  24       0.3504756       0.1591693       0.2028361
 Vibrational hyperpolarizability contributions from mode  24       0.0000000       0.0000000       0.0000000
 Dipole derivatives wrt mode  25:  1.36632D+00  2.91594D+00  2.90530D-01
 Vibrational polarizability contributions from mode  25       0.0223383       0.1017429       0.0010100
 Vibrational hyperpolarizability contributions from mode  25       0.0000000       0.0000000       0.0000000
 Dipole derivatives wrt mode  26: -2.32108D-01  3.97201D-03  9.04891D-01
 Vibrational polarizability contributions from mode  26       0.0006435       0.0000002       0.0097810
 Vibrational hyperpolarizability contributions from mode  26       0.0000000       0.0000000       0.0000000
 Dipole derivatives wrt mode  27:  5.15823D-01  4.02181D-01 -2.86918D+00
 Vibrational polarizability contributions from mode  27       0.0031492       0.0019144       0.0974352
 Vibrational hyperpolarizability contributions from mode  27       0.0000000       0.0000000       0.0000000
 Dipole derivatives wrt mode  28: -8.41727D-01  1.25967D+01 -2.35992D+00
 Vibrational polarizability contributions from mode  28       0.0059385       1.3299992       0.0466799
 Vibrational hyperpolarizability contributions from mode  28       0.0000000       0.0000000       0.0000000
 Dipole derivatives wrt mode  29:  3.72287D-01  7.51152D-01 -1.12772D+01
 Vibrational polarizability contributions from mode  29       0.0004522       0.0018409       0.4149400
 Vibrational hyperpolarizability contributions from mode  29       0.0000000       0.0000000       0.0000000
 Dipole derivatives wrt mode  30: -4.97791D+00 -5.31438D-01  9.49791D-01
 Vibrational polarizability contributions from mode  30       0.0752192       0.0008573       0.0027384
 Vibrational hyperpolarizability contributions from mode  30       0.0000000       0.0000000       0.0000000
 Dipole derivatives wrt mode  31: -5.58868D+00  1.15640D-01  2.61805D+00
 Vibrational polarizability contributions from mode  31       0.0938599       0.0000402       0.0205976
 Vibrational hyperpolarizability contributions from mode  31       0.0000000       0.0000000       0.0000000
 Dipole derivatives wrt mode  32: -3.89064D+00  2.60631D+00 -1.73412D+00
 Vibrational polarizability contributions from mode  32       0.0443925       0.0199214       0.0088191
 Vibrational hyperpolarizability contributions from mode  32       0.0000000       0.0000000       0.0000000
 Dipole derivatives wrt mode  33: -3.58156D-01 -4.44868D+00 -2.89940D+00
 Vibrational polarizability contributions from mode  33       0.0003655       0.0563866       0.0239513
 Vibrational hyperpolarizability contributions from mode  33       0.0000000       0.0000000       0.0000000
 Dipole derivatives wrt mode  34:  3.33769D+00  2.48555D+00 -3.33382D+00
 Vibrational polarizability contributions from mode  34       0.0313777       0.0174010       0.0313049
 Vibrational hyperpolarizability contributions from mode  34       0.0000000       0.0000000       0.0000000
 Dipole derivatives wrt mode  35: -1.24872D+00 -3.21069D+00 -3.56147D+00
 Vibrational polarizability contributions from mode  35       0.0043601       0.0288247       0.0354672
 Vibrational hyperpolarizability contributions from mode  35       0.0000000       0.0000000       0.0000000
 Dipole derivatives wrt mode  36:  4.25613D-01 -6.34068D+00 -4.81033D+00
 Vibrational polarizability contributions from mode  36       0.0003401       0.0754743       0.0434387
 Vibrational hyperpolarizability contributions from mode  36       0.0000000       0.0000000       0.0000000
 Diagonal vibrational polarizability:
       15.8308832      10.7099541      18.2877251
 Harmonic frequencies (cm**-1), IR intensities (KM/Mole), Raman scattering
 activities (A**4/AMU), depolarization ratios for plane and unpolarized
 incident light, reduced masses (AMU), force constants (mDyne/A),
 and normal coordinates:
                           1         2         3         4         5
                           A         A         A         A         A
       Frequencies ---   108.7053  151.1409  199.7500  231.3682  306.2843
    Reduced masses ---     2.8445    2.7000    1.0962    3.9496    2.7106
   Force constants ---     0.0198    0.0363    0.0258    0.1246    0.1498
    IR Intensities ---     4.4400    6.8216    0.7446    1.8410    8.8826
 Coord Atom Element:
   1     1     6          0.21026   0.00464   0.03596   0.07353  -0.05726
   2     1     6          0.05954   0.00975   0.00651   0.02724   0.05243
   3     1     6          0.01015   0.03488  -0.01760   0.11058   0.07747
   1     2     1          0.70515  -0.10666   0.11660   0.24589  -0.10962
   2     2     1          0.08838  -0.03422   0.03363  -0.10092   0.23513
   3     2     1          0.01514   0.02614  -0.01301   0.08595   0.11387
   1     3     6          0.07153   0.01822   0.01118  -0.06578  -0.08633
   2     3     6          0.04324   0.05417  -0.00255   0.07035  -0.00798
   3     3     6          0.02188  -0.02579  -0.00434   0.03766   0.15735
   1     4     1         -0.00391  -0.01501   0.00289  -0.05084  -0.06384
   2     4     1          0.20141   0.09451   0.01065   0.06867  -0.04466
   3     4     1          0.04277  -0.14924  -0.02384   0.15609   0.18080
   1     5     6         -0.08795  -0.08381  -0.01360   0.00496   0.03065
   2     5     6         -0.14057  -0.04256  -0.01534   0.08785  -0.04077
   3     5     6         -0.03131  -0.00579   0.02549  -0.08519  -0.19373
   1     6     1         -0.04324  -0.15059  -0.38626  -0.04441   0.26112
   2     6     1         -0.06065  -0.04973  -0.43275  -0.17381  -0.33464
   3     6     1         -0.00532  -0.01522  -0.12595  -0.15953  -0.24286
   1     7     1         -0.32554  -0.14441   0.33643   0.16799  -0.02933
   2     7     1         -0.15956  -0.02664   0.19856   0.21877   0.11757
   3     7     1          0.02459  -0.02390  -0.34960  -0.30891  -0.43927
   1     8     1         -0.01370  -0.04072  -0.01970  -0.03570  -0.02015
   2     8     1         -0.35456  -0.13177   0.16300   0.24000   0.05078
   3     8     1         -0.14347   0.04614   0.56571   0.08499  -0.30157
   1     9     6          0.04870   0.11246   0.00248  -0.09845   0.00016
   2     9     6          0.01839   0.16130   0.00859  -0.13858   0.02976
   3     9     6          0.00700   0.01984  -0.00191  -0.02946   0.18883
   1    10     1          0.06378   0.49981  -0.00604  -0.23730   0.14918
   2    10     1          0.00421   0.18882   0.01508  -0.26455   0.02337
   3    10     1          0.02722  -0.02459  -0.01077   0.15108   0.19537
   1    11     1          0.04172  -0.04663  -0.00516  -0.01666   0.00616
   2    11     1          0.03288   0.51582   0.01928  -0.32946   0.06511
   3    11     1         -0.00964   0.17509  -0.01871  -0.14140   0.35003
   1    12     8         -0.23542   0.11099  -0.00787   0.01024   0.00217
   2    12     8          0.04920   0.02034  -0.00074   0.06854  -0.01087
   3    12     8         -0.00568   0.06863  -0.04299   0.25484  -0.13741
   1    13     8          0.03086  -0.12654  -0.02075   0.05068   0.07026
   2    13     8         -0.01542  -0.18583   0.00260  -0.07970  -0.02241
   3    13     8         -0.00240  -0.07687   0.03726  -0.25192  -0.02103
   1    14     1         -0.06578  -0.36250  -0.01344   0.02501  -0.00012
   2    14     1         -0.05738  -0.10530  -0.00388  -0.03952   0.01738
   3    14     1          0.08500  -0.17920   0.04751  -0.31459  -0.07944
                           6         7         8         9        10
                           A         A         A         A         A
       Frequencies ---   350.2775  462.7683  562.4455  627.9969  816.0820
    Reduced masses ---     2.6064    3.1072    1.1100    3.5642    2.7089
   Force constants ---     0.1884    0.3921    0.2069    0.8282    1.0630
    IR Intensities ---     6.5334    0.7914  142.4125    4.5899   13.0670
 Coord Atom Element:
   1     1     6          0.12930  -0.02384  -0.01774   0.02971  -0.05795
   2     1     6         -0.10162   0.00044   0.01522  -0.10361   0.09016
   3     1     6          0.02195   0.08679   0.01617   0.14971   0.25118
   1     2     1          0.62403  -0.35081  -0.10910  -0.19037   0.28367
   2     2     1         -0.03013   0.08969   0.03463  -0.05154   0.34378
   3     2     1          0.03500   0.10792   0.01839   0.16130   0.30429
   1     3     6         -0.13642   0.16915   0.01498   0.11967  -0.09074
   2     3     6         -0.07168   0.01671   0.00411   0.22929  -0.05931
   3     3     6          0.02564   0.10051   0.01082   0.02617   0.02792
   1     4     1         -0.11336   0.19971   0.02465   0.06755  -0.13007
   2     4     1         -0.10240  -0.03876  -0.01286   0.29127  -0.05478
   3     4     1          0.03755   0.19884   0.04232  -0.08441  -0.37724
   1     5     6         -0.00078   0.11172   0.01590  -0.12729   0.00925
   2     5     6          0.10574  -0.16371  -0.02107   0.17308  -0.06261
   3     5     6          0.09336   0.10567   0.00879  -0.05256   0.03008
   1     6     1          0.05343  -0.03823   0.00125  -0.18759   0.28636
   2     6     1          0.24369  -0.17072  -0.03878   0.15593  -0.11445
   3     6     1          0.13548   0.08824   0.00262  -0.06432   0.05234
   1     7     1          0.17665  -0.02986  -0.01318  -0.27719   0.20337
   2     7     1          0.01062  -0.14403  -0.00767   0.20148  -0.06612
   3     7     1          0.22829   0.08802  -0.00910  -0.07797   0.01096
   1     8     1         -0.07512   0.19876   0.02563  -0.05538  -0.10426
   2     8     1          0.27756  -0.35365  -0.04587   0.00710   0.18394
   3     8     1          0.04423   0.20331   0.01580  -0.02380  -0.11897
   1     9     6         -0.05037  -0.10754  -0.01480   0.04644   0.10100
   2     9     6          0.09435   0.08666  -0.00944   0.02499   0.00763
   3     9     6          0.05075  -0.00548  -0.01652  -0.01979  -0.21797
   1    10     1          0.14551  -0.21062  -0.06077  -0.27753  -0.01386
   2    10     1          0.15748   0.03396  -0.01437  -0.18792  -0.00665
   3    10     1         -0.04004   0.07435  -0.00691   0.28435  -0.20248
   1    11     1         -0.06645  -0.10736   0.00845   0.09965   0.08144
   2    11     1          0.19190   0.03082  -0.04967  -0.19630   0.00271
   3    11     1          0.28567  -0.16131  -0.02498  -0.43387  -0.34848
   1    12     8          0.01136  -0.01321   0.01873  -0.00794   0.01555
   2    12     8         -0.13799  -0.04465   0.01381  -0.21359   0.00197
   3    12     8         -0.06593  -0.04843  -0.00658  -0.09746  -0.04428
   1    13     8         -0.00280  -0.07980   0.02670   0.00941  -0.03387
   2    13     8          0.06992   0.10898   0.02634  -0.03983  -0.00074
   3    13     8         -0.12366  -0.17824  -0.05456   0.03129   0.01702
   1    14     1         -0.18687   0.03486  -0.57817  -0.01830   0.14182
   2    14     1          0.01266   0.24489  -0.36934  -0.05291  -0.02059
   3    14     1          0.00007  -0.42513   0.70276   0.05615   0.02632
                          11        12        13        14        15
                           A         A         A         A         A
[...]
     38 -0.207310D-01  0.127996D-02  0.113073D-02  0.326911D-03 -0.133423D-03
     39 -0.778018D-02 -0.597707D-02  0.102033D-02  0.990213D-04 -0.574673D-04
     40  0.234903D-01 -0.766234D-03 -0.135895D-02  0.573329D-03  0.501630D-03
     41 -0.106827D-01  0.322592D-02 -0.766762D-02 -0.696096D-03  0.149774D-03
     42  0.874078D-03 -0.213895D-03 -0.145977D-02 -0.164266D-03  0.115261D-03
               36            37            38            39            40
     36  0.509467D-01
     37  0.477192D-03  0.479243D+00
     38 -0.679466D-04 -0.138152D+00  0.148132D+00
     39  0.706721D-04 -0.554070D-01  0.375688D-02  0.593428D-01
     40 -0.730399D-04  0.234526D-03  0.128132D-02  0.112372D-02  0.163578D+00
     41 -0.257917D-03 -0.907071D-01  0.961702D-02  0.311472D-02 -0.797719D-02
     42  0.137410D-03  0.696451D-02  0.383688D-03 -0.386429D-03  0.212219D-02
               41            42
     41  0.248457D+00
     42 -0.151629D+00  0.146448D+00
 Final forces over variables, Energy=-3.07763012D+02:
  2.55906561D-06 4.31127502D-06 5.37145647D-07-4.74770617D-07
 -1.06604059D-06 8.27938007D-07-2.79142523D-06 6.79780149D-07
 -4.94213904D-06-4.19780143D-06 2.16934359D-07 5.05723735D-06
  1.06076488D-07-8.23275834D-07 1.08117388D-06-6.06625241D-06
  2.08147941D-07-4.09229252D-07-2.50120953D-06-6.22397024D-06
 -2.05267668D-06-3.72005630D-06 6.20474769D-06 5.20136812D-06
  2.88118612D-06-5.36311693D-06 1.01359209D-05 6.23966639D-07
  1.78915528D-06 2.99263599D-06 5.62170605D-07-4.67154104D-07
 -3.95049091D-06-4.75214979D-06-8.15449681D-06-5.61874185D-06
 -1.18256634D-06-2.65517326D-06 4.21181242D-07 1.18753920D-05
  5.67193059D-06 3.46830735D-06

 GradGradGradGradGradGradGradGradGradGradGradGradGradGradGradGradGradGrad
 Berny optimization.
 Search for a local minimum.
 Step number   1 out of a maximum of   2
 All quantities printed in internal units (Hartrees-Bohrs-Radians)
 Second derivative matrix not updated -- analytic derivatives used.
     Eigenvalues ---    0.00138   0.00177   0.00321   0.00825   0.01160
     Eigenvalues ---    0.01418   0.01693   0.03522   0.04336   0.04362
     Eigenvalues ---    0.05806   0.06499   0.06955   0.07857   0.08686
     Eigenvalues ---    0.09974   0.10885   0.12024   0.14868   0.16860
     Eigenvalues ---    0.19277   0.20959   0.23767   0.26256   0.41405
     Eigenvalues ---    0.44822   0.57568   0.65816   0.69087   0.72838
     Eigenvalues ---    0.74921   0.80367   0.82332   0.84165   1.02994
     Eigenvalues ---    1.65335
 Angle between quadratic step and forces=  83.21 degrees.
 Linear search not attempted -- first point.
 TrRot= -0.000221  0.000096  0.000067  0.000014 -0.000024  0.000014
 Variable       Old X    -DE/DX   Delta X   Delta X   Delta X     New X
                                 (Linear)    (Quad)   (Total)
    X1       -3.44422   0.00000   0.00000   0.00021   0.00007  -3.44415
    Y1       -0.13031   0.00000   0.00000   0.00013   0.00013  -0.13018
    Z1       -3.33304   0.00000   0.00000   0.00005   0.00003  -3.33301
    X2       -3.44028   0.00000   0.00000   0.00105   0.00087  -3.43941
    Y2       -0.57222  -0.00001   0.00000   0.00015   0.00014  -0.57208
    Z2       -1.27761   0.00000   0.00000   0.00006   0.00004  -1.27757
    X3       -3.41041   0.00000   0.00000   0.00010   0.00007  -3.41034
    Y3       -2.41007   0.00000   0.00000   0.00011   0.00011  -2.40996
    Z3       -5.06376   0.00000   0.00000   0.00006   0.00004  -5.06372
    X4       -5.27973   0.00000   0.00000   0.00000  -0.00001  -5.27973
    Y4       -3.29305   0.00000   0.00000   0.00029   0.00024  -3.29282
    Z4       -4.83529   0.00000   0.00000   0.00003  -0.00003  -4.83532
    X5       -1.38638   0.00000   0.00000  -0.00013  -0.00012  -1.38650
    Y5       -4.30532   0.00000   0.00000  -0.00016  -0.00011  -4.30542
    Z5       -4.19452   0.00000   0.00000  -0.00003   0.00001  -4.19451
    X6       -1.62359   0.00000   0.00000  -0.00011  -0.00014  -1.62373
    Y6       -4.80952  -0.00001   0.00000  -0.00023  -0.00018  -4.80970
    Z6       -2.20514   0.00000   0.00000  -0.00004  -0.00002  -2.20516
    X7       -1.50282   0.00000   0.00000  -0.00043  -0.00035  -1.50317
    Y7       -6.04396   0.00000   0.00000  -0.00010  -0.00005  -6.04401
    Z7       -5.30033  -0.00001   0.00000  -0.00010  -0.00007  -5.30040
    X8        0.51453   0.00000   0.00000  -0.00001  -0.00002   0.51451
    Y8       -3.52761   0.00000   0.00000  -0.00046  -0.00035  -3.52796
    Z8       -4.42982  -0.00001   0.00000  -0.00011  -0.00003  -4.42985
    X9       -3.11459   0.00000   0.00000   0.00015   0.00016  -3.11442
    Y9       -1.63999   0.00001   0.00000   0.00007   0.00008  -1.63991
    Z9       -7.84423   0.00000   0.00000   0.00003   0.00003  -7.84421
   X10       -3.13469   0.00000   0.00000   0.00033   0.00042  -3.13426
   Y10       -3.33262   0.00001   0.00000   0.00005   0.00005  -3.33256
   Z10       -9.02710   0.00000   0.00000   0.00007   0.00006  -9.02704
   X11       -1.26750   0.00000   0.00000   0.00010   0.00010  -1.26741
   Y11       -0.72157   0.00000   0.00000   0.00021   0.00027  -0.72130
   Z11       -8.09997   0.00000   0.00000   0.00012   0.00015  -8.09982
   X12       -3.47598   0.00001   0.00000  -0.00059  -0.00077  -3.47675
   Y12        2.04432  -0.00001   0.00000   0.00011   0.00010   2.04442
   Z12       -4.03257   0.00001   0.00000   0.00002   0.00001  -4.03257
   X13       -5.10865   0.00000   0.00000   0.00008   0.00008  -5.10857
   Y13       -0.07957   0.00001   0.00000  -0.00013  -0.00018  -0.07975
   Z13       -8.70729   0.00001   0.00000  -0.00014  -0.00019  -8.70748
   X14       -4.96606   0.00000   0.00000  -0.00029  -0.00037  -4.96643
   Y14        1.47760   0.00000   0.00000  -0.00020  -0.00025   1.47735
   Z14       -7.76847   0.00000   0.00000   0.00004  -0.00002  -7.76849
         Item               Value     Threshold  Converged?
 Maximum Force            0.000012     0.000450     YES
 RMS     Force            0.000004     0.000300     YES
 Maximum Displacement     0.000873     0.001800     YES
 RMS     Displacement     0.000239     0.001200     YES
 Predicted change in Energy=-3.009649D-09
 Optimization completed.
    -- Stationary point found.
 GradGradGradGradGradGradGradGradGradGradGradGradGradGradGradGradGradGrad


 Test job not archived.
 1\1\GINC-NODE40\Freq\RB3LYP\CBSB7\C4H8O2\NYEE\14-May-2015\0\\# freq no
 symm b3lyp/cbsb7 iop(7/33=1)\\Title Card Required\\0,1\C,-1.822602,-0.
 068957,-1.763769\H,-1.820518,-0.302808,-0.67608\C,-1.804711,-1.275354,
 -2.679626\H,-2.793912,-1.742609,-2.558723\C,-0.73364,-2.278275,-2.2196
 42\H,-0.859167,-2.545088,-1.16691\H,-0.79526,-3.198326,-2.804814\H,0.2
 72279,-1.866733,-2.344162\C,-1.648168,-0.867843,-4.150989\H,-1.658804,
 -1.763544,-4.776935\H,-0.670733,-0.381839,-4.286318\O,-1.839411,1.0818
 07,-2.133945\O,-2.703379,-0.042104,-4.607699\H,-2.627926,0.781914,-4.1
 10898\\Version=AM64L-G03RevD.01\HF=-307.7630116\RMSD=3.905e-09\RMSF=4.
 237e-06\ZeroPoint=0.1179733\Thermal=0.1249906\Dipole=0.4570326,-0.9019
 076,0.6795772\DipoleDeriv=0.1052369,0.049419,-0.0029345,-0.0570859,1.1
 852585,-0.0735538,-0.0395789,0.1246478,0.8807323,0.0561348,-0.0071558,
 -0.0008852,0.0026561,0.0006471,0.0652388,0.0078318,0.0314918,-0.303258
 5,0.1100724,-0.0116833,-0.0152372,0.034058,-0.2426027,-0.0790228,-0.02
 38322,-0.1273841,-0.1783722,-0.0932665,-0.0275575,0.0429622,-0.0270564
 ,0.0302644,0.0070989,0.0355007,-0.0201469,0.0219971,0.1176827,-0.01379
 43,-0.0077815,0.0225729,0.0850791,0.0084333,-0.0240675,-0.0326169,0.02
 81761,0.0446835,0.0089127,0.0288933,0.0188328,0.0578992,0.0400484,-0.0
 015328,0.0789064,-0.1404687,0.0489356,0.003933,-0.0197786,0.0188129,-0
 .085957,-0.0773293,-0.008135,-0.1053833,0.0134722,-0.1138741,-0.020704
 1,0.0110904,-0.0887573,0.0132573,0.0165709,0.0332987,0.0176011,0.06901
 58,0.5693489,-0.128056,0.097071,-0.1850509,0.4390773,-0.1512171,0.1297
 705,-0.1162304,0.4707425,0.0455254,-0.0035081,-0.0113108,0.0302159,-0.
 0999383,-0.0926353,0.0000011,-0.0827478,-0.0436161,-0.1968302,-0.03224
 19,0.0243178,-0.0797129,-0.0123853,0.0477937,-0.0225397,0.0223667,0.00
 58748,-0.2848601,-0.0114242,-0.025138,0.0759224,-1.0607591,0.1046299,-
 0.012695,0.1015363,-0.591144,-0.6696088,0.2375213,-0.1279791,0.2556424
 ,-0.5885145,0.2236205,-0.0686392,0.2141822,-0.611403,0.2608197,-0.0436
 608,0.0067102,-0.0210501,0.2786741,-0.0396761,-0.0053824,-0.106223,0.3
 782517\Polar=43.7440052,-4.111368,56.3354495,1.5132498,-2.2146887,53.3
 996479\PG=C01 [X(C4H8O2)]\NImag=0\\0.21480858,-0.01341528,0.88934624,0
 .00139224,-0.15658594,0.60279213,-0.06085375,-0.00088103,0.00050165,0.
 02192612,-0.00124466,-0.05668509,0.01938334,-0.00116042,0.07573840,0.0
 0032292,0.01145972,-0.25894059,0.00037970,-0.04393498,0.28415297,-0.08
 587395,0.00218691,0.00183226,0.01741493,0.00285418,-0.00003544,0.50889
 033,-0.00070693,-0.11259010,-0.04662220,0.00230357,0.00673698,0.007811
 47,0.03208393,0.47021334,0.00032149,-0.03997358,-0.14544448,-0.0022784
 2,-0.02211793,-0.01672205,-0.01865901,-0.00932555,0.47768393,-0.000954
 15,-0.00279714,0.00017526,-0.00003675,-0.00070711,-0.00072953,-0.23523
 397,-0.09661549,0.02408948,0.26307233,-0.02727389,-0.01578392,0.005332
 22,0.00303648,0.00065089,-0.00094594,-0.10405177,-0.09020482,0.0079810
 1,0.10494004,0.10225937,-0.01906278,-0.00691853,0.00397832,0.00292673,
 0.00121030,-0.00040103,0.01748622,0.00518847,-0.04857074,-0.02381253,-
 0.01089963,0.05325357,-0.00047757,0.00825402,0.00379561,0.00034907,-0.
 00063611,-0.00043541,-0.12246323,0.04102956,-0.01817463,-0.02280985,0.
 02314146,-0.00996907,0.50349090,0.02251200,-0.03036645,0.00705310,-0.0
 0216176,0.00160257,0.00112940,0.04986495,-0.10954829,0.01899739,-0.007
 88711,0.00884956,-0.00246193,0.05140027,0.51757039,0.01659309,-0.00531
 236,0.01128235,-0.00095171,-0.00071699,-0.00007506,-0.01253077,0.01488
 466,-0.09107803,0.00062729,-0.00102484,0.00048634,-0.02484612,0.024208
 22,0.55726483,0.00084975,0.00002991,-0.00077521,-0.00005745,0.00013471
 ,0.00049895,0.00324967,0.00520928,-0.02486158,0.00069760,-0.00080202,-
 0.00005904,-0.05088072,-0.00822227,0.03253127,0.05329929,-0.00085771,-
 0.00013308,0.00332720,0.00011607,-0.00040390,-0.00117114,-0.00424593,-
 0.00657354,0.02097456,-0.00014450,0.00085665,-0.00053788,-0.00759563,-
 0.06074449,0.05940350,0.00582585,0.06446878,0.00038792,-0.00182554,-0.
 00090519,0.00014448,0.00046530,0.00086224,0.00015810,0.00288477,-0.008
 25387,-0.00037372,-0.00010478,0.00030931,0.03237836,0.05973742,-0.2887
 7985,-0.03414086,-0.06651914,0.31385439,-0.00386942,0.00147647,-0.0040
 0210,0.00028486,-0.00032251,0.00028528,-0.00092817,0.02153603,0.014091
 63,0.00122787,-0.00064665,0.00080152,-0.04732035,-0.01702675,-0.009822
 19,-0.00068455,0.00390950,0.00258574,0.05066208,0.00320613,0.00039834,
 0.00410756,-0.00049454,0.00015844,-0.00033227,0.00079658,-0.01860696,-
 0.01115008,-0.00028749,0.00138610,0.00004893,-0.01614346,-0.23196257,-
 0.12065858,0.00066837,0.00785211,0.00436714,0.01413561,0.25190223,-0.0
 0138627,-0.00021432,-0.00179118,0.00015256,0.00035777,0.00047089,-0.00
 035551,0.01047143,0.00564369,0.00070049,-0.00066885,0.00016922,-0.0089
 9841,-0.12071065,-0.12352850,-0.00269270,-0.02665843,-0.01644609,0.012
 10418,0.13113423,0.13186673,-0.00043388,-0.00287325,-0.00095649,-0.000
 28048,0.00011224,0.00025022,-0.02065108,-0.00616265,0.00293970,-0.0019
 5221,0.00363151,-0.00103224,-0.26236665,-0.09231465,0.02789121,-0.0027
 9794,-0.00130603,0.00069841,-0.00114652,-0.00083589,-0.00002032,0.2883
 0651,0.00110784,0.00210176,-0.00011544,-0.00002831,-0.00002472,-0.0001
 1699,0.02109743,0.00862578,-0.00356123,0.00354161,-0.00272548,0.001450
 56,-0.09254167,-0.08761171,0.01165452,-0.00604771,-0.00380515,0.000136
 46,-0.02469258,-0.01014124,0.00482498,0.09839164,0.09286219,0.00062410
 ,-0.00019691,0.00006276,-0.00011548,0.00003825,0.00001035,-0.00870291,
 -0.00424637,0.00078727,-0.00150049,0.00157539,0.00010687,0.02833420,0.
 01154166,-0.05196175,0.02928083,0.01241558,-0.00248905,-0.01730660,-0.
 00641871,0.00225051,-0.02983834,-0.01422108,0.05094668,0.00022646,-0.0
 0541841,0.00133627,0.00237448,0.00054803,-0.00043327,-0.08189036,-0.00
 632885,0.02282309,-0.00592159,-0.00756974,0.03117638,0.00130643,0.0072
 2873,-0.02346355,-0.00332752,0.00340339,-0.00190494,0.00035122,-0.0004
 0977,-0.00004475,-0.00006984,0.00039620,-0.00143074,0.53124953,0.00440
 027,0.01960090,-0.03208701,-0.00078705,-0.00590339,-0.00514516,-0.0083
 5110,-0.08681418,0.01399164,-0.00202781,-0.00329677,0.01585043,0.00013
 240,-0.00770364,0.02036622,0.00212937,-0.00212667,0.00020246,-0.000138
 32,-0.00039673,0.00085416,-0.00110120,0.00097932,-0.00086076,0.0379425
 5,0.57921436,0.00296972,-0.00796299,-0.03421899,0.00095658,-0.00137750
 ,0.00043892,0.02603364,0.01297657,-0.15921609,0.00101307,0.00185950,-0
 .00688053,-0.00540814,0.00656691,-0.00527506,0.00185472,-0.00203248,0.
 00170921,0.00072145,-0.00157975,0.00078896,0.00135989,-0.00060235,0.00
 047719,-0.01131121,0.07788204,0.47924321,0.00057967,-0.00152069,0.0010
 3395,-0.00012683,0.00016069,0.00040026,0.00080410,0.00405948,0.0057428
 1,0.00030463,0.00064710,-0.00011870,0.00008477,-0.00020192,-0.00059106
 ,-0.00017744,0.00002871,0.00010205,0.00024310,0.00011969,-0.00022820,0
 .00000197,-0.00015164,-0.00004141,-0.05121684,-0.01721012,-0.00937821,
 0.05687088,0.00001813,-0.00147992,0.00304015,-0.00002822,0.00062671,0.
 00040610,-0.00013190,0.00768381,0.00593244,0.00026801,0.00053293,-0.00
 046473,-0.00024252,0.00076665,0.00003367,-0.00010010,0.00026888,-0.000
 13020,-0.00016059,0.00031850,-0.00016991,0.00003885,-0.00008131,-0.000
 02626,-0.01011934,-0.21677149,-0.12086030,0.00067038,0.24363416,0.0008
 5138,0.00461544,-0.00536268,-0.00011165,-0.00151056,-0.00146141,-0.001
 71671,-0.02548092,-0.02073105,0.00029798,-0.00007073,0.00127996,0.0004
 6604,-0.00143959,0.00113073,0.00020176,0.00029052,0.00032691,-0.000436
 89,0.00108165,-0.00013342,-0.00008920,0.00014885,-0.00006795,-0.004563
 30,-0.12563620,-0.13815177,0.00773410,0.12905457,0.14813178,-0.0000298
 1,-0.00138253,-0.00066620,-0.00020753,0.00011756,0.00016038,-0.0036322
 0,-0.00403130,0.00204734,0.00061121,0.00021149,0.00032780,0.00023709,-
 0.00003075,0.00035504,0.00049090,-0.00011773,0.00018530,0.00001194,0.0
 0002333,0.00001957,0.00055063,-0.00032590,0.00019967,-0.22363313,-0.09
 949430,0.02932459,0.00053253,-0.00232230,0.00021861,0.25796816,0.00087
 080,-0.00112549,-0.00057726,-0.00014604,0.00002166,0.00024405,-0.00776
 832,-0.00257685,0.00175481,0.00032659,0.00017030,0.00204228,-0.0007446
 7,0.00020868,-0.00050370,0.00026398,0.00014000,-0.00005936,-0.00005734
 ,0.00002882,0.00001671,0.00059430,-0.00004785,0.00035435,-0.10339753,-
 0.10968140,0.01278601,-0.02256793,-0.01128236,0.00384789,0.10384220,0.
 11192284,0.00096521,0.00320628,0.00090880,-0.00039834,-0.00006132,0.00
 017115,0.02800164,0.01638521,-0.00778018,0.00099873,0.00136469,-0.0059
 7707,0.00128823,-0.00061897,0.00102033,-0.00030820,-0.00031820,0.00009
 902,-0.00015856,0.00002708,-0.00005747,-0.00089071,0.00008750,0.000070
 67,0.02789855,0.01352643,-0.05540701,-0.01614762,-0.00940859,0.0037568
 8,-0.02635639,-0.02001819,0.05934285,-0.06416366,0.00852618,-0.0033410
 2,0.01933204,0.00121420,-0.00031011,0.02476069,0.00059711,0.00258834,-
 0.00099589,0.00423732,0.00258374,-0.00129641,-0.00250636,-0.00361528,-
 0.00020590,0.00026475,-0.00000376,0.00106390,-0.00054924,0.00040318,0.
 00021951,-0.00039427,-0.00011912,-0.00381093,0.00128354,-0.00154191,0.
 00060791,-0.00016789,-0.00010042,0.00104097,-0.00017412,-0.00016550,0.
 02395691,0.01100885,-0.68594039,0.19076310,-0.00009898,-0.02341816,0.0
 3022656,-0.00040190,-0.05555274,0.00407953,0.00121225,-0.00276684,-0.0
 0212146,-0.00503697,-0.00162162,-0.00672195,-0.00034627,0.00068933,0.0
 0029402,0.00248558,-0.00175721,0.00110561,0.00161163,-0.00005658,0.000
 02106,0.00280249,-0.00363002,0.00867034,0.00043858,0.00090215,-0.00028
 717,0.00091339,0.00081381,-0.00177093,-0.00925231,0.77042828,-0.002481
 34,0.19357308,-0.17372181,-0.00082624,0.04862403,-0.00900760,0.0018997
 6,-0.01244007,0.02349027,-0.00115844,-0.00317351,-0.00076623,-0.000223
 57,-0.00360123,-0.00135895,0.00042364,-0.00124640,0.00057333,0.0007626
 9,-0.00069114,0.00050163,-0.00020165,0.00026802,-0.00007304,-0.0042422
 3,0.00701242,0.00023453,-0.00060491,-0.00103384,0.00128132,-0.00021481
 ,-0.00034734,0.00112372,0.00493857,-0.21717607,0.16357784,-0.00064383,
 0.00402735,0.00079153,-0.00026467,-0.00028853,-0.00084153,-0.00523933,
 0.00746861,-0.00924752,0.00208219,0.00092741,-0.00128189,0.00222653,-0
 .00061485,-0.00210026,-0.00042050,0.00073367,-0.00020399,0.00006504,-0
 .00003099,0.00028526,0.00074349,-0.00044525,0.00063752,-0.16233664,0.0
 4717527,-0.05323638,-0.00411720,0.00831974,-0.00053744,-0.03441647,0.0
 2848042,-0.01587842,0.00126732,-0.00347477,-0.00152836,0.23823773,-0.0
 0030837,-0.01005948,-0.00055004,0.00033221,0.00144784,0.00057544,0.017
 66882,-0.01028721,0.01309468,0.00011722,0.00034555,-0.00244575,-0.0013
 3642,0.00080793,0.00517049,0.00144114,-0.00082408,0.00072949,-0.000473
 29,0.00074865,-0.00044958,0.00027308,-0.00009961,-0.00000776,0.0793455
 6,-0.13523699,0.02671964,0.03202555,-0.02475939,0.01279717,0.00410381,
 0.00899703,-0.00165269,-0.00229728,0.00631405,-0.00723907,-0.07997499,
 0.52923482,0.00006165,-0.00347784,0.00518999,0.00042865,0.00092580,-0.
 00013661,-0.03327184,0.02658162,-0.01068275,-0.00057370,-0.00115959,0.
 00322592,0.00225148,-0.00012349,-0.00766762,-0.00179367,0.00188257,-0.
 00069610,0.00004417,0.00052573,0.00014977,-0.00028313,0.00002739,-0.00
 025792,-0.03534269,0.00075758,-0.09070708,0.01375413,-0.00823348,0.009
 61702,-0.00405401,0.00053136,0.00311472,-0.00432684,-0.00164368,-0.007
 97719,0.11252259,0.18043069,0.24845707,0.00083556,0.00378748,-0.001117
 75,0.00014595,-0.00078228,0.00048758,0.00079255,-0.00044234,-0.0014227
 2,-0.00009143,-0.00042873,0.00003385,-0.00008001,-0.00003952,-0.000076
 96,-0.00003520,-0.00001441,-0.00001309,0.00003900,-0.00019833,0.000060
 91,-0.00012353,0.00009261,-0.00002125,-0.00330130,0.03604650,0.0166421
 9,-0.00439127,0.00395776,-0.00221426,0.00047569,0.00047764,0.00115140,
 -0.00177646,-0.00186158,0.00345689,-0.03718367,-0.05091704,-0.04941680
 ,0.04469411,0.00068282,0.00271666,0.00353122,-0.00000199,-0.00054822,-
 0.00020626,-0.00160187,-0.00050522,-0.00067769,0.00006093,-0.00027352,
 0.00005894,0.00031973,-0.00024700,-0.00078286,-0.00018425,0.00033517,-
 0.00017804,-0.00002517,0.00007151,0.00010686,-0.00005958,0.00002462,0.
 00003157,0.00157669,-0.02823330,-0.01304566,0.00350212,-0.00035932,0.0
 0258905,-0.00150697,0.00241082,-0.00074830,-0.00078163,-0.00440406,-0.
 00252889,-0.01230309,-0.36662911,-0.19702466,0.01032226,0.39564098,-0.
 00155934,0.00961347,-0.00382942,-0.00080852,-0.00128552,0.00063782,-0.
 00013945,0.00093092,0.00087408,0.00024613,-0.00006495,-0.00021389,-0.0
 0045857,-0.00027824,-0.00145977,-0.00015992,0.00018973,-0.00016427,0.0
 0032968,-0.00046180,0.00011526,0.00017265,0.00001881,0.00013741,-0.000
 49761,0.01328575,0.00696451,-0.00165721,0.00186038,0.00038369,-0.00154
 689,-0.00007162,-0.00038643,0.00301013,-0.00543894,0.00212219,-0.02938
 109,-0.22717270,-0.15162922,0.03245002,0.20887473,0.14644805\\-0.00000
 256,-0.00000108,-0.00000179,-0.00000431,0.00000607,-0.00000299,-0.0000
 0054,-0.00000021,-0.00000056,0.00000047,0.00000041,0.00000047,0.000001
 07,0.00000250,0.00000395,-0.00000083,0.00000622,0.00000475,0.00000279,
 0.00000205,0.00000815,-0.00000068,0.00000372,0.00000562,0.00000494,-0.
 00000620,0.00000118,0.00000420,-0.00000520,0.00000266,-0.00000022,-0.0
 0000288,-0.00000042,-0.00000506,0.00000536,-0.00001188,-0.00000011,-0.
 00001014,-0.00000567,0.00000082,-0.00000062,-0.00000347\\\@


 WHEN IT COMES TO CASH FLOW, IT SEEMS LIKE THE TIDE IS ALWAYS GOING OUT.
 Job cpu time:  0 days  0 hours 35 minutes  0.1 seconds.
 File lengths (MBytes):  RWF=     39 Int=      0 D2E=      0 Chk=      7 Scr=      1
 Normal termination of Gaussian 03 at Thu May 14 20:54:59 2015.
