 Entering Gaussian System, Link 0=g03
 Input=freq.gjf
 Output=freq.log
 Initial command:
 /opt/g03/l1.exe /scratch/goldmanm/Gau-22600.inp -scrdir=/scratch/goldmanm/
 Entering Link 1 = /opt/g03/l1.exe PID=     22602.
  
 Copyright (c) 1988,1990,1992,1993,1995,1998,2003,2004, Gaussian, Inc.
                  All Rights Reserved.
  
 This is the Gaussian(R) 03 program.  It is based on the
 the Gaussian(R) 98 system (copyright 1998, Gaussian, Inc.),
 the Gaussian(R) 94 system (copyright 1995, Gaussian, Inc.),
 the Gaussian 92(TM) system (copyright 1992, Gaussian, Inc.),
 the Gaussian 90(TM) system (copyright 1990, Gaussian, Inc.),
 the Gaussian 88(TM) system (copyright 1988, Gaussian, Inc.),
 the Gaussian 86(TM) system (copyright 1986, Carnegie Mellon
 University), and the Gaussian 82(TM) system (copyright 1983,
 Carnegie Mellon University). Gaussian is a federally registered
 trademark of Gaussian, Inc.
  
 This software contains proprietary and confidential information,
 including trade secrets, belonging to Gaussian, Inc.
  
 This software is provided under written license and may be
 used, copied, transmitted, or stored only in accord with that
 written license.
  
 The following legend is applicable only to US Government
 contracts under FAR:
  
                    RESTRICTED RIGHTS LEGEND
  
 Use, reproduction and disclosure by the US Government is
 subject to restrictions as set forth in subparagraphs (a)
 and (c) of the Commercial Computer Software - Restricted
 Rights clause in FAR 52.227-19.
  
 Gaussian, Inc.
 340 Quinnipiac St., Bldg. 40, Wallingford CT 06492
  
  
 ---------------------------------------------------------------
 Warning -- This program may not be used in any manner that
 competes with the business of Gaussian, Inc. or will provide
 assistance to any competitor of Gaussian, Inc.  The licensee
 of this program is prohibited from giving any competitor of
 Gaussian, Inc. access to this program.  By using this program,
 the user acknowledges that Gaussian, Inc. is engaged in the
 business of creating and licensing software in the field of
 computational chemistry and represents and warrants to the
 licensee that it is not a competitor of Gaussian, Inc. and that
 it will not use this program in any manner prohibited above.
 ---------------------------------------------------------------
  

 Cite this work as:
 Gaussian 03, Revision D.01,
 M. J. Frisch, G. W. Trucks, H. B. Schlegel, G. E. Scuseria, 
 M. A. Robb, J. R. Cheeseman, J. A. Montgomery, Jr., T. Vreven, 
 K. N. Kudin, J. C. Burant, J. M. Millam, S. S. Iyengar, J. Tomasi, 
 V. Barone, B. Mennucci, M. Cossi, G. Scalmani, N. Rega, 
 G. A. Petersson, H. Nakatsuji, M. Hada, M. Ehara, K. Toyota, 
 R. Fukuda, J. Hasegawa, M. Ishida, T. Nakajima, Y. Honda, O. Kitao, 
 H. Nakai, M. Klene, X. Li, J. E. Knox, H. P. Hratchian, J. B. Cross, 
 V. Bakken, C. Adamo, J. Jaramillo, R. Gomperts, R. E. Stratmann, 
 O. Yazyev, A. J. Austin, R. Cammi, C. Pomelli, J. W. Ochterski, 
 P. Y. Ayala, K. Morokuma, G. A. Voth, P. Salvador, J. J. Dannenberg, 
 V. G. Zakrzewski, S. Dapprich, A. D. Daniels, M. C. Strain, 
 O. Farkas, D. K. Malick, A. D. Rabuck, K. Raghavachari, 
 J. B. Foresman, J. V. Ortiz, Q. Cui, A. G. Baboul, S. Clifford, 
 J. Cioslowski, B. B. Stefanov, G. Liu, A. Liashenko, P. Piskorz, 
 I. Komaromi, R. L. Martin, D. J. Fox, T. Keith, M. A. Al-Laham, 
 C. Y. Peng, A. Nanayakkara, M. Challacombe, P. M. W. Gill, 
 B. Johnson, W. Chen, M. W. Wong, C. Gonzalez, and J. A. Pople, 
 Gaussian, Inc., Wallingford CT, 2004.
 
 ******************************************
 Gaussian 03:  AM64L-G03RevD.01 13-Oct-2005
                23-Jul-2019 
 ******************************************
 %chk=input.chk
 %mem=1500mb
 %nproc=8
 Will use up to    8 processors via shared memory.
 -------------------------------------
 # freq nosymm b3lyp/cbsb7 iop(7/33=1)
 -------------------------------------
 1/10=4,30=1,38=1/1,3;
 2/15=1,17=6,18=5,40=1/2;
 3/5=4,6=6,7=700,11=2,16=1,25=1,30=1,74=-5/1,2,3;
 4//1;
 5/5=2,38=5/2;
 8/6=4,10=90,11=11/1;
 11/6=1,8=1,9=11,15=111,16=1,31=1/1,2,10;
 10/6=1,31=1/2;
 6/7=2,8=2,9=2,10=2,18=1,28=1/1;
 7/8=1,10=1,25=1,30=1,33=1/1,2,3,16;
 1/10=4,30=1/3;
 99//99;
 -------
 NBO NRT
 -------
 Symbolic Z-matrix:
 Charge =  0 Multiplicity = 2
 O                     1.14318  -1.64042  -1.49672 
 H                     1.98518  -0.92367  -0.70064 
 C                     1.79259   0.1872   -0.15246 
 C                     0.26098   0.01874  -0.00734 
 C                    -0.00085  -1.34342  -0.71266 
 H                     2.38268   0.32983   0.7539 
 O                     2.24917   1.12106  -1.05499 
 C                    -0.22221   0.07317   1.4394 
 H                    -0.19576   0.82947  -0.58024 
 H                    -0.17283  -2.13276   0.03181 
 H                    -0.87481  -1.29479  -1.37224 
 O                     1.55646   0.98285  -2.3152 
 H                     1.46594   0.00113  -2.39237 
 H                    -0.02115   1.04961   1.88826 
 H                     0.2651   -0.69251   2.05119 
 H                    -1.30109  -0.09886   1.49446 
 

 GradGradGradGradGradGradGradGradGradGradGradGradGradGradGradGradGradGrad
 Berny optimization.
 Initialization pass.
 Trust Radius=3.00D-01 FncErr=1.00D-07 GrdErr=1.00D-07
 Number of steps in this run=   2 maximum allowed number of steps=   2.
 GradGradGradGradGradGradGradGradGradGradGradGradGradGradGradGradGradGrad

                          Input orientation:                          
 ---------------------------------------------------------------------
 Center     Atomic     Atomic              Coordinates (Angstroms)
 Number     Number      Type              X           Y           Z
 ---------------------------------------------------------------------
    1          8             0        1.143180   -1.640420   -1.496720
    2          1             0        1.985180   -0.923670   -0.700640
    3          6             0        1.792590    0.187200   -0.152460
    4          6             0        0.260980    0.018740   -0.007340
    5          6             0       -0.000850   -1.343420   -0.712660
    6          1             0        2.382680    0.329830    0.753900
    7          8             0        2.249170    1.121060   -1.054990
    8          6             0       -0.222210    0.073170    1.439400
    9          1             0       -0.195760    0.829470   -0.580240
   10          1             0       -0.172830   -2.132760    0.031810
   11          1             0       -0.874810   -1.294790   -1.372240
   12          8             0        1.556460    0.982850   -2.315200
   13          1             0        1.465940    0.001130   -2.392370
   14          1             0       -0.021150    1.049610    1.888260
   15          1             0        0.265100   -0.692510    2.051190
   16          1             0       -1.301090   -0.098860    1.494460
 ---------------------------------------------------------------------
                    Distance matrix (angstroms):
                    1          2          3          4          5
     1  O    0.000000
     2  H    1.362512   0.000000
     3  C    2.359865   1.253644   0.000000
     4  C    2.397778   2.083667   1.547665   0.000000
     5  C    1.418367   2.029938   2.423437   1.556121   0.000000
     6  H    3.237829   1.960856   1.090889   2.275494   3.260641
     7  O    3.007343   2.091931   1.376634   2.503114   3.354615
     8  C    3.663534   3.232032   2.570300   1.526267   2.585941
     9  H    2.955174   2.800803   2.132848   1.092753   2.185629
    10  H    2.076219   2.579804   3.046153   2.195148   1.098577
    11  H    2.051156   2.961135   3.286211   2.208695   1.096000
    12  O    2.778895   2.534842   2.316519   2.816735   3.225660
    13  H    1.897643   1.996701   2.271237   2.672191   2.603980
    14  H    4.477724   3.823820   2.863205   2.176141   3.534373
    15  H    3.775874   3.253410   2.821912   2.177944   2.851891
    16  H    4.159089   4.037121   3.516395   2.170091   2.847970
                    6          7          8          9         10
     6  H    0.000000
     7  O    1.978877   0.000000
     8  C    2.705778   3.664393   0.000000
     9  H    2.945831   2.507607   2.156765   0.000000
    10  H    3.621656   4.199353   2.617227   3.024886   0.000000
    11  H    4.215579   3.961847   3.194139   2.366612   1.779417
    12  O    3.244757   1.444672   4.253023   2.470604   4.266840
    13  H    3.293550   1.912140   4.187780   2.594457   3.621561
    14  H    2.753771   3.717819   1.093314   2.484440   3.687396
    15  H    2.685570   4.107788   1.094543   3.074612   2.518730
    16  H    3.781847   4.537868   1.093896   2.527436   2.747556
                   11         12         13         14         15
    11  H    0.000000
    12  O    3.462353   0.000000
    13  H    2.863422   0.988900   0.000000
    14  H    4.105582   4.490255   4.651294   0.000000
    15  H    3.658143   4.851784   4.654931   1.772983   0.000000
    16  H    3.135272   4.883564   4.772201   1.764174   1.765027
                   16
    16  H    0.000000
 Symmetry turned off by external request.
 Stoichiometry    C4H9O3(2)
 Framework group  C1[X(C4H9O3)]
 Deg. of freedom    42
 Full point group                 C1
 Rotational constants (GHZ):      3.4817999      2.2059377      1.6145224
 Standard basis: CBSB7 (5D, 7F)
 Integral buffers will be    131072 words long.
 Raffenetti 2 integral format.
 Two-electron integral symmetry is turned off.
   180 basis functions,   296 primitive gaussians,   187 cartesian basis functions
    29 alpha electrons       28 beta electrons
       nuclear repulsion energy       335.9779162285 Hartrees.
 NAtoms=   16 NActive=   16 NUniq=   16 SFac= 7.50D-01 NAtFMM=   80 NAOKFM=F Big=F
 One-electron integrals computed using PRISM.
 NBasis=   180 RedAO= T  NBF=   180
 NBsUse=   180 1.00D-06 NBFU=   180
 Harris functional with IExCor=  402 diagonalized for initial guess.
 ExpMin= 1.03D-01 ExpMax= 8.59D+03 ExpMxC= 1.30D+03 IAcc=1 IRadAn=         1 AccDes= 1.00D-06
 HarFok:  IExCor= 402 AccDes= 1.00D-06 IRadAn=         1 IDoV=1
 ScaDFX=  1.000000  1.000000  1.000000  1.000000
 <S**2> of initial guess= 0.7500
 Requested convergence on RMS density matrix=1.00D-08 within 128 cycles.
 Requested convergence on MAX density matrix=1.00D-06.
 Requested convergence on             energy=1.00D-06.
 No special actions if energy rises.
 Integral accuracy reduced to 1.0D-05 until final iterations.
 Initial convergence to 1.0D-05 achieved.  Increase integral accuracy.
 SCF Done:  E(UB+HF-LYP) =  -383.426738123     A.U. after   22 cycles
             Convg  =    0.3847D-08             -V/T =  2.0033
             S**2   =   0.7571
 Annihilation of the first spin contaminant:
 S**2 before annihilation     0.7571,   after     0.7500
 Range of M.O.s used for correlation:     1   180
 NBasis=   180 NAE=    29 NBE=    28 NFC=     0 NFV=     0
 NROrb=    180 NOA=    29 NOB=    28 NVA=   151 NVB=   152

 **** Warning!!: The largest alpha MO coefficient is  0.10055233D+02


 **** Warning!!: The largest beta MO coefficient is  0.10766286D+02

 Symmetrizing basis deriv contribution to polar:
 IMax=3 JMax=2 DiffMx= 0.00D+00
 G2DrvN: will do   17 centers at a time, making    1 passes doing MaxLOS=2.
 FoFDir/FoFCou used for L=0 through L=2.
 DoAtom=TTTTTTTTTTTTTTTT
          Differentiating once with respect to electric field.
                with respect to dipole field.
          Differentiating once with respect to nuclear coordinates.
 Symmetry not used in FoFDir.
 MinBra= 0 MaxBra= 2 Meth= 1.
 IRaf=       0 NMat=  51 IRICut=      51 DoRegI=T DoRafI=T ISym2E= 0 JSym2E=0.
          There are  51 degrees of freedom in the 1st order CPHF.
    48 vectors were produced by pass  0.
 AX will form  48 AO Fock derivatives at one time.
    48 vectors were produced by pass  1.
    48 vectors were produced by pass  2.
    48 vectors were produced by pass  3.
    48 vectors were produced by pass  4.
    48 vectors were produced by pass  5.
    31 vectors were produced by pass  6.
     4 vectors were produced by pass  7.
     3 vectors were produced by pass  8.
 Inv2:  IOpt= 1 Iter= 1 AM= 2.34D-15 Conv= 1.00D-12.
 Inverted reduced A of dimension  326 with in-core refinement.
 Isotropic polarizability for W=    0.000000       63.93 Bohr**3.
 End of Minotr Frequency-dependent properties file   721 does not exist.

 **********************************************************************

            Population analysis using the SCF density.

 **********************************************************************

 Alpha  occ. eigenvalues --  -19.22384 -19.18266 -19.13698 -10.25695 -10.22331
 Alpha  occ. eigenvalues --  -10.20214 -10.18246  -1.15963  -1.01445  -0.94357
 Alpha  occ. eigenvalues --   -0.81111  -0.70435  -0.68072  -0.60063  -0.55618
 Alpha  occ. eigenvalues --   -0.53759  -0.49036  -0.46739  -0.44906  -0.44671
 Alpha  occ. eigenvalues --   -0.43137  -0.41413  -0.39062  -0.37208  -0.36627
 Alpha  occ. eigenvalues --   -0.34091  -0.30849  -0.28434  -0.24953
 Alpha virt. eigenvalues --   -0.00506   0.03709   0.05650   0.06991   0.07609
 Alpha virt. eigenvalues --    0.09702   0.10393   0.10539   0.12518   0.13863
 Alpha virt. eigenvalues --    0.15041   0.18563   0.20324   0.21392   0.24969
 Alpha virt. eigenvalues --    0.29878   0.32016   0.33282   0.34555   0.38400
 Alpha virt. eigenvalues --    0.39795   0.41531   0.45473   0.47305   0.48288
 Alpha virt. eigenvalues --    0.50220   0.51160   0.52192   0.54524   0.56138
 Alpha virt. eigenvalues --    0.56609   0.57497   0.58469   0.59026   0.62737
 Alpha virt. eigenvalues --    0.63547   0.67798   0.71958   0.76224   0.79766
 Alpha virt. eigenvalues --    0.80530   0.82985   0.85413   0.91137   0.92427
 Alpha virt. eigenvalues --    0.95063   0.96216   1.04106   1.05898   1.07150
 Alpha virt. eigenvalues --    1.10964   1.17590   1.24391   1.29117   1.32601
 Alpha virt. eigenvalues --    1.34453   1.35462   1.38452   1.42712   1.43263
 Alpha virt. eigenvalues --    1.44913   1.46285   1.48070   1.49940   1.51951
 Alpha virt. eigenvalues --    1.53738   1.56386   1.58045   1.59422   1.61229
 Alpha virt. eigenvalues --    1.62916   1.64907   1.67472   1.69080   1.71335
 Alpha virt. eigenvalues --    1.73093   1.74421   1.81012   1.83278   1.92158
 Alpha virt. eigenvalues --    1.93375   1.95547   2.03044   2.04055   2.06422
 Alpha virt. eigenvalues --    2.10095   2.13815   2.15240   2.21058   2.22270
 Alpha virt. eigenvalues --    2.25921   2.35306   2.35788   2.38721   2.41359
 Alpha virt. eigenvalues --    2.42756   2.45754   2.47231   2.51248   2.53539
 Alpha virt. eigenvalues --    2.53744   2.54317   2.56615   2.61052   2.62946
 Alpha virt. eigenvalues --    2.68608   2.70423   2.70774   2.78902   2.83071
 Alpha virt. eigenvalues --    2.83970   2.85797   2.91367   2.93957   2.99938
 Alpha virt. eigenvalues --    3.03901   3.09628   3.11180   3.19239   3.19673
 Alpha virt. eigenvalues --    3.20588   3.31458   3.39957   3.46406   3.59016
 Alpha virt. eigenvalues --    3.66621   3.71139   3.77123   3.78199   3.78878
 Alpha virt. eigenvalues --    3.86031   3.93269   4.08516   4.14338   4.37212
 Alpha virt. eigenvalues --    4.68882   4.78463   4.85032   4.98708   5.00360
 Alpha virt. eigenvalues --    5.26269   5.28323   5.45525   5.69867  23.70766
 Alpha virt. eigenvalues --   23.76919  23.81692  23.90435  49.76359  49.79473
 Alpha virt. eigenvalues --   49.90097
  Beta  occ. eigenvalues --  -19.21833 -19.18202 -19.12297 -10.25128 -10.22368
  Beta  occ. eigenvalues --  -10.20157 -10.18248  -1.15229  -0.98631  -0.93786
  Beta  occ. eigenvalues --   -0.80538  -0.69372  -0.67514  -0.59534  -0.54748
  Beta  occ. eigenvalues --   -0.52034  -0.48286  -0.46025  -0.44197  -0.44040
  Beta  occ. eigenvalues --   -0.42472  -0.40399  -0.38005  -0.36907  -0.35800
  Beta  occ. eigenvalues --   -0.32805  -0.27716  -0.27339
  Beta virt. eigenvalues --   -0.13996  -0.00079   0.03802   0.05804   0.07207
  Beta virt. eigenvalues --    0.07683   0.10021   0.10555   0.10761   0.12616
  Beta virt. eigenvalues --    0.14175   0.16139   0.19090   0.20701   0.21826
  Beta virt. eigenvalues --    0.25326   0.29950   0.32239   0.33433   0.34665
  Beta virt. eigenvalues --    0.39036   0.40321   0.41717   0.46089   0.47777
  Beta virt. eigenvalues --    0.49160   0.50603   0.51420   0.52747   0.54758
  Beta virt. eigenvalues --    0.56176   0.56722   0.57651   0.58729   0.59160
  Beta virt. eigenvalues --    0.62867   0.63926   0.68114   0.72246   0.76621
  Beta virt. eigenvalues --    0.80435   0.81066   0.83448   0.85570   0.91628
  Beta virt. eigenvalues --    0.92586   0.95467   0.97560   1.04564   1.06518
  Beta virt. eigenvalues --    1.08375   1.11275   1.17710   1.24798   1.29391
  Beta virt. eigenvalues --    1.32908   1.34583   1.35796   1.39207   1.43366
  Beta virt. eigenvalues --    1.43444   1.45065   1.47112   1.48407   1.50224
  Beta virt. eigenvalues --    1.52196   1.53938   1.56822   1.58177   1.59756
  Beta virt. eigenvalues --    1.61591   1.63178   1.65134   1.67972   1.69235
  Beta virt. eigenvalues --    1.71742   1.73472   1.74657   1.81161   1.83499
  Beta virt. eigenvalues --    1.92402   1.94142   1.96015   2.03301   2.04381
  Beta virt. eigenvalues --    2.06912   2.10262   2.14061   2.15560   2.21583
  Beta virt. eigenvalues --    2.22919   2.26818   2.35521   2.36016   2.39034
  Beta virt. eigenvalues --    2.41540   2.42892   2.45915   2.47491   2.51495
  Beta virt. eigenvalues --    2.53828   2.54057   2.54707   2.56878   2.61277
  Beta virt. eigenvalues --    2.63313   2.68795   2.70861   2.71133   2.79688
  Beta virt. eigenvalues --    2.83497   2.84352   2.86194   2.92104   2.96546
  Beta virt. eigenvalues --    3.00989   3.04517   3.10565   3.12063   3.19947
  Beta virt. eigenvalues --    3.20387   3.22419   3.31842   3.41049   3.48840
  Beta virt. eigenvalues --    3.59889   3.67432   3.71468   3.77304   3.78242
  Beta virt. eigenvalues --    3.79368   3.86410   3.94175   4.08891   4.14921
  Beta virt. eigenvalues --    4.37381   4.69104   4.79613   4.86367   4.99836
  Beta virt. eigenvalues --    5.05531   5.26597   5.28744   5.46781   5.70232
  Beta virt. eigenvalues --   23.71308  23.76982  23.81743  23.90437  49.76487
  Beta virt. eigenvalues --   49.80119  49.91338
          Condensed to atoms (all electrons):
              1          2          3          4          5          6
     1  O    8.171042   0.131049  -0.075713  -0.059387   0.264729   0.001886
     2  H    0.131049   0.557475   0.272674  -0.057607  -0.053562  -0.015457
     3  C   -0.075713   0.272674   5.149957   0.286505  -0.075182   0.382188
     4  C   -0.059387  -0.057607   0.286505   5.357487   0.308816  -0.039329
     5  C    0.264729  -0.053562  -0.075182   0.308816   4.790118   0.006942
     6  H    0.001886  -0.015457   0.382188  -0.039329   0.006942   0.527044
     7  O   -0.003384  -0.020662   0.239922  -0.034555   0.004806  -0.022377
     8  C    0.003935   0.000168  -0.053004   0.314950  -0.046084   0.000076
     9  H    0.002497   0.002976  -0.043033   0.394134  -0.033627   0.002877
    10  H   -0.037345  -0.009720   0.002924  -0.065622   0.413364   0.000833
    11  H   -0.028925   0.012153   0.003635  -0.014869   0.372957  -0.000582
    12  O   -0.019157  -0.000380  -0.076016   0.002460   0.005968   0.004032
    13  H    0.059802  -0.007805   0.017769  -0.012446  -0.002418   0.000552
    14  H   -0.000186  -0.000305  -0.003788  -0.032546   0.007206   0.001932
    15  H    0.000221   0.000856  -0.005574  -0.041278  -0.004991   0.001665
    16  H   -0.000022  -0.000456   0.007157  -0.029793  -0.004451   0.000074
              7          8          9         10         11         12
     1  O   -0.003384   0.003935   0.002497  -0.037345  -0.028925  -0.019157
     2  H   -0.020662   0.000168   0.002976  -0.009720   0.012153  -0.000380
     3  C    0.239922  -0.053004  -0.043033   0.002924   0.003635  -0.076016
     4  C   -0.034555   0.314950   0.394134  -0.065622  -0.014869   0.002460
     5  C    0.004806  -0.046084  -0.033627   0.413364   0.372957   0.005968
     6  H   -0.022377   0.000076   0.002877   0.000833  -0.000582   0.004032
     7  O    7.939417   0.001852  -0.008660  -0.000319   0.000002   0.088909
     8  C    0.001852   4.870978  -0.020055   0.001380   0.000704   0.001068
     9  H   -0.008660  -0.020055   0.534984   0.006885  -0.010044   0.013889
    10  H   -0.000319   0.001380   0.006885   0.629020  -0.050628  -0.000115
    11  H    0.000002   0.000704  -0.010044  -0.050628   0.602220   0.001272
    12  O    0.088909   0.001068   0.013889  -0.000115   0.001272   7.939282
    13  H   -0.036880  -0.000326   0.000466   0.002866  -0.004785   0.275056
    14  H    0.000575   0.401509  -0.005667   0.000350  -0.000570  -0.000022
    15  H   -0.000086   0.405093   0.007788   0.004738  -0.000394  -0.000042
    16  H   -0.000217   0.401299  -0.007127  -0.000453   0.001304   0.000000
             13         14         15         16
     1  O    0.059802  -0.000186   0.000221  -0.000022
     2  H   -0.007805  -0.000305   0.000856  -0.000456
     3  C    0.017769  -0.003788  -0.005574   0.007157
     4  C   -0.012446  -0.032546  -0.041278  -0.029793
     5  C   -0.002418   0.007206  -0.004991  -0.004451
     6  H    0.000552   0.001932   0.001665   0.000074
     7  O   -0.036880   0.000575  -0.000086  -0.000217
     8  C   -0.000326   0.401509   0.405093   0.401299
     9  H    0.000466  -0.005667   0.007788  -0.007127
    10  H    0.002866   0.000350   0.004738  -0.000453
    11  H   -0.004785  -0.000570  -0.000394   0.001304
    12  O    0.275056  -0.000022  -0.000042   0.000000
    13  H    0.435518   0.000065   0.000042   0.000006
    14  H    0.000065   0.565819  -0.029429  -0.026054
    15  H    0.000042  -0.029429   0.580811  -0.030159
    16  H    0.000006  -0.026054  -0.030159   0.568552
 Mulliken atomic charges:
              1
     1  O   -0.411042
     2  H    0.188603
     3  C   -0.030420
     4  C   -0.276922
     5  C    0.045410
     6  H    0.147644
     7  O   -0.148342
     8  C   -0.283544
     9  H    0.161718
    10  H    0.101842
    11  H    0.116550
    12  O   -0.236204
    13  H    0.272517
    14  H    0.121111
    15  H    0.110739
    16  H    0.120341
 Sum of Mulliken charges=   0.00000
 Atomic charges with hydrogens summed into heavy atoms:
              1
     1  O   -0.411042
     2  H    0.000000
     3  C    0.305826
     4  C   -0.115204
     5  C    0.263802
     6  H    0.000000
     7  O   -0.148342
     8  C    0.068647
     9  H    0.000000
    10  H    0.000000
    11  H    0.000000
    12  O    0.036313
    13  H    0.000000
    14  H    0.000000
    15  H    0.000000
    16  H    0.000000
 Sum of Mulliken charges=   0.00000
          Atomic-Atomic Spin Densities.
              1          2          3          4          5          6
     1  O    0.612838  -0.050648  -0.070921   0.010353  -0.016268   0.001292
     2  H   -0.050648  -0.044923   0.075240   0.011087   0.003171  -0.002599
     3  C   -0.070921   0.075240   0.381738  -0.007139   0.008625  -0.006720
     4  C    0.010353   0.011087  -0.007139   0.024886  -0.002095   0.003081
     5  C   -0.016268   0.003171   0.008625  -0.002095  -0.023879  -0.000057
     6  H    0.001292  -0.002599  -0.006720   0.003081  -0.000057  -0.002570
     7  O    0.005109  -0.001942  -0.073457  -0.002704  -0.000650   0.000991
     8  C    0.000583  -0.000718   0.001099   0.001113   0.000231   0.000857
     9  H   -0.001224  -0.000133  -0.001636   0.005712  -0.001968  -0.000600
    10  H    0.000286   0.001194   0.000049   0.000236   0.001330  -0.000058
    11  H   -0.002825  -0.001681  -0.001732  -0.004885   0.008011   0.000067
    12  O    0.002124  -0.000749   0.001842   0.001806   0.000169   0.000188
    13  H   -0.008902   0.003790   0.005497  -0.000926   0.000331  -0.000305
    14  H   -0.000089   0.000121  -0.001758   0.001106  -0.000400  -0.000507
    15  H   -0.000179  -0.000093   0.000191   0.001493  -0.000460  -0.000344
    16  H    0.000195  -0.000006   0.000406  -0.006677   0.002024   0.000181
              7          8          9         10         11         12
     1  O    0.005109   0.000583  -0.001224   0.000286  -0.002825   0.002124
     2  H   -0.001942  -0.000718  -0.000133   0.001194  -0.001681  -0.000749
     3  C   -0.073457   0.001099  -0.001636   0.000049  -0.001732   0.001842
     4  C   -0.002704   0.001113   0.005712   0.000236  -0.004885   0.001806
     5  C   -0.000650   0.000231  -0.001968   0.001330   0.008011   0.000169
     6  H    0.000991   0.000857  -0.000600  -0.000058   0.000067   0.000188
     7  O    0.254745  -0.000269   0.002194   0.000002  -0.000028  -0.017151
     8  C   -0.000269  -0.005563  -0.001650  -0.000329   0.000495   0.000080
     9  H    0.002194  -0.001650   0.004030   0.000036  -0.001532  -0.002001
    10  H    0.000002  -0.000329   0.000036  -0.003947   0.000535   0.000002
    11  H   -0.000028   0.000495  -0.001532   0.000535   0.021029   0.000275
    12  O   -0.017151   0.000080  -0.002001   0.000002   0.000275   0.030146
    13  H   -0.001047  -0.000080   0.000748  -0.000136  -0.000314  -0.000526
    14  H    0.000197  -0.000980   0.000884   0.000016  -0.000077  -0.000033
    15  H    0.000023  -0.000844   0.000110   0.000059  -0.000098  -0.000006
    16  H   -0.000062   0.002536  -0.001088  -0.000154   0.000748   0.000028
             13         14         15         16
     1  O   -0.008902  -0.000089  -0.000179   0.000195
     2  H    0.003790   0.000121  -0.000093  -0.000006
     3  C    0.005497  -0.001758   0.000191   0.000406
     4  C   -0.000926   0.001106   0.001493  -0.006677
     5  C    0.000331  -0.000400  -0.000460   0.002024
     6  H   -0.000305  -0.000507  -0.000344   0.000181
     7  O   -0.001047   0.000197   0.000023  -0.000062
     8  C   -0.000080  -0.000980  -0.000844   0.002536
     9  H    0.000748   0.000884   0.000110  -0.001088
    10  H   -0.000136   0.000016   0.000059  -0.000154
    11  H   -0.000314  -0.000077  -0.000098   0.000748
    12  O   -0.000526  -0.000033  -0.000006   0.000028
    13  H    0.003003   0.000019   0.000014  -0.000040
    14  H    0.000019   0.005750   0.000883  -0.002566
    15  H    0.000014   0.000883   0.000535  -0.001158
    16  H   -0.000040  -0.002566  -0.001158   0.012499
 Mulliken atomic spin densities:
              1
     1  O    0.481723
     2  H   -0.008891
     3  C    0.311323
     4  C    0.036448
     5  C   -0.021885
     6  H   -0.007103
     7  O    0.165953
     8  C   -0.003438
     9  H    0.001882
    10  H   -0.000879
    11  H    0.017989
    12  O    0.016194
    13  H    0.001127
    14  H    0.002567
    15  H    0.000125
    16  H    0.006865
 Sum of Mulliken spin densities=   1.00000
 APT atomic charges:
              1
     1  O   -0.442877
     2  H   -0.070392
     3  C    0.478412
     4  C    0.033020
     5  C    0.352996
     6  H    0.031883
     7  O   -0.358239
     8  C    0.097753
     9  H   -0.007643
    10  H   -0.068575
    11  H   -0.023435
    12  O   -0.221385
    13  H    0.240087
    14  H   -0.009792
    15  H   -0.018952
    16  H   -0.012863
 Sum of APT charges=   0.00000
 APT Atomic charges with hydrogens summed into heavy atoms:
              1
     1  O   -0.442877
     2  H    0.000000
     3  C    0.439903
     4  C    0.025376
     5  C    0.260987
     6  H    0.000000
     7  O   -0.358239
     8  C    0.056147
     9  H    0.000000
    10  H    0.000000
    11  H    0.000000
    12  O    0.018702
    13  H    0.000000
    14  H    0.000000
    15  H    0.000000
    16  H    0.000000
 Sum of APT charges=   0.00000
 Electronic spatial extent (au):  <R**2>=  1064.3882
 Charge=     0.0000 electrons
 Dipole moment (field-independent basis, Debye):
    X=    -1.4676    Y=    -0.3263    Z=     2.6540  Tot=     3.0503
 Quadrupole moment (field-independent basis, Debye-Ang):
   XX=   -44.7628   YY=   -49.0951   ZZ=   -46.4928
   XY=    -0.5869   XZ=     5.6122   YZ=     0.9710
 Traceless Quadrupole moment (field-independent basis, Debye-Ang):
   XX=     2.0208   YY=    -2.3115   ZZ=     0.2908
   XY=    -0.5869   XZ=     5.6122   YZ=     0.9710
 Octapole moment (field-independent basis, Debye-Ang**2):
  XXX=  -119.3812  YYY=    21.4131  ZZZ=    71.3839  XYY=   -49.6344
  XXY=     1.0327  XXZ=    31.9522  XZZ=   -45.3738  YZZ=     2.1192
  YYZ=    34.7243  XYZ=     2.3760
 Hexadecapole moment (field-independent basis, Debye-Ang**3):
 XXXX=  -496.6152 YYYY=  -317.7244 ZZZZ=  -494.3648 XXXY=   -51.8355
 XXXZ=   161.3960 YYYX=   -31.3496 YYYZ=   -15.3802 ZZZX=   155.6317
 ZZZY=     6.6579 XXYY=  -149.7358 XXZZ=  -172.9387 YYZZ=  -152.5187
 XXYZ=     7.5810 YYXZ=    66.7011 ZZXY=   -19.3920
 N-N= 3.359779162285D+02 E-N=-1.571064161635D+03  KE= 3.821535776718D+02
  Exact polarizability:  58.990  10.802  66.897  -1.899   0.897  65.889
 Approx polarizability:  84.444  17.200 110.901   5.393   4.903  95.254
                          Isotropic Fermi Contact Couplings
        Atom                 a.u.       MegaHertz       Gauss      10(-4) cm-1
     1  O(17)              0.06295     -38.16278     -13.61743     -12.72973
     2  H(1)              -0.00019      -0.82930      -0.29591      -0.27662
     3  C(13)              0.06049      68.00626      24.26632      22.68445
     4  C(13)             -0.01078     -12.11324      -4.32230      -4.04054
     5  C(13)             -0.00827      -9.29962      -3.31834      -3.10202
     6  H(1)              -0.00062      -2.77323      -0.98956      -0.92505
     7  O(17)              0.02482     -15.04550      -5.36861      -5.01864
     8  C(13)             -0.00128      -1.43532      -0.51216      -0.47877
     9  H(1)               0.00170       7.58693       2.70720       2.53073
    10  H(1)              -0.00037      -1.63178      -0.58226      -0.54430
    11  H(1)               0.00996      44.49878      15.87827      14.84319
    12  O(17)              0.02099     -12.72232      -4.53964      -4.24371
    13  H(1)               0.00154       6.86896       2.45102       2.29124
    14  H(1)               0.00152       6.78337       2.42048       2.26269
    15  H(1)              -0.00001      -0.06146      -0.02193      -0.02050
    16  H(1)               0.00263      11.75017       4.19275       3.91944
 --------------------------------------------------------
       Center         ----  Spin Dipole Couplings  ----
                      3XX-RR        3YY-RR        3ZZ-RR
 --------------------------------------------------------
     1   Atom        0.133269     -0.176698      0.043429
     2   Atom       -0.046599      0.055770     -0.009171
     3   Atom       -0.147968      0.260070     -0.112102
     4   Atom        0.047591     -0.014086     -0.033506
     5   Atom        0.021532     -0.013556     -0.007976
     6   Atom       -0.004844     -0.011387      0.016231
     7   Atom        0.114781      0.285836     -0.400617
     8   Atom        0.001839     -0.002416      0.000577
     9   Atom        0.005136      0.001632     -0.006768
    10   Atom        0.001949     -0.004825      0.002876
    11   Atom        0.012992     -0.007478     -0.005514
    12   Atom       -0.014614     -0.026636      0.041250
    13   Atom       -0.014549      0.009668      0.004881
    14   Atom       -0.000775     -0.001645      0.002420
    15   Atom       -0.001455     -0.002667      0.004122
    16   Atom        0.001930     -0.002240      0.000310
 --------------------------------------------------------
                        XY            XZ            YZ
 --------------------------------------------------------
     1   Atom        1.025780      1.143788      0.970945
     2   Atom        0.035722      0.039909      0.098640
     3   Atom       -0.213198     -0.103717      0.247109
     4   Atom        0.044176      0.018623      0.018094
     5   Atom       -0.004461     -0.011209      0.001365
     6   Atom       -0.003355      0.025299      0.011355
     7   Atom       -0.638420     -0.138405      0.178573
     8   Atom        0.002594     -0.006164      0.000122
     9   Atom       -0.004702      0.001032     -0.002561
    10   Atom        0.005263     -0.008849     -0.003402
    11   Atom       -0.001341      0.000524      0.001606
    12   Atom       -0.051036     -0.136459      0.066788
    13   Atom        0.007395      0.001054     -0.008382
    14   Atom       -0.001351     -0.003679      0.002959
    15   Atom        0.000779     -0.003635     -0.001177
    16   Atom       -0.000361     -0.002951      0.000466
 --------------------------------------------------------


 ---------------------------------------------------------------------------------
              Anisotropic Spin Dipole Couplings in Principal Axis System
 ---------------------------------------------------------------------------------

       Atom             a.u.   MegaHertz   Gauss  10(-4) cm-1        Axes

              Baa    -1.0632    76.933    27.452    25.662  0.7824 -0.5026 -0.3677
     1 O(17)  Bbb    -1.0435    75.504    26.942    25.186 -0.1022 -0.6860  0.7204
              Bcc     2.1067  -152.437   -54.393   -50.848  0.6143  0.5261  0.5881
 
              Baa    -0.0855   -45.634   -16.283   -15.222 -0.3987 -0.4550  0.7962
     2 H(1)   Bbb    -0.0562   -29.989   -10.701   -10.003  0.8769 -0.4433  0.1857
              Bcc     0.1417    75.624    26.984    25.225  0.2685  0.7723  0.5758
 
              Baa    -0.2395   -32.142   -11.469   -10.722  0.8272  0.4895 -0.2759
     3 C(13)  Bbb    -0.2342   -31.428   -11.214   -10.483  0.4345 -0.2458  0.8665
              Bcc     0.4737    63.570    22.683    21.205 -0.3563  0.8367  0.4160
 
              Baa    -0.0455    -6.101    -2.177    -2.035  0.1637 -0.6556  0.7371
     4 C(13)  Bbb    -0.0308    -4.137    -1.476    -1.380 -0.4873  0.5960  0.6383
              Bcc     0.0763    10.237     3.653     3.415  0.8578  0.4637  0.2219
 
              Baa    -0.0141    -1.894    -0.676    -0.632  0.1286  0.9916  0.0143
     5 C(13)  Bbb    -0.0117    -1.576    -0.562    -0.526  0.3122 -0.0542  0.9485
              Bcc     0.0259     3.470     1.238     1.157  0.9413 -0.1175 -0.3166
 
              Baa    -0.0273   -14.541    -5.189    -4.851  0.6727  0.5194 -0.5270
     6 H(1)   Bbb    -0.0071    -3.812    -1.360    -1.271 -0.5225  0.8377  0.1586
              Bcc     0.0344    18.353     6.549     6.122  0.5239  0.1687  0.8349
 
              Baa    -0.4554    32.950    11.757    10.991 -0.4930 -0.5807  0.6479
     7 O(17)  Bbb    -0.4287    31.018    11.068    10.347  0.5814  0.3341  0.7418
              Bcc     0.8840   -63.968   -22.825   -21.337 -0.6473  0.7424  0.1729
 
              Baa    -0.0060    -0.804    -0.287    -0.268  0.6350 -0.4810  0.6046
     8 C(13)  Bbb    -0.0018    -0.235    -0.084    -0.078  0.1968  0.8574  0.4755
              Bcc     0.0077     1.040     0.371     0.347  0.7471  0.1830 -0.6391
 
              Baa    -0.0075    -3.999    -1.427    -1.334  0.0270  0.2829  0.9588
     9 H(1)   Bbb    -0.0013    -0.670    -0.239    -0.223  0.6000  0.7625 -0.2419
              Bcc     0.0087     4.668     1.666     1.557  0.7995 -0.5818  0.1492
 
              Baa    -0.0081    -4.310    -1.538    -1.438 -0.6306  0.7218 -0.2853
    10 H(1)   Bbb    -0.0053    -2.802    -1.000    -0.935  0.3929  0.6139  0.6847
              Bcc     0.0133     7.112     2.538     2.372 -0.6693 -0.3197  0.6707
 
              Baa    -0.0085    -4.521    -1.613    -1.508  0.0663  0.8720 -0.4850
    11 H(1)   Bbb    -0.0046    -2.463    -0.879    -0.822  0.0109  0.4854  0.8742
              Bcc     0.0131     6.984     2.492     2.329  0.9977 -0.0633  0.0227
 
              Baa    -0.1261     9.122     3.255     3.043  0.7673 -0.0362  0.6402
    12 O(17)  Bbb    -0.0598     4.324     1.543     1.442  0.2616  0.9292 -0.2610
              Bcc     0.1858   -13.447    -4.798    -4.485 -0.5855  0.3677  0.7225
 
              Baa    -0.0172    -9.161    -3.269    -3.056  0.9372 -0.3089 -0.1622
    13 H(1)   Bbb     0.0003     0.133     0.048     0.045  0.3029  0.4898  0.8175
              Bcc     0.0169     9.027     3.221     3.011  0.1731  0.8153 -0.5526
 
              Baa    -0.0036    -1.895    -0.676    -0.632  0.5363 -0.5767  0.6163
    14 H(1)   Bbb    -0.0026    -1.393    -0.497    -0.465  0.6873  0.7222  0.0778
              Bcc     0.0062     3.288     1.173     1.097 -0.4900  0.3818  0.7837
 
              Baa    -0.0033    -1.771    -0.632    -0.591  0.8553 -0.3738  0.3587
    15 H(1)   Bbb    -0.0028    -1.504    -0.537    -0.502  0.2743  0.9141  0.2987
              Bcc     0.0061     3.275     1.169     1.092 -0.4395 -0.1571  0.8844
 
              Baa    -0.0023    -1.252    -0.447    -0.418 -0.1467  0.9337 -0.3267
    16 H(1)   Bbb    -0.0019    -1.005    -0.359    -0.335  0.5942  0.3472  0.7255
              Bcc     0.0042     2.257     0.805     0.753  0.7909 -0.0877 -0.6057
 

 ---------------------------------------------------------------------------------

 Use density number 0.
 Entering OneElI...
 Calculate overlap and kinetic energy integrals
    NBasis = 187  MinDer = 2  MaxDer = 2
 Requested accuracy = 0.1000D-12
 PrsmSu:  NPrtUS=   1 ThrOK=F
 PRISM was handed   196294603 working-precision words and  2552 shell-pairs
 Entering OneElI...
 Calculate potential energy integrals
    NBasis = 187  MinDer = 2  MaxDer = 2
 Requested accuracy = 0.1000D-12
 PrsmSu:  NPrtUS=   8 ThrOK=T
 PRISM was handed    24492321 working-precision words and  2403 shell-pairs
 PRISM was handed    24492321 working-precision words and  2403 shell-pairs
 PRISM was handed    24492321 working-precision words and  2403 shell-pairs
 PRISM was handed    24492321 working-precision words and  2403 shell-pairs
 PRISM was handed    24492321 working-precision words and  2403 shell-pairs
 PRISM was handed    24492321 working-precision words and  2403 shell-pairs
 PRISM was handed    24492321 working-precision words and  2403 shell-pairs
 PRISM was handed    24492321 working-precision words and  2403 shell-pairs
 Polarizability after L701:
                1             2             3
      1  0.589904D+02
      2  0.108018D+02  0.668970D+02
      3 -0.189860D+01  0.896787D+00  0.658886D+02
 Dipole Derivatives after L701:
               1            2            3            4            5
      1-0.369689D+00 0.114395D+00 0.291005D+00-0.301835D-01-0.212983D+00
      2 0.169516D-01-0.485647D+00 0.283251D-01-0.236161D+00-0.149821D+00
      3 0.251621D+00-0.652036D-01-0.473294D+00-0.418355D-01-0.917843D-01
               6            7            8            9           10
      1-0.214585D+00 0.235109D+00 0.465804D+00 0.555944D-01 0.511001D-01
      2-0.293895D+00 0.209141D+00 0.882913D+00 0.684768D-01-0.588583D-01
      3-0.311721D-01-0.103349D+00 0.921716D-01 0.317215D+00-0.158612D+00
              11           12           13           14           15
      1 0.169100D-01-0.443546D-01 0.488869D+00-0.261477D-01-0.248410D+00
      2-0.679668D-01 0.506995D-03 0.308565D+00 0.228386D+00-0.332183D+00
      3-0.942446D-01 0.115926D+00-0.466512D-01 0.594641D-02 0.341734D+00
              16           17           18           19           20
      1 0.423308D-01-0.747498D-01-0.770246D-01-0.352919D+00-0.273428D+00
      2-0.261108D-01 0.104362D+00 0.536141D-03-0.294077D+00-0.667867D+00
      3 0.146583D-01-0.183891D-01-0.510443D-01 0.181593D+00 0.132519D+00
              21           22           23           24           25
      1 0.731075D-01 0.914506D-01 0.192296D-01 0.450822D-01 0.152565D-01
      2 0.205659D-01 0.507944D-01 0.160956D+00-0.359838D-02 0.313885D-01
      3-0.539297D-01 0.977267D-01-0.222350D-01 0.408529D-01 0.167905D-01
              26           27           28           29           30
      1 0.148981D-01-0.410870D-01-0.237753D-01-0.488881D-01 0.965537D-01
      2-0.284323D-01 0.371741D-01-0.553290D-01-0.845985D-01 0.172611D+00
      3 0.363370D-01-0.975375D-02 0.355565D-01 0.932051D-01-0.973498D-01
              31           32           33           34           35
      1-0.117168D+00 0.260380D-01-0.476995D-01-0.202587D+00-0.235931D-01
      2-0.589580D-01 0.713860D-01 0.314203D-01 0.151323D+00-0.669480D-01
      3-0.735344D-01 0.330824D-01-0.245220D-01-0.316268D-01-0.772170D-01
              36           37           38           39           40
      1 0.179754D+00 0.229806D+00 0.168552D-01-0.688930D-01 0.619961D-01
      2 0.226345D+00-0.349886D-01 0.174019D+00 0.726545D-01-0.591196D-01
      3-0.394620D+00-0.879575D-01-0.517988D-01 0.316436D+00-0.289414D-01
              41           42           43           44           45
      1-0.302344D-01 0.230491D-01 0.881769D-02 0.653124D-01-0.126449D-01
      2-0.935527D-01-0.416417D-01 0.770690D-01-0.475455D-01 0.396556D-01
      3-0.881003D-01 0.218060D-02-0.664616D-01 0.955480D-01-0.181276D-01
              46           47           48
      1-0.128414D+00-0.494190D-01-0.944664D-02
      2-0.216307D-01 0.703573D-01-0.269537D-01
      3 0.410232D-01 0.201634D-01 0.194687D-01
 Hessian after L701:
                1             2             3             4             5
      1  0.439873D+01
      2  0.174017D+00  0.698659D+01
      3  0.304434D+01 -0.215851D+01  0.717303D+01
      4 -0.100334D+01  0.125046D+01  0.845104D+00  0.466833D+01
      5  0.100275D+01 -0.793205D+00  0.936979D+00 -0.696828D+00  0.108168D+01
      6  0.774516D+00  0.101324D+01 -0.133404D+01 -0.778835D+00 -0.242965D+01
      7  0.108286D+00 -0.126065D+00  0.371699D-02 -0.354063D+01 -0.196563D+00
      8  0.105885D+00 -0.304834D+00  0.742084D-01 -0.476486D+00 -0.556916D+00
      9  0.121734D+00 -0.351609D-01 -0.708045D-01 -0.256500D+00  0.158962D+01
     10 -0.148097D+00 -0.512519D-01  0.220422D+00 -0.153851D+00  0.197336D+00
     11 -0.165108D+00  0.694187D+00  0.263024D+00  0.233186D+00  0.146108D+00
     12  0.999826D-01  0.265814D+00 -0.819950D-01  0.193660D+00 -0.977935D-01
     13 -0.202844D+01 -0.161306D+01 -0.433109D+01 -0.210550D+00 -0.896668D-03
     14 -0.147577D+01 -0.796258D+01  0.111871D+01 -0.592591D-01  0.217054D+00
     15 -0.427504D+01  0.120761D+01 -0.531836D+01 -0.404063D-01 -0.835598D-02
     16 -0.948835D-02  0.497047D-01  0.679757D-01  0.575458D-01 -0.222091D-01
     17  0.339787D-01 -0.293306D-02  0.635105D-01 -0.233802D-01 -0.143589D-01
     18  0.631140D-01  0.917566D-01  0.815208D-01 -0.206739D-01 -0.819050D-01
     19 -0.238255D+00  0.274578D+00  0.414049D-01  0.402941D-01 -0.216788D+00
     20  0.305661D+00  0.493413D+00  0.131207D+00 -0.178913D+00  0.942233D-02
     21  0.291248D-01  0.960609D-01 -0.323309D+00  0.312542D-01  0.820193D-01
     22 -0.106412D+00 -0.947459D-01 -0.188561D+00  0.681531D-02 -0.256513D-01
     23 -0.100582D+00 -0.684153D-01  0.226446D+00 -0.177409D-01 -0.105798D-01
     24 -0.179480D+00  0.201490D+00  0.202018D+00 -0.296636D-01  0.272196D-01
     25 -0.561565D-02 -0.949180D-01 -0.384727D-01  0.362433D-01 -0.477853D-01
     26 -0.826663D-01  0.106931D+00  0.690611D-01 -0.456703D-01  0.215977D-01
     27 -0.105312D-01  0.269662D-01 -0.453531D-01 -0.572015D-03 -0.322779D-02
     28 -0.217918D+00  0.117791D+00  0.184929D+00 -0.459019D-01 -0.374203D-01
     29  0.102989D+00  0.280003D+00 -0.240975D+00 -0.468978D-01  0.285772D-02
     30  0.154790D+00 -0.228786D+00  0.186702D+00  0.261470D-01  0.136996D-01
     31  0.305431D-01 -0.135856D+00  0.300032D+00  0.180930D+00  0.247623D-01
     32 -0.129385D+00  0.113404D+00 -0.289314D-01  0.316252D-01 -0.493204D-01
     33  0.337064D+00 -0.680686D-01  0.528570D-01  0.651185D-01  0.586415D-02
     34 -0.312097D+00  0.105011D+00 -0.458366D-01 -0.418910D-01  0.258506D-01
     35  0.993524D-01  0.356170D+00 -0.253970D+00  0.266231D-01 -0.459712D-01
     36 -0.215618D-01 -0.838704D-01 -0.258451D+00 -0.178549D-01 -0.386987D-01
     37 -0.454426D+00  0.166324D+00 -0.621151D-01  0.940095D-02 -0.233925D-02
     38  0.143981D+00  0.122209D+00 -0.230467D+00  0.250878D-02 -0.109896D-02
     39 -0.894629D-01 -0.378681D+00 -0.347770D+00 -0.356672D-02 -0.312343D-02
     40 -0.108102D-01 -0.377353D-03 -0.192178D-02 -0.194845D-02 -0.410921D-03
     41 -0.984823D-02  0.147775D-01  0.305293D-01 -0.163960D-02  0.320449D-02
     42 -0.850219D-02  0.175356D-01  0.125360D-01  0.326272D-04  0.305513D-02
     43 -0.227467D-01  0.710249D-03  0.151703D-02  0.104476D-02 -0.187175D-02
     44  0.182845D-02 -0.251461D-01 -0.941462D-02  0.106602D-02 -0.917410D-02
     45 -0.204234D-01  0.198937D-01  0.620750D-01 -0.164656D-01  0.606357D-02
     46  0.200813D-01 -0.223228D-01 -0.414452D-01 -0.249158D-02 -0.194039D-02
     47 -0.708622D-02 -0.105650D-01  0.858595D-02  0.134927D-02 -0.130369D-02
     48 -0.196667D-01  0.127012D-01  0.934192D-02  0.322290D-02 -0.175915D-02
                6             7             8             9            10
      6  0.367642D+01
      7 -0.900934D-01  0.154802D+02
      8  0.140038D+01 -0.317335D+01  0.159864D+02
      9 -0.277622D+01  0.199765D+01  0.311274D+01  0.146543D+02
     10  0.117023D+00 -0.498122D+00  0.101272D+01 -0.769406D+00  0.157213D+02
     11 -0.792422D-01  0.965452D+00 -0.590129D+01  0.565874D-01 -0.810977D+00
     12  0.217645D+00 -0.974774D+00 -0.174014D-01 -0.573456D+01  0.139686D+01
     13 -0.438497D-01  0.767910D-02  0.724854D-01  0.126108D+00 -0.591623D+01
     14 -0.627390D-02  0.506557D-01  0.166105D+00  0.107279D+00  0.459791D+00
     15  0.214597D+00  0.176973D+00  0.150824D+00  0.181353D+00  0.349189D+00
     16 -0.205296D-01 -0.376513D+01  0.104455D+00  0.149320D+01 -0.160631D+00
     17 -0.905060D-01  0.987937D-01 -0.471146D+01  0.171764D+00 -0.594922D-01
     18 -0.312162D-01  0.146262D+01  0.180820D+00 -0.249846D+01 -0.233475D-01
     19  0.516911D-01 -0.822732D+01  0.229659D+01 -0.215914D+01  0.634384D+00
     20  0.146855D+00  0.232487D+01 -0.472385D+01 -0.505335D+01  0.225832D+00
     21  0.349264D-01 -0.211555D+01 -0.495724D+01 -0.394874D+01 -0.358067D+00
     22 -0.406740D-01  0.192270D+00 -0.172614D-01 -0.175970D+00 -0.526641D+01
     23  0.241425D-01  0.217936D-02 -0.574090D-01  0.165228D-02 -0.113511D+00
     24  0.165824D-01 -0.488495D-01  0.219392D-01 -0.197589D-01 -0.160063D+01
     25 -0.368690D-02  0.381242D-01 -0.203717D-01 -0.138937D+00 -0.444182D+01
     26  0.429802D-02 -0.483317D-01  0.179303D+00  0.206491D-01 -0.909023D+00
     27 -0.216335D-01 -0.646456D-01 -0.257517D-02  0.101042D+00  0.658648D+00
     28  0.208718D-01  0.243552D-01  0.703878D-01 -0.306972D-01  0.249754D+00
     29  0.121972D-01  0.737357D-01  0.506052D-01 -0.426615D-01  0.180854D-01
     30  0.211143D-01 -0.412499D-01 -0.573868D-01 -0.322784D-01 -0.104869D-01
     31  0.505287D-01  0.548780D-01  0.747578D-01  0.682018D-01  0.108512D-01
     32  0.497861D-02  0.459640D-01 -0.469276D-02  0.332939D-01 -0.353058D-01
     33 -0.333265D-01  0.661150D-01  0.418171D-01  0.321275D-02  0.997626D-02
     34 -0.219957D-01  0.123050D+00 -0.660123D-01 -0.128924D+00 -0.285356D+00
     35  0.159003D-02 -0.239889D-01  0.338345D-01 -0.431910D-01  0.986349D-01
     36 -0.172266D-01 -0.201329D+00  0.486133D-01  0.765293D-01 -0.132849D+00
     37 -0.232326D-02 -0.126436D+00 -0.490485D-02 -0.364260D-01 -0.217780D-01
     38 -0.128414D-02 -0.710791D-02 -0.988783D-01  0.825117D-01 -0.219617D-01
     39  0.130153D-01 -0.551854D-01  0.107828D-01  0.535782D-01  0.102891D+00
     40 -0.433325D-03 -0.703701D-02  0.308472D-02 -0.102154D-01  0.547524D-01
     41  0.418537D-02 -0.145888D-01 -0.731234D-02  0.325291D-01 -0.106787D-02
     42  0.191459D-02 -0.116745D-01 -0.102444D-02  0.333826D-02 -0.334517D-02
     43 -0.116011D-01 -0.485339D-02 -0.119189D-01  0.299618D-02  0.111447D+00
     44 -0.359899D-02  0.412854D-02 -0.891748D-02 -0.199433D-01 -0.163342D-01
     45  0.201547D-01 -0.899355D-02  0.832405D-02  0.725253D-02  0.530909D-02
     46 -0.608565D-03  0.140659D+00  0.299337D-01 -0.103672D+00  0.109821D+00
     47 -0.131380D-02  0.242097D-01 -0.407117D-01 -0.143161D-01  0.652365D-02
     48 -0.271175D-02 -0.947253D-01 -0.148315D-01  0.189519D-03  0.378129D-01
               11            12            13            14            15
     11  0.162120D+02
     12 -0.119523D+01  0.151015D+02
     13  0.559462D+00  0.443883D+00  0.148675D+02
     14 -0.189718D+01  0.237871D+01 -0.502344D-01  0.166748D+02
     15  0.224513D+01 -0.455078D+01  0.307785D+01 -0.183070D+01  0.161634D+02
     16 -0.452912D-01 -0.394404D-01  0.773278D-01  0.846317D-01  0.803165D-01
     17  0.115925D+00 -0.836223D-02  0.695986D-01 -0.580678D-02  0.440979D-01
     18  0.415024D-02  0.165655D+00  0.927481D-01  0.595624D-01  0.409722D-02
     19  0.351658D+00 -0.343922D+00  0.770225D-01  0.333109D+00 -0.592003D-01
     20 -0.175841D+00 -0.786063D-02  0.327474D+00  0.168021D+00 -0.694216D-01
     21 -0.109389D+00 -0.504444D-01 -0.488705D-01 -0.567226D-01 -0.216879D+00
     22 -0.121106D+00 -0.159582D+01 -0.681079D-01  0.394657D-01  0.482145D-01
     23 -0.579217D+01  0.231950D+00 -0.273496D-01  0.281801D-01  0.212776D+00
     24  0.261952D+00 -0.134414D+01 -0.322466D-01  0.946778D-01  0.103341D+00
     25 -0.105111D+01  0.842054D+00  0.123617D+00 -0.195497D-01  0.158413D-01
     26 -0.335375D+01 -0.127411D+01 -0.516018D-01 -0.865804D-01 -0.540628D-01
     27 -0.114514D+01 -0.414750D+01  0.209824D-01 -0.995564D-01  0.108602D+00
     28 -0.480783D-01  0.107631D-01 -0.447867D+01  0.537953D+00 -0.562330D+00
     29 -0.257677D+00  0.663153D-01  0.482053D+00 -0.300616D+01 -0.169239D+01
     30  0.348751D-01  0.247148D+00 -0.457516D+00 -0.152507D+01 -0.311090D+01
     31  0.206260D-02  0.308241D-01 -0.232456D+01 -0.186762D+00  0.143742D+01
     32  0.253365D-02 -0.853400D-02 -0.429865D-01 -0.449155D+01 -0.729677D-02
     33  0.257479D-01  0.561902D-01  0.136812D+01 -0.937032D-01 -0.358558D+01
     34  0.161682D+00 -0.218619D+00 -0.878484D-01  0.278407D+00 -0.196007D+00
     35 -0.992370D-01 -0.397462D+00  0.280295D+00  0.178095D+00 -0.316742D+00
     36 -0.411825D+00  0.209694D+00 -0.152310D+00 -0.249844D+00 -0.858637D-01
     37 -0.440364D-02  0.796021D-01  0.131750D-01  0.195084D-01 -0.411975D-01
     38  0.197064D-01  0.626343D-01  0.371705D-02 -0.337326D-01 -0.297834D-02
     39  0.120697D-01 -0.977870D-01 -0.404616D-01 -0.237938D-01  0.243741D-01
     40  0.325088D-01  0.365577D-01 -0.465836D-01 -0.319129D-02  0.301874D-03
     41  0.119945D+00  0.278500D-01 -0.982513D-02  0.695577D-01  0.125225D+00
     42 -0.174650D-01 -0.322283D-02 -0.342417D-02  0.120250D+00  0.751964D-01
     43 -0.333433D-01  0.593607D-01 -0.141922D-01 -0.888942D-03  0.182167D-01
     44  0.128254D+00 -0.304983D-01  0.852918D-03 -0.823400D-02 -0.155818D-01
     45  0.260770D-01 -0.139130D-01 -0.183050D-01 -0.151012D-02 -0.488473D-02
     46 -0.265915D-01 -0.209732D-01  0.888313D-02 -0.786600D-02 -0.301459D-01
     47  0.384958D-01  0.398316D-02  0.122459D-04 -0.993681D-02  0.118610D-01
     48  0.286762D-01  0.265093D-01 -0.161582D-02  0.798712D-02 -0.171342D-02
               16            17            18            19            20
     16  0.363759D+01
     17 -0.129045D+00  0.482019D+01
     18 -0.178716D+01 -0.285513D+00  0.201912D+01
     19  0.348112D-01  0.113244D-02  0.672071D-01  0.108303D+02
     20 -0.326488D-01 -0.884185D-01  0.793776D-01 -0.321645D+01  0.989094D+01
     21  0.142067D+00  0.142830D+00  0.950310D-01 -0.718380D+00  0.435616D+01
     22  0.581525D-01  0.155433D-01  0.155803D-01  0.583616D-01  0.997118D-01
     23  0.180150D-01 -0.371082D-01  0.235717D-02  0.107685D+00 -0.120417D+00
     24 -0.286319D-01 -0.324559D-02 -0.300605D-01 -0.214819D+00 -0.879248D-01
     25  0.437288D-01 -0.907566D-02  0.414326D-01 -0.127704D-01  0.267802D-01
     26 -0.230132D-01 -0.139834D-01 -0.177067D-01 -0.233266D-01 -0.582082D-02
     27  0.342966D-01 -0.414867D-02  0.793989D-02  0.401166D-01  0.263557D-02
     28  0.105737D-01  0.122679D-01  0.838197D-02  0.168853D-02  0.159624D-01
     29  0.201719D-01  0.957473D-02  0.134894D-01  0.239311D-01  0.216290D-01
     30 -0.226720D-02  0.238637D-03 -0.910157D-02 -0.161765D-01 -0.209997D-01
     31  0.293767D-03 -0.162065D-02  0.443788D-02  0.353509D-01  0.426445D-01
     32 -0.424215D-02 -0.204840D-02 -0.166945D-02  0.240748D-01  0.295483D-02
     33 -0.324563D-03 -0.716298D-03  0.413786D-02  0.204279D-01  0.180136D-01
     34 -0.257832D-01 -0.125606D-01  0.711862D-01 -0.332408D+01  0.112403D+00
     35 -0.282118D-01 -0.513237D-01 -0.619890D-01  0.657781D-01 -0.574613D+01
     36  0.986312D-01 -0.284035D-01  0.193081D+00  0.356727D+01  0.668015D+00
     37 -0.264360D-02  0.873631D-03  0.927511D-02  0.776129D-01 -0.713879D-01
     38  0.733249D-02 -0.496466D-02  0.181353D-01 -0.299783D-01  0.301493D+00
     39  0.962529D-02  0.260429D-02  0.233306D-01 -0.197337D+00 -0.132390D+00
     40  0.197887D-01 -0.695845D-02 -0.677064D-02 -0.602982D-03  0.240903D-02
     41 -0.225794D-01 -0.796580D-02 -0.451090D-02 -0.196636D-01 -0.245256D-01
     42 -0.229123D-01  0.449564D-02 -0.110745D-01 -0.456796D-01 -0.366333D-02
     43  0.679627D-02  0.739409D-02 -0.728443D-02 -0.113983D-01  0.290285D-02
     44  0.200877D-01 -0.302096D-02  0.223420D-02  0.189095D-01  0.476801D-02
     45 -0.221258D-01 -0.852315D-02 -0.105163D-01 -0.231547D-01 -0.229675D-01
     46  0.170640D-01  0.255046D-02  0.925621D-02  0.246035D-01  0.127454D-01
     47  0.284213D-02 -0.230407D-02  0.141105D-02  0.875975D-02 -0.764072D-02
     48 -0.272139D-02 -0.122433D-03 -0.348135D-02 -0.103088D-01 -0.368598D-02
               21            22            23            24            25
     21  0.262979D+01
     22 -0.251097D+00  0.144094D+02
     23 -0.116159D+00  0.988124D-01  0.149191D+02
     24  0.657032D-01  0.146885D+01 -0.357699D+00  0.118300D+02
     25 -0.104122D-01  0.420130D-01 -0.388253D-01  0.531285D-01  0.418455D+01
     26  0.117835D-01 -0.287201D-01  0.999918D-01 -0.680606D-01  0.129381D+01
     27 -0.196149D-01  0.372377D-01 -0.419183D-01 -0.320574D-01 -0.645321D+00
     28 -0.785174D-02 -0.460512D-01 -0.923647D-02 -0.853477D-02 -0.304158D-01
     29 -0.165975D-01 -0.165303D-01  0.361046D-01  0.496985D-01 -0.173766D-01
     30 -0.186862D-02 -0.125488D-01  0.108588D-01 -0.292909D-01  0.568648D-02
     31 -0.166220D-02 -0.110376D-01  0.233107D-01  0.430970D-01  0.203061D-01
     32  0.887888D-03  0.125917D-01 -0.131995D-01  0.307182D-01 -0.315795D-01
     33 -0.168059D-01  0.348034D-01  0.393539D-01  0.501342D-01 -0.141449D-01
     34  0.351325D+01 -0.545145D-01  0.326074D-01 -0.112748D+00  0.561698D-02
     35  0.565782D+00  0.340990D-01 -0.907505D-01 -0.744043D-01  0.526675D-01
     36  0.176446D+01 -0.112230D+00 -0.716524D-01  0.137254D+00 -0.151157D+00
     37 -0.136105D+00 -0.513287D-02  0.518896D-03 -0.516696D-02  0.463930D-02
     38  0.125789D-01 -0.556845D-02 -0.101849D-01  0.126096D-01 -0.157911D-01
     39 -0.817936D-01 -0.686841D-02 -0.135378D-02  0.452589D-02 -0.150059D-01
     40 -0.331291D-01 -0.405212D+01  0.359216D+00  0.182045D+00  0.155135D-01
     41  0.312245D-01  0.466004D+00 -0.199009D+01  0.987309D+00  0.498075D-02
     42  0.441074D-01  0.267031D+00  0.114512D+01 -0.361521D+01 -0.289586D-02
     43 -0.467839D-02 -0.371321D+01 -0.788702D+00  0.645175D+00 -0.241066D-01
     44 -0.356977D-01 -0.852669D+00 -0.288229D+01 -0.106887D+01 -0.200003D-01
     45  0.260388D-01  0.810463D+00 -0.124556D+01 -0.325547D+01  0.350396D-01
     46 -0.298881D-01 -0.144401D+01  0.453602D+00 -0.131523D+00  0.382223D-03
     47 -0.752528D-02  0.396025D+00 -0.401078D+01 -0.274081D-01 -0.118568D-01
     48 -0.606578D-03 -0.298408D+00 -0.603227D-01 -0.408362D+01  0.268510D-01
               26            27            28            29            30
     26  0.309990D+01
     27  0.143418D+01  0.403790D+01
     28  0.679384D-02 -0.163219D-02  0.443007D+01
     29  0.126597D+00 -0.409663D-01 -0.795643D+00  0.259701D+01
     30 -0.438757D-01 -0.191426D-01  0.546306D+00  0.168283D+01  0.282984D+01
     31 -0.347492D-01 -0.204781D-01  0.126679D+00  0.115834D+00 -0.166063D+00
     32 -0.813230D-01 -0.448861D-01  0.872079D-01  0.871827D-01  0.171868D+00
     33 -0.382349D-01  0.148954D-01 -0.143510D+00  0.201402D+00 -0.116181D+00
     34 -0.241277D-01 -0.849621D-01 -0.452467D-02  0.196229D-01 -0.171014D-01
     35 -0.137142D+00 -0.344007D-01  0.160664D-01  0.317388D-01 -0.375363D-01
     36  0.157716D-01 -0.387821D-02 -0.903628D-02 -0.225640D-01  0.416941D-02
     37 -0.769190D-02 -0.933477D-02  0.276069D-02  0.193183D-01 -0.202598D-01
     38  0.630079D-02  0.549888D-02  0.182336D-01  0.664880D-02 -0.224994D-01
     39  0.117144D-01  0.312543D-02 -0.225306D-01 -0.318561D-01  0.222634D-01
     40 -0.229949D-02  0.211138D-03 -0.332599D-02  0.201128D-02 -0.413693D-03
     41  0.697947D-02  0.250049D-02  0.286262D-02  0.186211D-01  0.557447D-03
     42 -0.101870D-01 -0.410783D-01  0.169443D-02  0.118883D-01 -0.247106D-02
     43 -0.160010D-01  0.254129D-01 -0.172975D-01  0.133558D-01  0.715825D-02
     44  0.200526D-01 -0.737705D-01  0.504403D-02 -0.454488D-02  0.224152D-01
     45 -0.842798D-01  0.885034D-01  0.136717D-01  0.464979D-01  0.151875D-01
     46 -0.338553D-02  0.205720D-01 -0.177526D-02 -0.146603D-01  0.399509D-02
     47  0.109439D-01  0.188057D-01 -0.192529D-03 -0.195204D-03 -0.119200D-02
     48  0.230548D-01 -0.317540D-01 -0.495503D-03  0.368882D-02 -0.519453D-02
               31            32            33            34            35
     31  0.186506D+01
     32  0.224378D-01  0.443139D+01
     33 -0.174801D+01 -0.148667D+00  0.356363D+01
     34  0.463259D-01  0.436080D-01  0.337925D-03  0.106196D+02
     35  0.833464D-01  0.128016D-01  0.387132D-02 -0.142889D+01  0.696891D+01
     36 -0.288881D-01 -0.197392D-01 -0.278134D-01 -0.298413D+01 -0.197273D+00
     37 -0.255441D-01 -0.199040D-01  0.140156D-01 -0.665431D+01  0.711750D+00
     38 -0.313388D-01 -0.191361D-02  0.523153D-02  0.748575D+00 -0.139186D+01
     39  0.180676D-01  0.102772D-01  0.451962D-02  0.267022D+00  0.875879D+00
     40  0.139103D-02 -0.209868D-04  0.124995D-02 -0.946418D-02 -0.172689D-03
     41  0.599383D-02 -0.144864D-02  0.286476D-02 -0.103272D-01 -0.171018D-01
     42  0.263384D-02 -0.373121D-02 -0.112145D-02 -0.169792D-01 -0.455626D-02
     43  0.331140D-02  0.557802D-04  0.561236D-02 -0.107237D-01 -0.339054D-02
     44 -0.458242D-02 -0.156326D-02 -0.527714D-02  0.774912D-02  0.398540D-02
     45  0.764760D-02  0.222044D-04  0.769844D-02 -0.108143D-01 -0.182230D-01
     46 -0.147726D-01 -0.414124D-02 -0.168531D-01  0.159945D-01  0.160378D-01
     47 -0.241545D-03 -0.320923D-02  0.105006D-01  0.639849D-02 -0.601891D-02
     48  0.220490D-02  0.114089D-01  0.235532D-01 -0.136791D-01 -0.737496D-02
               36            37            38            39            40
     36  0.444979D+01
     37  0.176377D+00  0.718373D+01
     38  0.398132D+00 -0.807345D+00  0.108811D+01
     39 -0.649546D+01  0.367047D-01 -0.352721D+00  0.686555D+01
     40 -0.669711D-02 -0.769763D-03 -0.637396D-04 -0.907560D-03  0.395428D+01
     41  0.200084D-01 -0.398066D-03  0.515677D-02  0.294806D-02 -0.354129D+00
     42  0.258750D-01 -0.112085D-02  0.572255D-02  0.368439D-02 -0.134513D+00
     43  0.188448D-02 -0.757370D-03  0.169147D-02  0.783369D-04  0.812912D-01
     44 -0.196539D-01  0.200734D-04 -0.506918D-02 -0.203497D-02  0.511216D-01
     45  0.199006D-01 -0.887688D-03  0.495477D-02  0.366604D-02  0.182719D-02
     46 -0.261235D-01  0.481105D-03 -0.688413D-02 -0.306253D-02  0.564776D-02
     47 -0.701753D-02  0.611244D-04 -0.191833D-02 -0.321761D-03 -0.827276D-01
     48  0.793619D-02 -0.103741D-02  0.194088D-02  0.118395D-02 -0.271918D-01
               41            42            43            44            45
     41  0.189435D+01
     42 -0.127210D+01  0.335142D+01
     43  0.128388D-01  0.468125D-02  0.366754D+01
     44 -0.100438D+00  0.223999D-01  0.742160D+00  0.282359D+01
     45  0.181285D-01  0.951413D-01 -0.696328D+00  0.123168D+01  0.286921D+01
     46 -0.486125D-01 -0.250266D-01 -0.521391D-01  0.406182D-01 -0.564603D-01
     47  0.162863D-01 -0.177460D-01  0.750071D-01  0.677433D-01  0.194211D-01
     48 -0.925218D-02  0.609680D-01 -0.522018D-01  0.561889D-02  0.699489D-01
               46            47            48
     46  0.117157D+01
     47 -0.419084D+00  0.396112D+01
     48  0.451959D+00  0.227199D-02  0.392945D+01
 ReadGW:  IGet=0 IStart=         114 Next=        7220 LGW=        7106.
 ICntrl=12127.
 Symmetry not used in FoFDir.
 MinBra= 0 MaxBra= 2 Meth= 1.
 IRaf=       0 NMat=   1 IRICut=       1 DoRegI=T DoRafI=F ISym2E= 0 JSym2E=0.
 PrsmSu:  NPrtUS=   8 ThrOK=T
 PRISM was handed    24478655 working-precision words and  2473 shell-pairs
 PRISM was handed    24478655 working-precision words and  2473 shell-pairs
 PRISM was handed    24478655 working-precision words and  2473 shell-pairs
 PRISM was handed    24478655 working-precision words and  2473 shell-pairs
 PRISM was handed    24478655 working-precision words and  2473 shell-pairs
 PRISM was handed    24478655 working-precision words and  2473 shell-pairs
 PRISM was handed    24478655 working-precision words and  2473 shell-pairs
 PRISM was handed    24478655 working-precision words and  2473 shell-pairs
 Pruned (  75, 302) grid will be used in CalDFT.
 CkSvGd:  ISavGI=        -1 IRadAn=       4 IRASav=       4 ISavGd=        -1.
 CalDSu:  NPrtUS=   8 ThrOK=T
 IPart= 0 IRanGd=          0 ScrnBf=T ScrnGd=T RCrit=4.00D+00 DoMicB=T.
 IPart= 2 IRanGd=          0 ScrnBf=T ScrnGd=T RCrit=4.00D+00 DoMicB=T.
 IPart= 1 IRanGd=          0 ScrnBf=T ScrnGd=T RCrit=4.00D+00 DoMicB=T.
 IPart= 4 IRanGd=          0 ScrnBf=T ScrnGd=T RCrit=4.00D+00 DoMicB=T.
 IPart= 3 IRanGd=          0 ScrnBf=T ScrnGd=T RCrit=4.00D+00 DoMicB=T.
 CutRad = 1000.00    CtRdIn =    0.00    XCrit =  15.00   ICut = 0
 IPart= 5 IRanGd=          0 ScrnBf=T ScrnGd=T RCrit=4.00D+00 DoMicB=T.
 CutRad = 1000.00    CtRdIn =    0.00    XCrit =  15.00   ICut = 0
 CutRad = 1000.00    CtRdIn =    0.00    XCrit =  15.00   ICut = 0
 CutRad = 1000.00    CtRdIn =    0.00    XCrit =  15.00   ICut = 0
 IPart= 7 IRanGd=          0 ScrnBf=T ScrnGd=T RCrit=4.00D+00 DoMicB=T.
 IPart= 6 IRanGd=          0 ScrnBf=T ScrnGd=T RCrit=4.00D+00 DoMicB=T.
 CutRad = 1000.00    CtRdIn =    0.00    XCrit =  15.00   ICut = 0
 CutRad = 1000.00    CtRdIn =    0.00    XCrit =  15.00   ICut = 0
 CutRad = 1000.00    CtRdIn =    0.00    XCrit =  15.00   ICut = 0
 CutRad = 1000.00    CtRdIn =    0.00    XCrit =  15.00   ICut = 0
 IPart= 6        14243 of        16078 points in      33 batches and      104 microbatches, Max-NSigAt=      16 Max-NSgAt2=      16
 IPart= 2        14257 of        15886 points in      32 batches and       82 microbatches, Max-NSigAt=      16 Max-NSgAt2=      16
 IPart= 0        14310 of        15822 points in      30 batches and       80 microbatches, Max-NSigAt=      16 Max-NSgAt2=      16
 IPart= 1        13701 of        16024 points in      33 batches and       96 microbatches, Max-NSigAt=      16 Max-NSgAt2=      16
 IPart= 7        13693 of        15548 points in      33 batches and      117 microbatches, Max-NSigAt=      16 Max-NSgAt2=      16
 IPart= 3        14075 of        16278 points in      33 batches and       92 microbatches, Max-NSigAt=      16 Max-NSgAt2=      16
 IPart= 5        13292 of        15656 points in      33 batches and       96 microbatches, Max-NSigAt=      16 Max-NSgAt2=      16
 IPart= 4        14139 of        16644 points in      36 batches and      100 microbatches, Max-NSigAt=      16 Max-NSgAt2=      16
 Polarizability after L703:
                1             2             3
      1  0.589904D+02
      2  0.108018D+02  0.668970D+02
      3 -0.189860D+01  0.896787D+00  0.658886D+02
 Dipole Derivatives after L703:
               1            2            3            4            5
      1-0.369689D+00 0.114395D+00 0.291005D+00-0.301835D-01-0.212983D+00
      2 0.169516D-01-0.485647D+00 0.283251D-01-0.236161D+00-0.149821D+00
      3 0.251621D+00-0.652036D-01-0.473294D+00-0.418355D-01-0.917843D-01
               6            7            8            9           10
      1-0.214585D+00 0.235109D+00 0.465804D+00 0.555944D-01 0.511001D-01
      2-0.293895D+00 0.209141D+00 0.882913D+00 0.684768D-01-0.588583D-01
      3-0.311721D-01-0.103349D+00 0.921716D-01 0.317215D+00-0.158612D+00
              11           12           13           14           15
      1 0.169100D-01-0.443546D-01 0.488869D+00-0.261477D-01-0.248410D+00
      2-0.679668D-01 0.506995D-03 0.308565D+00 0.228386D+00-0.332183D+00
      3-0.942446D-01 0.115926D+00-0.466512D-01 0.594641D-02 0.341734D+00
              16           17           18           19           20
      1 0.423308D-01-0.747498D-01-0.770246D-01-0.352919D+00-0.273428D+00
      2-0.261108D-01 0.104362D+00 0.536141D-03-0.294077D+00-0.667867D+00
      3 0.146583D-01-0.183891D-01-0.510443D-01 0.181593D+00 0.132519D+00
              21           22           23           24           25
      1 0.731075D-01 0.914506D-01 0.192296D-01 0.450822D-01 0.152565D-01
      2 0.205659D-01 0.507944D-01 0.160956D+00-0.359838D-02 0.313885D-01
      3-0.539297D-01 0.977267D-01-0.222350D-01 0.408529D-01 0.167905D-01
              26           27           28           29           30
      1 0.148981D-01-0.410870D-01-0.237753D-01-0.488881D-01 0.965537D-01
      2-0.284323D-01 0.371741D-01-0.553290D-01-0.845985D-01 0.172611D+00
      3 0.363370D-01-0.975375D-02 0.355565D-01 0.932051D-01-0.973498D-01
              31           32           33           34           35
      1-0.117168D+00 0.260380D-01-0.476995D-01-0.202587D+00-0.235931D-01
      2-0.589580D-01 0.713860D-01 0.314203D-01 0.151323D+00-0.669480D-01
      3-0.735344D-01 0.330824D-01-0.245220D-01-0.316268D-01-0.772170D-01
              36           37           38           39           40
      1 0.179754D+00 0.229806D+00 0.168552D-01-0.688930D-01 0.619961D-01
      2 0.226345D+00-0.349886D-01 0.174019D+00 0.726545D-01-0.591196D-01
      3-0.394620D+00-0.879575D-01-0.517988D-01 0.316436D+00-0.289414D-01
              41           42           43           44           45
      1-0.302344D-01 0.230491D-01 0.881769D-02 0.653124D-01-0.126449D-01
      2-0.935527D-01-0.416417D-01 0.770690D-01-0.475455D-01 0.396556D-01
      3-0.881003D-01 0.218060D-02-0.664616D-01 0.955480D-01-0.181276D-01
              46           47           48
      1-0.128414D+00-0.494190D-01-0.944664D-02
      2-0.216307D-01 0.703573D-01-0.269537D-01
      3 0.410232D-01 0.201634D-01 0.194687D-01
 Hessian after L703:
                1             2             3             4             5
      1  0.188526D+00
      2 -0.389038D-01  0.115566D+00
      3 -0.118440D+00  0.567840D-01  0.160679D+00
      4  0.716512D-02  0.164760D-01  0.205304D-01  0.667993D-01
      5  0.490790D-01  0.174062D-01  0.302517D-01 -0.564073D-01  0.345825D-01
      6  0.341933D-01  0.171573D-01  0.299098D-02 -0.486280D-01 -0.433619D-01
      7  0.134781D-01  0.542889D-02  0.553579D-02 -0.304321D-01  0.728183D-02
      8 -0.679571D-01 -0.526338D-01 -0.498423D-01  0.640804D-01  0.476216D-02
      9 -0.329626D-01 -0.359894D-01 -0.281439D-01  0.288390D-01  0.120747D-01
     10 -0.168971D-01  0.184614D-01  0.142721D-01 -0.184328D-01  0.114559D-01
     11  0.155251D-01 -0.772947D-02 -0.169102D-01  0.557353D-02 -0.148702D-01
     12  0.127425D-01 -0.270691D-01 -0.180604D-01  0.579745D-02 -0.945868D-02
     13 -0.137762D+00  0.122772D-01  0.542969D-01 -0.251271D-01 -0.130776D-01
     14  0.174406D-01 -0.755612D-01 -0.917401D-02 -0.289493D-02  0.699811D-02
     15  0.711057D-01 -0.133967D-01 -0.112941D+00 -0.709478D-02 -0.802599D-03
     16 -0.163943D-02 -0.895621D-03 -0.994969D-03  0.296352D-02  0.239638D-02
     17  0.198727D-02 -0.112051D-02 -0.516341D-03 -0.758170D-02  0.627579D-03
     18 -0.585719D-03 -0.120043D-02 -0.152132D-03 -0.348535D-02 -0.394636D-03
     19 -0.830971D-03  0.816636D-03 -0.280981D-02 -0.605138D-03 -0.456874D-02
     20  0.114082D-01  0.106455D-01  0.373859D-02 -0.221260D-01 -0.511834D-01
     21 -0.234105D-02 -0.103648D-02 -0.272082D-02  0.236700D-02  0.129907D-01
     22 -0.514168D-03 -0.100173D-02 -0.123329D-02  0.105079D-02  0.458039D-02
     23  0.699158D-03 -0.592818D-02 -0.465615D-02  0.169740D-02  0.234423D-02
     24 -0.196466D-02 -0.542901D-03 -0.149657D-03  0.563421D-03  0.194973D-02
     25  0.693268D-04 -0.509519D-03  0.761930D-03 -0.560423D-03  0.155975D-02
     26  0.142840D-02  0.277269D-03 -0.138555D-02  0.762405D-03  0.249816D-03
     27  0.561132D-03  0.526103D-03 -0.170139D-02 -0.465179D-03 -0.113226D-02
     28 -0.168771D-01 -0.172069D-01  0.309160D-01 -0.517361D-03 -0.103469D-02
     29  0.109402D-03  0.136739D-01 -0.767526D-02 -0.205339D-03 -0.182909D-03
     30  0.193367D-01  0.813056D-02 -0.172497D-01  0.267101D-03  0.311271D-03
     31 -0.344746D-01  0.221979D-02 -0.469298D-02 -0.184012D-02  0.188632D-02
     32  0.983914D-02  0.134900D-02 -0.213446D-02 -0.444153D-03 -0.200367D-02
     33  0.161683D-01 -0.255016D-02  0.128638D-01  0.308404D-02  0.196713D-02
     34  0.401613D-02 -0.402850D-02  0.452184D-02  0.710290D-03 -0.226427D-02
     35 -0.800057D-02 -0.188707D-01  0.115382D-01  0.298506D-02  0.460755D-02
     36  0.277887D-02  0.787374D-02  0.451580D-02 -0.522591D-03 -0.588242D-02
     37 -0.428249D-02  0.619367D-02 -0.295877D-02 -0.753838D-03 -0.528732D-03
     38  0.701620D-02  0.246098D-02 -0.100141D-01 -0.139541D-02 -0.260370D-02
     39 -0.813389D-03 -0.628391D-02  0.490350D-03 -0.114046D-02  0.200791D-02
     40 -0.423778D-04  0.593185D-03  0.370992D-03 -0.347441D-03 -0.434355D-03
     41  0.406457D-03  0.379687D-03 -0.438829D-03 -0.104181D-03 -0.283772D-03
     42  0.411556D-03 -0.190452D-02 -0.134958D-02  0.260438D-03  0.770189D-03
     43 -0.126688D-03 -0.192957D-03  0.107491D-03 -0.490211D-04 -0.254698D-03
     44 -0.129562D-03  0.162748D-03  0.285551D-03 -0.127557D-03 -0.947131D-04
     45 -0.294448D-03 -0.451079D-03  0.529212D-03 -0.161185D-04  0.126490D-03
     46  0.192548D-03  0.272277D-03 -0.183813D-03 -0.236396D-04  0.330797D-03
     47  0.520197D-04 -0.772249D-04  0.149198D-03 -0.288214D-03 -0.355802D-03
     48  0.103601D-03 -0.470274D-04  0.399872D-03 -0.356348D-03 -0.141733D-02
                6             7             8             9            10
      6  0.154753D-01
      7 -0.216171D-02  0.444016D+00
      8  0.398154D-01  0.976804D-01  0.304446D+00
      9 -0.186291D-01  0.115315D+00 -0.439671D-01  0.545045D+00
     10  0.119374D-01 -0.140465D+00 -0.187032D-02 -0.650764D-02  0.446176D+00
     11 -0.133330D-01  0.114610D-03 -0.534600D-01  0.118236D-01 -0.621069D-01
     12 -0.104051D-02 -0.885717D-02  0.580931D-02 -0.726347D-01  0.403332D-02
     13 -0.759626D-03 -0.363401D-01 -0.318823D-01 -0.128536D-01 -0.627125D-01
     14  0.214893D-02 -0.795643D-02 -0.150530D-01 -0.677511D-02 -0.228775D-01
     15  0.137575D-04 -0.478919D-02  0.111642D-02  0.139523D-02 -0.164280D-01
     16  0.478450D-02 -0.128751D+00 -0.264289D-01 -0.124662D+00 -0.886820D-02
     17 -0.126243D-01 -0.354173D-01 -0.469874D-01 -0.419829D-01  0.241989D-02
     18 -0.454795D-02 -0.121854D+00 -0.260009D-01 -0.228854D+00  0.459468D-02
     19 -0.190510D-02 -0.100614D+00 -0.604067D-01  0.203081D-01 -0.979114D-02
     20  0.519103D-02 -0.846384D-01 -0.146995D+00  0.807740D-01 -0.796912D-02
     21  0.514242D-02  0.345907D-01  0.848330D-01 -0.132120D+00  0.169700D-01
     22  0.302098D-02 -0.114733D-01 -0.451051D-02  0.296746D-01 -0.874201D-01
     23  0.178439D-02  0.878319D-03 -0.456692D-02  0.298484D-02 -0.558502D-03
     24  0.170606D-02  0.906391D-02 -0.696736D-03 -0.432996D-02  0.298726D-01
     25  0.154543D-02 -0.201339D-01  0.209920D-01 -0.179259D-01 -0.938812D-01
     26 -0.257692D-03 -0.262361D-02  0.160148D-02 -0.223468D-02  0.842380D-01
     27 -0.116025D-02 -0.184420D-02 -0.843997D-03  0.174539D-02 -0.581309D-01
     28  0.815334D-03  0.195551D-03  0.167248D-02  0.727533D-03  0.908353D-03
     29  0.583923D-03  0.128256D-02 -0.996162D-03 -0.488102D-03 -0.915077D-03
     30  0.277589D-03  0.290600D-03 -0.262130D-02 -0.993234D-03 -0.155763D-02
     31  0.649026D-03  0.933624D-03  0.204194D-02  0.173204D-03 -0.142710D-02
     32 -0.633796D-03 -0.450673D-02 -0.238873D-02 -0.131227D-02 -0.193009D-01
     33  0.234137D-02  0.119651D-02 -0.403694D-02 -0.125297D-02 -0.908861D-02
     34  0.844554D-03  0.102823D-03  0.370992D-02 -0.460393D-02 -0.385750D-02
     35  0.487830D-02  0.164686D-01 -0.802161D-02  0.219639D-01 -0.200926D-02
     36 -0.228212D-03 -0.212367D-01  0.454294D-02 -0.543806D-01 -0.282603D-02
     37 -0.376638D-02  0.581594D-02  0.266590D-02  0.254318D-02  0.339898D-03
     38 -0.129013D-02  0.633366D-02  0.180156D-01  0.288446D-02  0.248647D-03
     39 -0.181477D-02 -0.220335D-02 -0.749001D-02 -0.342101D-02  0.544257D-03
     40 -0.527115D-03  0.103374D-02  0.149206D-02  0.180008D-03  0.713405D-03
     41 -0.624336D-04 -0.728320D-03  0.174831D-03  0.835265D-04  0.816702D-03
     42  0.752495D-03 -0.780278D-03 -0.156038D-02  0.457338D-03 -0.674045D-02
     43 -0.259931D-03  0.109758D-02 -0.503494D-03  0.590595D-03  0.500214D-02
     44  0.757527D-04  0.733574D-03  0.649702D-03  0.200269D-03 -0.180345D-02
     45 -0.241438D-03 -0.152148D-02 -0.458432D-04  0.792218D-03 -0.143208D-01
     46  0.217280D-03  0.153603D-02 -0.775718D-03  0.116483D-02 -0.938759D-02
     47 -0.717199D-04 -0.331614D-03  0.145274D-02 -0.397773D-04  0.177043D-02
     48 -0.103778D-02 -0.744326D-03  0.988455D-03 -0.467547D-02  0.333756D-01
               11            12            13            14            15
     11  0.506898D+00
     12 -0.589428D-01  0.508287D+00
     13 -0.739096D-02 -0.568458D-02  0.509017D+00
     14 -0.135262D+00 -0.161490D-01  0.376026D-01  0.460364D+00
     15 -0.165407D-01 -0.842363D-01  0.671951D-01 -0.914794D-01  0.512958D+00
     16 -0.351580D-02 -0.194779D-01 -0.270053D-02  0.450428D-03  0.422035D-04
     17  0.192729D-02 -0.113316D-02 -0.402755D-02  0.971259D-03  0.128194D-03
     18 -0.180309D-03  0.530875D-02  0.395642D-03  0.201021D-03 -0.680028D-03
     19 -0.303185D-01  0.217448D-01 -0.849616D-04 -0.288893D-02 -0.267197D-02
     20 -0.798212D-02  0.906555D-02  0.344113D-02  0.183246D-02 -0.422533D-02
     21  0.736415D-02 -0.769304D-02 -0.350195D-02 -0.300924D-03 -0.162102D-02
     22  0.237550D-03  0.293977D-01  0.214256D-03  0.363266D-02 -0.292168D-02
     23 -0.786361D-01 -0.958845D-03  0.984151D-02  0.605915D-03 -0.258668D-01
     24  0.113133D-03 -0.179967D+00  0.381660D-02 -0.608579D-02 -0.163220D-01
     25  0.848147D-01 -0.580977D-01  0.994590D-03 -0.800770D-02  0.346428D-02
     26 -0.189499D+00  0.100214D+00  0.798353D-02 -0.214681D-01  0.154867D-01
     27  0.100814D+00 -0.116415D+00  0.617288D-02 -0.113777D-01  0.904192D-02
     28 -0.573017D-02  0.288314D-02 -0.514897D-01 -0.194091D-01  0.966459D-02
     29 -0.224891D-01  0.158471D-01 -0.208382D-01 -0.181440D+00  0.119222D+00
     30 -0.111683D-01  0.807423D-02  0.989304D-02  0.120032D+00 -0.155498D+00
     31 -0.600119D-03 -0.314378D-02 -0.192875D+00  0.681148D-02 -0.123261D+00
     32  0.742926D-04 -0.163256D-01  0.892075D-02 -0.457935D-01  0.152960D-01
     33  0.226776D-02 -0.593098D-02 -0.123803D+00  0.111506D-01 -0.150839D+00
     34  0.302006D-02  0.487941D-02 -0.888751D-03  0.300066D-02  0.213287D-02
     35  0.252752D-02 -0.696250D-03  0.340814D-02 -0.263567D-02  0.198780D-02
     36 -0.291698D-02  0.595770D-03 -0.901291D-03 -0.185215D-03  0.295634D-02
     37  0.906092D-05  0.865837D-03 -0.118415D-02 -0.369329D-02  0.253703D-02
     38 -0.106772D-02 -0.310680D-03 -0.516863D-02  0.375097D-02 -0.893685D-03
     39  0.687051D-04 -0.126420D-02  0.217672D-02  0.240966D-02 -0.153032D-02
     40  0.103957D-01  0.491654D-02  0.448632D-03 -0.653805D-03  0.181509D-02
     41  0.358320D-03  0.653712D-03 -0.751902D-03  0.879923D-03  0.891208D-03
     42 -0.298141D-01 -0.136018D-01  0.241971D-02  0.305503D-02 -0.386015D-02
     43 -0.900370D-02  0.710750D-02  0.411139D-03  0.246008D-03 -0.878592D-03
     44  0.265645D-03 -0.120987D-03 -0.712719D-03  0.107310D-02 -0.111548D-02
     45  0.224565D-01 -0.198216D-01  0.392403D-03  0.223297D-02  0.627208D-03
     46 -0.102416D-02  0.892850D-03  0.795164D-04 -0.802837D-03  0.884499D-04
     47 -0.105546D-02 -0.424722D-03  0.374940D-03  0.738403D-03  0.192702D-03
     48  0.489878D-02 -0.160020D-02  0.745112D-03  0.296640D-03  0.535866D-03
               16            17            18            19            20
     16  0.131959D+00
     17  0.294999D-01  0.453963D-01
     18  0.129518D+00  0.236619D-01  0.255428D+00
     19  0.480705D-02  0.170639D-01 -0.120631D-01  0.193136D+00
     20  0.302929D-02  0.274351D-02 -0.874267D-03  0.133306D+00  0.261923D+00
     21  0.702958D-02  0.267855D-01 -0.282785D-01  0.502159D-01 -0.841775D-01
     22  0.167220D-02 -0.248806D-03  0.462708D-03 -0.404766D-02 -0.199106D-03
     23 -0.229677D-03  0.101433D-02  0.659597D-04 -0.692329D-03  0.131144D-02
     24 -0.179491D-02 -0.301720D-03  0.109623D-02 -0.186844D-02 -0.363076D-03
     25 -0.286251D-02 -0.431403D-03  0.110752D-02  0.197899D-02 -0.157401D-03
     26 -0.488056D-03 -0.907297D-03 -0.213436D-03  0.320252D-04  0.131397D-02
     27 -0.924309D-04  0.193525D-03 -0.280701D-04  0.781101D-03  0.149976D-03
     28 -0.215539D-04 -0.692788D-05 -0.510644D-04  0.157982D-04 -0.958192D-03
     29 -0.283896D-03 -0.179936D-03  0.124909D-04 -0.804899D-03  0.206033D-03
     30 -0.201907D-03  0.736507D-04  0.171939D-03 -0.158713D-04  0.101270D-02
     31  0.123818D-03  0.315257D-04  0.466497D-04 -0.484658D-03 -0.124523D-02
     32 -0.958526D-03 -0.624646D-03  0.121144D-03  0.450286D-03 -0.348801D-03
     33 -0.636301D-03  0.293074D-03  0.184995D-03  0.485493D-03  0.139368D-02
     34  0.376866D-02 -0.346621D-02  0.178001D-02 -0.695644D-01 -0.739867D-02
     35 -0.202129D-02 -0.151375D-02  0.373856D-02 -0.457328D-01 -0.652285D-01
     36  0.512084D-02  0.467911D-02 -0.120234D-02 -0.614950D-01  0.259354D-01
     37 -0.570693D-03  0.199476D-03  0.427831D-03 -0.135481D-01 -0.264689D-01
     38 -0.656165D-03 -0.817557D-03  0.106513D-02 -0.664034D-02 -0.801394D-02
     39  0.291918D-04  0.997072D-04  0.906423D-03 -0.122981D-01 -0.386352D-01
     40 -0.264721D-03  0.611159D-04 -0.130723D-03  0.492269D-04 -0.352968D-03
     41  0.522389D-03 -0.548919D-04 -0.136122D-03  0.359024D-03  0.150823D-03
     42  0.458647D-03  0.156614D-03  0.281061D-03  0.330646D-03  0.100216D-02
     43 -0.277539D-04 -0.391678D-04 -0.260345D-03  0.923837D-04  0.728728D-04
     44 -0.518975D-03 -0.300490D-03  0.140486D-03 -0.221212D-03 -0.163705D-03
     45  0.683590D-03  0.249849D-03  0.363624D-03 -0.176496D-03 -0.190890D-03
     46  0.412331D-03 -0.439924D-04  0.972813D-04 -0.509148D-03  0.256100D-03
     47  0.985763D-04 -0.173860D-03 -0.667359D-05  0.246071D-03 -0.211847D-03
     48  0.194005D-03  0.237219D-03  0.272930D-05  0.143778D-02  0.203171D-03
               21            22            23            24            25
     21  0.334813D+00
     22  0.109110D-02  0.549234D+00
     23  0.126524D-02  0.155466D-02  0.567281D+00
     24  0.778469D-03  0.304312D-01 -0.183457D-02  0.473097D+00
     25 -0.283515D-02  0.550260D-02 -0.921546D-02  0.664586D-02  0.105263D+00
     26  0.140039D-03 -0.182345D-02  0.300720D-02 -0.171174D-02 -0.874618D-01
     27 -0.111232D-02 -0.130619D-01  0.229153D-01 -0.190504D-01  0.617344D-01
     28  0.244028D-03  0.113150D-02  0.524224D-03  0.634631D-03  0.376923D-03
     29  0.228555D-03 -0.118669D-03  0.131594D-02  0.220902D-02 -0.220353D-02
     30  0.147906D-03 -0.121868D-03 -0.139810D-02  0.139460D-02 -0.438563D-03
     31 -0.246267D-03 -0.233359D-03 -0.937044D-03 -0.100306D-04  0.104407D-02
     32 -0.370988D-03 -0.688924D-03 -0.124770D-02  0.332711D-03 -0.127589D-03
     33  0.308043D-03 -0.953032D-03 -0.114394D-02 -0.211723D-03  0.632315D-03
[...]
    Y6        0.62329   0.00000   0.00000  -0.00026  -0.00016   0.62312
    Z6        1.42466   0.00000   0.00000  -0.00009  -0.00007   1.42459
    X7        4.25032   0.00000   0.00000  -0.00015  -0.00028   4.25004
    Y7        2.11850  -0.00002   0.00000   0.00016   0.00024   2.11874
    Z7       -1.99364   0.00000   0.00000   0.00011   0.00013  -1.99352
    X8       -0.41992   0.00000   0.00000   0.00004   0.00001  -0.41991
    Y8        0.13827   0.00001   0.00000   0.00010   0.00004   0.13831
    Z8        2.72007   0.00000   0.00000  -0.00008  -0.00002   2.72005
    X9       -0.36993   0.00001   0.00000   0.00010  -0.00001  -0.36994
    Y9        1.56747   0.00001   0.00000  -0.00009  -0.00015   1.56732
    Z9       -1.09649   0.00001   0.00000  -0.00010  -0.00004  -1.09654
   X10       -0.32660  -0.00001   0.00000  -0.00028  -0.00020  -0.32680
   Y10       -4.03033   0.00000   0.00000  -0.00006  -0.00012  -4.03045
   Z10        0.06011   0.00000   0.00000   0.00012   0.00018   0.06029
   X11       -1.65315   0.00000   0.00000   0.00015   0.00015  -1.65300
   Y11       -2.44680   0.00001   0.00000  -0.00009  -0.00019  -2.44699
   Z11       -2.59316   0.00000   0.00000  -0.00011  -0.00005  -2.59321
   X12        2.94128   0.00000   0.00000  -0.00034  -0.00048   2.94080
   Y12        1.85732   0.00006   0.00000   0.00038   0.00042   1.85774
   Z12       -4.37509   0.00001   0.00000   0.00021   0.00024  -4.37486
   X13        2.77023   0.00001   0.00000   0.00065   0.00057   2.77080
   Y13        0.00214  -0.00006   0.00000   0.00024   0.00028   0.00241
   Z13       -4.52092   0.00000   0.00000  -0.00043  -0.00040  -4.52132
   X14       -0.03997   0.00001   0.00000   0.00071   0.00062  -0.03934
   Y14        1.98348   0.00000   0.00000  -0.00004  -0.00009   1.98338
   Z14        3.56829   0.00000   0.00000  -0.00007  -0.00002   3.56828
   X15        0.50097   0.00000   0.00000  -0.00043  -0.00041   0.50056
   Y15       -1.30865   0.00000   0.00000  -0.00022  -0.00025  -1.30891
   Z15        3.87619   0.00000   0.00000  -0.00011  -0.00006   3.87612
   X16       -2.45870   0.00000   0.00000  -0.00007  -0.00009  -2.45880
   Y16       -0.18682   0.00001   0.00000   0.00083   0.00071  -0.18611
   Z16        2.82412   0.00000   0.00000  -0.00004   0.00002   2.82414
         Item               Value     Threshold  Converged?
 Maximum Force            0.000063     0.000450     YES
 RMS     Force            0.000014     0.000300     YES
 Maximum Displacement     0.000708     0.001800     YES
 RMS     Displacement     0.000245     0.001200     YES
 Predicted change in Energy=-7.626867D-09
 Optimization completed.
    -- Stationary point found.
 GradGradGradGradGradGradGradGradGradGradGradGradGradGradGradGradGradGrad


 Test job not archived.
 1\1\GINC-NODE23\Freq\UB3LYP\CBSB7\C4H9O3(2)\GOLDMANM\23-Jul-2019\0\\# 
 freq nosymm b3lyp/cbsb7 iop(7/33=1)\\NBO NRT\\0,2\O,1.14318,-1.64042,-
 1.49672\H,1.98518,-0.92367,-0.70064\C,1.79259,0.1872,-0.15246\C,0.2609
 8,0.01874,-0.00734\C,-0.00085,-1.34342,-0.71266\H,2.38268,0.32983,0.75
 39\O,2.24917,1.12106,-1.05499\C,-0.22221,0.07317,1.4394\H,-0.19576,0.8
 2947,-0.58024\H,-0.17283,-2.13276,0.03181\H,-0.87481,-1.29479,-1.37224
 \O,1.55646,0.98285,-2.3152\H,1.46594,0.00113,-2.39237\H,-0.02115,1.049
 61,1.88826\H,0.2651,-0.69251,2.05119\H,-1.30109,-0.09886,1.49446\\Vers
 ion=AM64L-G03RevD.01\HF=-383.4267381\S2=0.757107\S2-1=0.\S2A=0.750027\
 RMSD=3.847e-09\RMSF=1.390e-05\ZeroPoint=0.1280699\Thermal=0.13554\Dipo
 le=-0.5774161,-0.1283639,1.0441702\DipoleDeriv=-0.369689,0.0169516,0.2
 516207,0.1143953,-0.4856472,-0.0652036,0.2910053,0.0283251,-0.473294,-
 0.0301835,-0.2361607,-0.0418355,-0.2129826,-0.1498206,-0.0917843,-0.21
 45854,-0.2938951,-0.0311721,0.2351089,0.2091412,-0.1033486,0.465804,0.
 8829128,0.0921716,0.0555944,0.0684768,0.317215,0.0511001,-0.0588583,-0
 .1586118,0.01691,-0.0679668,-0.0942446,-0.0443546,0.000507,0.1159257,0
 .4888687,0.3085653,-0.0466512,-0.0261477,0.2283855,0.0059464,-0.248410
 4,-0.3321831,0.3417338,0.0423308,-0.0261108,0.0146583,-0.0747498,0.104
 3622,-0.0183891,-0.0770246,0.0005361,-0.0510443,-0.3529188,-0.2940773,
 0.181593,-0.273428,-0.6678673,0.1325188,0.0731075,0.0205659,-0.0539297
 ,0.0914506,0.0507944,0.0977267,0.0192296,0.1609559,-0.022235,0.0450822
 ,-0.0035984,0.0408529,0.0152565,0.0313885,0.0167905,0.0148981,-0.02843
 23,0.036337,-0.041087,0.0371741,-0.0097538,-0.0237753,-0.055329,0.0355
 565,-0.0488881,-0.0845985,0.0932051,0.0965537,0.1726112,-0.0973498,-0.
 1171679,-0.058958,-0.0735344,0.026038,0.071386,0.0330824,-0.0476995,0.
 0314203,-0.024522,-0.2025873,0.1513232,-0.0316268,-0.0235931,-0.066948
 ,-0.077217,0.1797537,0.2263453,-0.3946198,0.2298062,-0.0349886,-0.0879
 575,0.0168552,0.1740193,-0.0517988,-0.068893,0.0726545,0.3164365,0.061
 9961,-0.0591196,-0.0289414,-0.0302344,-0.0935527,-0.0881003,0.0230491,
 -0.0416417,0.0021806,0.0088177,0.077069,-0.0664616,0.0653124,-0.047545
 5,0.095548,-0.0126449,0.0396556,-0.0181276,-0.1284138,-0.0216307,0.041
 0232,-0.049419,0.0703573,0.0201634,-0.0094466,-0.0269537,0.0194687\Pol
 ar=58.9903585,10.8018157,66.896991,-1.8985977,0.8967867,65.8885658\PG=
 C01 [X(C4H9O3)]\NImag=1\\0.18852560,-0.03890378,0.11556567,-0.11843990
 ,0.05678398,0.16067875,0.00716512,0.01647602,0.02053040,0.06679928,0.0
 4907903,0.01740623,0.03025174,-0.05640727,0.03458251,0.03419334,0.0171
 5731,0.00299098,-0.04862801,-0.04336191,0.01547528,0.01347812,0.005428
 89,0.00553579,-0.03043206,0.00728183,-0.00216171,0.44401588,-0.0679570
 7,-0.05263380,-0.04984235,0.06408038,0.00476216,0.03981535,0.09768036,
 0.30444590,-0.03296262,-0.03598936,-0.02814387,0.02883899,0.01207474,-
 0.01862905,0.11531478,-0.04396707,0.54504483,-0.01689705,0.01846139,0.
 01427214,-0.01843282,0.01145587,0.01193743,-0.14046513,-0.00187032,-0.
 00650764,0.44617649,0.01552506,-0.00772947,-0.01691019,0.00557353,-0.0
 1487022,-0.01333304,0.00011461,-0.05346003,0.01182360,-0.06210688,0.50
 689805,0.01274253,-0.02706911,-0.01806044,0.00579745,-0.00945868,-0.00
 104051,-0.00885717,0.00580931,-0.07263465,0.00403332,-0.05894280,0.508
 28664,-0.13776196,0.01227718,0.05429692,-0.02512714,-0.01307762,-0.000
 75963,-0.03634007,-0.03188229,-0.01285363,-0.06271246,-0.00739096,-0.0
 0568458,0.50901655,0.01744062,-0.07556117,-0.00917401,-0.00289493,0.00
 699811,0.00214893,-0.00795643,-0.01505297,-0.00677511,-0.02287749,-0.1
 3526231,-0.01614900,0.03760264,0.46036385,0.07110574,-0.01339672,-0.11
 294123,-0.00709478,-0.00080260,0.00001376,-0.00478919,0.00111642,0.001
 39523,-0.01642796,-0.01654066,-0.08423628,0.06719515,-0.09147945,0.512
 95813,-0.00163943,-0.00089562,-0.00099497,0.00296352,0.00239638,0.0047
 8450,-0.12875128,-0.02642892,-0.12466209,-0.00886820,-0.00351580,-0.01
 947785,-0.00270053,0.00045043,0.00004220,0.13195910,0.00198727,-0.0011
 2051,-0.00051634,-0.00758170,0.00062758,-0.01262426,-0.03541729,-0.046
 98735,-0.04198293,0.00241989,0.00192729,-0.00113316,-0.00402755,0.0009
 7126,0.00012819,0.02949985,0.04539631,-0.00058572,-0.00120043,-0.00015
 213,-0.00348535,-0.00039464,-0.00454795,-0.12185396,-0.02600088,-0.228
 85440,0.00459468,-0.00018031,0.00530875,0.00039564,0.00020102,-0.00068
 003,0.12951790,0.02366195,0.25542763,-0.00083097,0.00081664,-0.0028098
 1,-0.00060514,-0.00456874,-0.00190510,-0.10061355,-0.06040669,0.020308
 10,-0.00979114,-0.03031846,0.02174480,-0.00008496,-0.00288893,-0.00267
 197,0.00480705,0.01706393,-0.01206306,0.19313628,0.01140823,0.01064555
 ,0.00373859,-0.02212604,-0.05118341,0.00519103,-0.08463842,-0.14699489
 ,0.08077401,-0.00796912,-0.00798212,0.00906555,0.00344113,0.00183246,-
 0.00422533,0.00302929,0.00274351,-0.00087427,0.13330645,0.26192346,-0.
 00234105,-0.00103648,-0.00272082,0.00236700,0.01299066,0.00514242,0.03
 459074,0.08483303,-0.13211975,0.01696999,0.00736415,-0.00769304,-0.003
 50195,-0.00030092,-0.00162102,0.00702958,0.02678552,-0.02827846,0.0502
 1592,-0.08417751,0.33481312,-0.00051417,-0.00100173,-0.00123329,0.0010
 5079,0.00458039,0.00302098,-0.01147334,-0.00451051,0.02967461,-0.08742
 009,0.00023755,0.02939772,0.00021426,0.00363266,-0.00292168,0.00167220
 ,-0.00024881,0.00046271,-0.00404766,-0.00019911,0.00109110,0.54923396,
 0.00069916,-0.00592818,-0.00465615,0.00169740,0.00234423,0.00178439,0.
 00087832,-0.00456692,0.00298484,-0.00055850,-0.07863614,-0.00095884,0.
 00984151,0.00060591,-0.02586682,-0.00022968,0.00101433,0.00006596,-0.0
 0069233,0.00131144,0.00126524,0.00155466,0.56728051,-0.00196466,-0.000
 54290,-0.00014966,0.00056342,0.00194973,0.00170606,0.00906391,-0.00069
 674,-0.00432996,0.02987258,0.00011313,-0.17996696,0.00381660,-0.006085
 79,-0.01632196,-0.00179491,-0.00030172,0.00109623,-0.00186844,-0.00036
 308,0.00077847,0.03043115,-0.00183457,0.47309667,0.00006933,-0.0005095
 2,0.00076193,-0.00056042,0.00155975,0.00154543,-0.02013386,0.02099198,
 -0.01792593,-0.09388121,0.08481469,-0.05809771,0.00099459,-0.00800770,
 0.00346428,-0.00286251,-0.00043140,0.00110752,0.00197899,-0.00015740,-
 0.00283515,0.00550260,-0.00921546,0.00664586,0.10526257,0.00142840,0.0
 0027727,-0.00138555,0.00076241,0.00024982,-0.00025769,-0.00262361,0.00
 160148,-0.00223468,0.08423801,-0.18949852,0.10021423,0.00798353,-0.021
 46812,0.01548668,-0.00048806,-0.00090730,-0.00021344,0.00003203,0.0013
 1397,0.00014004,-0.00182345,0.00300720,-0.00171174,-0.08746179,0.20608
 017,0.00056113,0.00052610,-0.00170139,-0.00046518,-0.00113226,-0.00116
 025,-0.00184420,-0.00084400,0.00174539,-0.05813089,0.10081383,-0.11641
 473,0.00617288,-0.01137769,0.00904192,-0.00009243,0.00019352,-0.000028
 07,0.00078110,0.00014998,-0.00111232,-0.01306186,0.02291525,-0.0190503
 9,0.06173436,-0.10776652,0.13185253,-0.01687713,-0.01720693,0.03091604
 ,-0.00051736,-0.00103469,0.00081533,0.00019555,0.00167248,0.00072753,0
 .00090835,-0.00573017,0.00288314,-0.05148970,-0.01940908,0.00966459,-0
 .00002155,-0.00000693,-0.00005106,0.00001580,-0.00095819,0.00024403,0.
 00113150,0.00052422,0.00063463,0.00037692,-0.00042815,-0.00029527,0.06
 194522,0.00010940,0.01367395,-0.00767526,-0.00020534,-0.00018291,0.000
 58392,0.00128256,-0.00099616,-0.00048810,-0.00091508,-0.02248913,0.015
 84705,-0.02083817,-0.18144026,0.11922176,-0.00028390,-0.00017994,0.000
 01249,-0.00080490,0.00020603,0.00022856,-0.00011867,0.00131594,0.00220
 902,-0.00220353,-0.00357932,-0.00228167,0.02358814,0.19332293,0.019336
 74,0.00813056,-0.01724968,0.00026710,0.00031127,0.00027759,0.00029060,
 -0.00262130,-0.00099323,-0.00155763,-0.01116833,0.00807423,0.00989304,
 0.12003231,-0.15549801,-0.00020191,0.00007365,0.00017194,-0.00001587,0
 .00101270,0.00014791,-0.00012187,-0.00139810,0.00139460,-0.00043856,-0
 .00254269,-0.00049352,-0.02735550,-0.12713802,0.17588507,-0.03447458,0
 .00221979,-0.00469298,-0.00184012,0.00188632,0.00064903,0.00093362,0.0
 0204194,0.00017320,-0.00142710,-0.00060012,-0.00314378,-0.19287496,0.0
 0681148,-0.12326123,0.00012382,0.00003153,0.00004665,-0.00048466,-0.00
 124523,-0.00024627,-0.00023336,-0.00093704,-0.00001003,0.00104407,-0.0
 0005380,0.00037855,0.00473552,-0.00004771,0.00045997,0.22468684,0.0098
 3914,0.00134900,-0.00213446,-0.00044415,-0.00200367,-0.00063380,-0.004
 50673,-0.00238873,-0.00131227,-0.01930085,0.00007429,-0.01632561,0.008
 92075,-0.04579351,0.01529597,-0.00095853,-0.00062465,0.00012114,0.0004
 5029,-0.00034880,-0.00037099,-0.00068892,-0.00124770,0.00033271,-0.000
 12759,0.00144571,-0.00009544,0.01748369,-0.00029018,0.01601129,-0.0107
 9620,0.04957879,0.01616827,-0.00255016,0.01286383,0.00308404,0.0019671
 3,0.00234137,0.00119651,-0.00403694,-0.00125297,-0.00908861,0.00226776
 ,-0.00593098,-0.12380310,0.01115061,-0.15083945,-0.00063630,0.00029307
 ,0.00018499,0.00048549,0.00139368,0.00030804,-0.00095303,-0.00114394,-
 0.00021172,0.00063232,0.00003397,0.00085456,-0.01737953,0.00127247,-0.
 01264076,0.12959424,-0.01002971,0.15512687,0.00401613,-0.00402850,0.00
 452184,0.00071029,-0.00226427,0.00084455,0.00010282,0.00370992,-0.0046
 0393,-0.00385750,0.00302006,0.00487941,-0.00088875,0.00300066,0.002132
 87,0.00376866,-0.00346621,0.00178001,-0.06956440,-0.00739867,-0.091563
 57,0.00074655,-0.00199264,0.00043420,0.00176950,-0.00217257,0.00176756
 ,0.00019828,-0.00005946,-0.00026774,0.00062775,-0.00002155,-0.00079786
 ,0.07854307,-0.00800057,-0.01887073,0.01153817,0.00298506,0.00460755,0
 .00487830,0.01646862,-0.00802161,0.02196386,-0.00200926,0.00252752,-0.
 00069625,0.00340814,-0.00263567,0.00198780,-0.00202129,-0.00151375,0.0
 0373856,-0.04573282,-0.06522853,-0.04975371,-0.00011551,-0.00091029,-0
 .00036649,-0.00009566,-0.00006273,0.00087643,-0.00134102,0.00032780,0.
 00062662,0.00045395,-0.00009842,-0.00117083,0.04202602,0.49902974,0.00
 277887,0.00787374,0.00451580,-0.00052259,-0.00588242,-0.00022821,-0.02
 123667,0.00454294,-0.05438064,-0.00282603,-0.00291698,0.00059577,-0.00
 090129,-0.00018522,0.00295634,0.00512084,0.00467911,-0.00120234,-0.061
 49498,0.02593544,-0.14437525,-0.00118196,0.00026345,-0.00012229,0.0012
 7158,0.00090101,-0.00052390,-0.00025338,0.00004744,-0.00033585,0.00054
 990,-0.00037300,-0.00061696,0.09758562,-0.00560360,0.23790837,-0.00428
 249,0.00619367,-0.00295877,-0.00075384,-0.00052873,-0.00376638,0.00581
 594,0.00266590,0.00254318,0.00033990,0.00000906,0.00086584,-0.00118415
 ,-0.00369329,0.00253703,-0.00057069,0.00019948,0.00042783,-0.01354809,
 -0.02646893,-0.01228505,-0.00017984,0.00042230,0.00002610,-0.00052922,
 0.00085360,0.00033894,-0.00032438,0.00027101,0.00000967,-0.00089886,-0
 .00027047,0.00070668,-0.01584603,-0.00612767,-0.01908315,0.03190644,0.
 00701620,0.00246098,-0.01001409,-0.00139541,-0.00260370,-0.00129013,0.
 00633366,0.01801565,0.00288446,0.00024865,-0.00106772,-0.00031068,-0.0
 0516863,0.00375097,-0.00089368,-0.00065617,-0.00081756,0.00106513,-0.0
 0664034,-0.00801394,0.00246057,0.00075699,-0.00019938,0.00021537,0.001
 19392,-0.00036619,-0.00085885,0.00243349,-0.00050145,-0.00161980,0.000
 04520,0.00042272,0.00109130,-0.03049716,-0.40929715,-0.02932667,0.0265
 4866,0.39826056,-0.00081339,-0.00628391,0.00049035,-0.00114046,0.00200
 791,-0.00181477,-0.00220335,-0.00749001,-0.00342101,0.00054426,0.00006
 871,-0.00126420,0.00217672,0.00240966,-0.00153032,0.00002919,0.0000997
 1,0.00090642,-0.01229814,-0.03863523,-0.02261634,-0.00015694,-0.000354
 60,-0.00023637,0.00058074,-0.00025543,-0.00020269,-0.00017539,-0.00024
 647,0.00042524,-0.00007629,0.00012017,-0.00012474,-0.01740384,0.011859
 07,-0.04420351,0.03097457,0.03662218,0.07322005,-0.00004238,0.00059318
 ,0.00037099,-0.00034744,-0.00043435,-0.00052712,0.00103374,0.00149206,
 0.00018001,0.00071340,0.01039567,0.00491654,0.00044863,-0.00065381,0.0
 0181509,-0.00026472,0.00006112,-0.00013072,0.00004923,-0.00035297,0.00
 005500,-0.05550529,-0.04420294,-0.02079498,0.00032433,-0.00027957,-0.0
 0066634,-0.00019169,-0.00000060,-0.00000039,0.00002470,0.00029317,0.00
 046084,-0.00000478,0.00010440,-0.00004348,-0.00002045,-0.00008032,0.00
 004462,0.05665046,0.00040646,0.00037969,-0.00043883,-0.00010418,-0.000
 28377,-0.00006243,-0.00072832,0.00017483,0.00008353,0.00081670,0.00035
 832,0.00065371,-0.00075190,0.00087992,0.00089121,0.00052239,-0.0000548
 9,-0.00013612,0.00035902,0.00015082,-0.00016860,-0.04406521,-0.2577174
 6,-0.09292632,0.00020030,0.00072833,-0.00048753,0.00020808,0.00068673,
 -0.00016749,0.00004037,-0.00014745,-0.00039858,0.00010762,0.00009827,0
 .00002899,-0.00006560,-0.00011592,0.00008421,0.04879689,0.27804564,0.0
 0041156,-0.00190452,-0.00134958,0.00026044,0.00077019,0.00075249,-0.00
 078028,-0.00156038,0.00045734,-0.00674045,-0.02981410,-0.01360176,0.00
 241971,0.00305503,-0.00386015,0.00045865,0.00015661,0.00028106,0.00033
 065,0.00100216,-0.00015775,-0.02012279,-0.09206491,-0.08777749,-0.0006
 6490,0.00042957,0.00107360,0.00017355,-0.00005201,0.00018666,-0.000270
 71,-0.00041266,-0.00030692,-0.00011595,-0.00008599,0.00000709,-0.00004
 977,-0.00007170,0.00004366,0.02033551,0.10291335,0.09656410,-0.0001266
 9,-0.00019296,0.00010749,-0.00004902,-0.00025470,-0.00025993,0.0010975
 8,-0.00050349,0.00059060,0.00500214,-0.00900370,0.00710750,0.00041114,
 0.00024601,-0.00087859,-0.00002775,-0.00003917,-0.00026035,0.00009238,
 0.00007287,-0.00012569,-0.10051905,0.08240758,-0.06424286,0.00005897,0
 .00018135,0.00253902,-0.00007357,-0.00030550,-0.00022950,0.00000703,-0
 .00011580,0.00008488,-0.00027907,-0.00001305,0.00010664,0.00003938,-0.
 00006379,0.00000239,0.00238521,-0.00492304,0.00466738,0.10580661,-0.00
 012956,0.00016275,0.00028555,-0.00012756,-0.00009471,0.00007575,0.0007
 3357,0.00064970,0.00020027,-0.00180345,0.00026564,-0.00012099,-0.00071
 272,0.00107310,-0.00111548,-0.00051897,-0.00030049,0.00014049,-0.00022
 121,-0.00016370,-0.00000573,0.08245463,-0.17511280,0.09829285,-0.00023
 045,0.00114089,-0.00069321,0.00008137,0.00030128,0.00028624,0.00010745
 ,0.00002874,-0.00009286,-0.00005697,0.00001925,-0.00008507,0.00002268,
 0.00001323,-0.00002928,0.01368823,-0.01906289,0.01597117,-0.09092074,0
 .18736009,-0.00029445,-0.00045108,0.00052921,-0.00001612,0.00012649,-0
 .00024144,-0.00152148,-0.00004584,0.00079222,-0.01432077,0.02245647,-0
 .01982165,0.00039240,0.00223297,0.00062721,0.00068359,0.00024985,0.000
 36362,-0.00017650,-0.00019089,-0.00001872,-0.06342749,0.09751848,-0.12
 340219,0.00272184,-0.00121629,-0.00522527,-0.00025157,-0.00123284,0.00
 037331,-0.00000218,-0.00008555,0.00042185,0.00078203,0.00011331,-0.000
 18006,-0.00023095,0.00020649,0.00015648,0.00713384,-0.00880475,0.00764
 664,0.06827100,-0.10921240,0.13765375,0.00019255,0.00027228,-0.0001838
 1,-0.00002364,0.00033080,0.00021728,0.00153603,-0.00077572,0.00116483,
 -0.00938759,-0.00102416,0.00089285,0.00007952,-0.00080284,0.00008845,0
 .00041233,-0.00004399,0.00009728,-0.00050915,0.00025610,0.00033537,-0.
 29965905,-0.04019657,0.00918743,0.00058535,-0.00014834,0.00028263,-0.0
 0001176,0.00053173,-0.00006815,0.00005027,0.00024375,0.00024515,-0.000
 04253,0.00001067,0.00013008,0.00003639,-0.00007495,-0.00008468,-0.0052
 5297,-0.00081957,-0.00031259,-0.01382529,-0.00236630,0.00025680,0.3258
 1956,0.00005202,-0.00007722,0.00014920,-0.00028821,-0.00035580,-0.0000
 7172,-0.00033161,0.00145274,-0.00003978,0.00177043,-0.00105546,-0.0004
 2472,0.00037494,0.00073840,0.00019270,0.00009858,-0.00017386,-0.000006
 67,0.00024607,-0.00021185,-0.00025383,-0.04044497,-0.05256069,0.001716
 53,-0.00032015,0.00003735,0.00006205,0.00012370,-0.00017533,0.00017109
 ,0.00004208,0.00004386,-0.00004699,0.00009373,0.00002873,0.00010086,-0
 .00003166,0.00005890,0.00002331,-0.02942016,-0.00412017,0.00166819,0.0
 2342813,0.00371991,-0.00166441,0.04460711,0.05265049,0.00010360,-0.000
 04703,0.00039987,-0.00035635,-0.00141733,-0.00103778,-0.00074433,0.000
 98845,-0.00467547,0.03337559,0.00489878,-0.00160020,0.00074511,0.00029
 664,0.00053587,0.00019400,0.00023722,0.00000273,0.00143778,0.00020317,
 -0.00047649,0.00910263,0.00148032,-0.04650305,-0.00050362,0.00037854,0
 .00134453,-0.00029714,-0.00030835,0.00027451,-0.00014806,-0.00010781,-
 0.00017703,0.00002481,0.00009474,0.00018564,-0.00005575,-0.00015990,0.
 00017176,-0.01314941,-0.00106435,0.00004102,-0.01747996,-0.00389730,0.
 00032502,-0.01224891,-0.00157581,0.05118908\\0.00001486,0.00000394,0.0
 0000269,0.00000257,0.00000056,0.00000430,-0.00000086,0.00000557,0.0000
 1048,-0.00000432,-0.00000982,0.00000837,0.00000119,0.00000882,-0.00000
 148,-0.00000318,0.00000463,0.00000046,0.00000372,0.00001605,0.00000200
 ,-0.00000214,-0.00000577,-0.00000364,-0.00000704,-0.00000556,-0.000006
 63,0.00001079,-0.00000205,-0.00000353,0.00000320,-0.00000774,-0.000001
 89,-0.00000459,-0.00006290,-0.00001313,-0.00000511,0.00006004,0.000004
 71,-0.00000685,0.00000086,0.00000004,-0.00000043,-0.00000021,0.0000004
 1,-0.00000182,-0.00000644,-0.00000316\\\@


 IT'S WHAT YOU LEARN AFTER YOU KNOW IT ALL
 THAT COUNTS.
 Job cpu time:  0 days  1 hours 10 minutes 15.7 seconds.
 File lengths (MBytes):  RWF=    125 Int=      0 D2E=      0 Chk=      8 Scr=      1
 Normal termination of Gaussian 03 at Tue Jul 23 11:25:12 2019.
