 Entering Gaussian System, Link 0=g03
 Input=TS01freq.gjf
 Output=TS01freq.log
 Initial command:
 /opt/g03/l1.exe /scratch/nyee/Gau-19449.inp -scrdir=/scratch/nyee/
 Entering Link 1 = /opt/g03/l1.exe PID=     19451.
  
 Copyright (c) 1988,1990,1992,1993,1995,1998,2003,2004, Gaussian, Inc.
                  All Rights Reserved.
  
 This is the Gaussian(R) 03 program.  It is based on the
 the Gaussian(R) 98 system (copyright 1998, Gaussian, Inc.),
 the Gaussian(R) 94 system (copyright 1995, Gaussian, Inc.),
 the Gaussian 92(TM) system (copyright 1992, Gaussian, Inc.),
 the Gaussian 90(TM) system (copyright 1990, Gaussian, Inc.),
 the Gaussian 88(TM) system (copyright 1988, Gaussian, Inc.),
 the Gaussian 86(TM) system (copyright 1986, Carnegie Mellon
 University), and the Gaussian 82(TM) system (copyright 1983,
 Carnegie Mellon University). Gaussian is a federally registered
 trademark of Gaussian, Inc.
  
 This software contains proprietary and confidential information,
 including trade secrets, belonging to Gaussian, Inc.
  
 This software is provided under written license and may be
 used, copied, transmitted, or stored only in accord with that
 written license.
  
 The following legend is applicable only to US Government
 contracts under FAR:
  
                    RESTRICTED RIGHTS LEGEND
  
 Use, reproduction and disclosure by the US Government is
 subject to restrictions as set forth in subparagraphs (a)
 and (c) of the Commercial Computer Software - Restricted
 Rights clause in FAR 52.227-19.
  
 Gaussian, Inc.
 340 Quinnipiac St., Bldg. 40, Wallingford CT 06492
  
  
 ---------------------------------------------------------------
 Warning -- This program may not be used in any manner that
 competes with the business of Gaussian, Inc. or will provide
 assistance to any competitor of Gaussian, Inc.  The licensee
 of this program is prohibited from giving any competitor of
 Gaussian, Inc. access to this program.  By using this program,
 the user acknowledges that Gaussian, Inc. is engaged in the
 business of creating and licensing software in the field of
 computational chemistry and represents and warrants to the
 licensee that it is not a competitor of Gaussian, Inc. and that
 it will not use this program in any manner prohibited above.
 ---------------------------------------------------------------
  

 Cite this work as:
 Gaussian 03, Revision D.01,
 M. J. Frisch, G. W. Trucks, H. B. Schlegel, G. E. Scuseria, 
 M. A. Robb, J. R. Cheeseman, J. A. Montgomery, Jr., T. Vreven, 
 K. N. Kudin, J. C. Burant, J. M. Millam, S. S. Iyengar, J. Tomasi, 
 V. Barone, B. Mennucci, M. Cossi, G. Scalmani, N. Rega, 
 G. A. Petersson, H. Nakatsuji, M. Hada, M. Ehara, K. Toyota, 
 R. Fukuda, J. Hasegawa, M. Ishida, T. Nakajima, Y. Honda, O. Kitao, 
 H. Nakai, M. Klene, X. Li, J. E. Knox, H. P. Hratchian, J. B. Cross, 
 V. Bakken, C. Adamo, J. Jaramillo, R. Gomperts, R. E. Stratmann, 
 O. Yazyev, A. J. Austin, R. Cammi, C. Pomelli, J. W. Ochterski, 
 P. Y. Ayala, K. Morokuma, G. A. Voth, P. Salvador, J. J. Dannenberg, 
 V. G. Zakrzewski, S. Dapprich, A. D. Daniels, M. C. Strain, 
 O. Farkas, D. K. Malick, A. D. Rabuck, K. Raghavachari, 
 J. B. Foresman, J. V. Ortiz, Q. Cui, A. G. Baboul, S. Clifford, 
 J. Cioslowski, B. B. Stefanov, G. Liu, A. Liashenko, P. Piskorz, 
 I. Komaromi, R. L. Martin, D. J. Fox, T. Keith, M. A. Al-Laham, 
 C. Y. Peng, A. Nanayakkara, M. Challacombe, P. M. W. Gill, 
 B. Johnson, W. Chen, M. W. Wong, C. Gonzalez, and J. A. Pople, 
 Gaussian, Inc., Wallingford CT, 2004.
 
 ******************************************
 Gaussian 03:  AM64L-G03RevD.01 13-Oct-2005
                15-Jul-2014 
 ******************************************
 %chk=TS01.chk
 %mem=1000mb
 %nproc=8
 Will use up to    8 processors via shared memory.
 -------------------------------------
 # freq nosymm b3lyp/cbsb7 iop(7/33=1)
 -------------------------------------
 1/10=4,30=1,38=1/1,3;
 2/15=1,17=6,18=5,40=1/2;
 3/5=4,6=6,7=700,11=2,16=1,25=1,30=1,74=-5/1,2,3;
 4//1;
 5/5=2,38=5/2;
 8/6=4,10=90,11=11/1;
 11/6=1,8=1,9=11,15=111,16=1,31=1/1,2,10;
 10/6=1,31=1/2;
 6/7=2,8=2,9=2,10=2,18=1,28=1/1;
 7/8=1,10=1,25=1,30=1,33=1/1,2,3,16;
 1/10=4,30=1/3;
 99//99;
 -------------------
 Title Card Required
 -------------------
 Symbolic Z-matrix:
 Charge =  0 Multiplicity = 2
 C                    -0.78056  -2.06184   0.59025 
 C                    -2.08399  -1.37147   0.41376 
 H                    -1.99763  -0.311     0.64051 
 H                    -2.47373  -1.50721  -0.60118 
 H                    -2.82718  -1.80936   1.09553 
 C                    -0.63203  -3.49687   0.22944 
 H                    -0.99717  -3.69339  -0.7843 
 H                     0.40364  -3.83081   0.29834 
 H                    -1.23949  -4.11628   0.90536 
 C                     0.40463  -1.29719   1.05937 
 H                     1.18317  -1.91514   1.53007 
 O                     0.72301  -0.97982  -0.25203 
 O                     0.10119  -0.18243   1.84263 
 H                     0.81552   0.43956   1.63544 
 O                     2.09747   0.08654  -0.09645 
 H                     1.81682   0.63814  -0.83957 
 

 GradGradGradGradGradGradGradGradGradGradGradGradGradGradGradGradGradGrad
 Berny optimization.
 Initialization pass.
 Trust Radius=3.00D-01 FncErr=1.00D-07 GrdErr=1.00D-07
 Number of steps in this run=   2 maximum allowed number of steps=   2.
 GradGradGradGradGradGradGradGradGradGradGradGradGradGradGradGradGradGrad

                          Input orientation:                          
 ---------------------------------------------------------------------
 Center     Atomic     Atomic              Coordinates (Angstroms)
 Number     Number      Type              X           Y           Z
 ---------------------------------------------------------------------
    1          6             0       -0.780559   -2.061838    0.590249
    2          6             0       -2.083993   -1.371468    0.413755
    3          1             0       -1.997632   -0.311002    0.640508
    4          1             0       -2.473728   -1.507205   -0.601176
    5          1             0       -2.827177   -1.809356    1.095534
    6          6             0       -0.632028   -3.496869    0.229437
    7          1             0       -0.997170   -3.693394   -0.784298
    8          1             0        0.403640   -3.830807    0.298341
    9          1             0       -1.239488   -4.116282    0.905364
   10          6             0        0.404633   -1.297188    1.059375
   11          1             0        1.183172   -1.915136    1.530068
   12          8             0        0.723009   -0.979819   -0.252026
   13          8             0        0.101188   -0.182429    1.842631
   14          1             0        0.815522    0.439556    1.635435
   15          8             0        2.097474    0.086539   -0.096451
   16          1             0        1.816816    0.638138   -0.839572
 ---------------------------------------------------------------------
                    Distance matrix (angstroms):
                    1          2          3          4          5
     1  C    0.000000
     2  C    1.485497   0.000000
     3  H    2.132890   1.087871   0.000000
     4  H    2.143346   1.095629   1.788672   0.000000
     5  H    2.123136   1.099496   1.772077   1.759274   0.000000
     6  C    1.487132   2.580602   3.490502   2.835585   2.901121
     7  H    2.144359   2.829815   3.804152   2.644462   3.229906
     8  H    2.148671   3.499998   4.274601   3.806245   3.893579
     9  H    2.128533   2.913567   3.889098   3.255809   2.806925
    10  C    1.486422   2.572081   2.630378   3.329639   3.272342
    11  H    2.181976   3.495153   3.671795   4.252238   4.035209
    12  O    2.034922   2.911342   2.940378   3.258707   3.886884
    13  O    2.424483   2.868888   2.422122   3.789118   3.432254
    14  H    3.145928   3.630358   3.076858   4.428484   4.314899
    15  O    3.656522   4.457663   4.179837   4.867305   5.409938
    16  H    4.010064   4.563514   4.200181   4.802926   5.594777
                    6          7          8          9         10
     6  C    0.000000
     7  H    1.095267   0.000000
     8  H    1.090353   1.775742   0.000000
     9  H    1.099799   1.758553   1.774780   0.000000
    10  C    2.569447   3.332564   2.645449   3.267131   0.000000
    11  H    2.736507   3.643128   2.407201   3.332354   1.099788
    12  O    2.898874   3.256658   2.921136   3.876641   1.386311
    13  O    3.758392   4.520401   3.973282   4.260409   1.395800
    14  H    4.423536   5.120765   4.493714   5.050914   1.875355
    15  O    4.516326   4.933340   4.286086   5.459181   2.473125
    16  H    4.923200   5.165631   4.823213   5.915260   3.057081
                   11         12         13         14         15
    11  H    0.000000
    12  O    2.064565   0.000000
    13  O    2.066557   2.325958   0.000000
    14  H    2.385549   2.363407   0.969571   0.000000
    15  O    2.736460   1.746561   2.795987   2.183449   0.000000
    16  H    3.540608   2.039463   3.287997   2.677253   0.967088
                   16
    16  H    0.000000
 Symmetry turned off by external request.
 Stoichiometry    C4H9O3(2)
 Framework group  C1[X(C4H9O3)]
 Deg. of freedom    42
 Full point group                 C1
 Rotational constants (GHZ):      3.9829462      1.7743350      1.5110429
 Standard basis: CBSB7 (5D, 7F)
 Integral buffers will be    131072 words long.
 Raffenetti 2 integral format.
 Two-electron integral symmetry is turned off.
   180 basis functions,   296 primitive gaussians,   187 cartesian basis functions
    29 alpha electrons       28 beta electrons
       nuclear repulsion energy       328.1071825595 Hartrees.
 NAtoms=   16 NActive=   16 NUniq=   16 SFac= 7.50D-01 NAtFMM=   80 NAOKFM=F Big=F
 One-electron integrals computed using PRISM.
 NBasis=   180 RedAO= T  NBF=   180
 NBsUse=   180 1.00D-06 NBFU=   180
 Harris functional with IExCor=  402 diagonalized for initial guess.
 ExpMin= 1.03D-01 ExpMax= 8.59D+03 ExpMxC= 1.30D+03 IAcc=1 IRadAn=         1 AccDes= 1.00D-06
 HarFok:  IExCor= 402 AccDes= 1.00D-06 IRadAn=         1 IDoV=1
 ScaDFX=  1.000000  1.000000  1.000000  1.000000
 <S**2> of initial guess= 0.7500
 Requested convergence on RMS density matrix=1.00D-08 within 128 cycles.
 Requested convergence on MAX density matrix=1.00D-06.
 Requested convergence on             energy=1.00D-06.
 No special actions if energy rises.
 Integral accuracy reduced to 1.0D-05 until final iterations.
 Initial convergence to 1.0D-05 achieved.  Increase integral accuracy.
 SCF Done:  E(UB+HF-LYP) =  -383.469488922     A.U. after   22 cycles
             Convg  =    0.4561D-08             -V/T =  2.0033
             S**2   =   0.7938
 Annihilation of the first spin contaminant:
 S**2 before annihilation     0.7938,   after     0.7502
 Range of M.O.s used for correlation:     1   180
 NBasis=   180 NAE=    29 NBE=    28 NFC=     0 NFV=     0
 NROrb=    180 NOA=    29 NOB=    28 NVA=   151 NVB=   152
 Symmetrizing basis deriv contribution to polar:
 IMax=3 JMax=2 DiffMx= 0.00D+00
 G2DrvN: will do   17 centers at a time, making    1 passes doing MaxLOS=2.
 FoFDir/FoFCou used for L=0 through L=2.
 DoAtom=TTTTTTTTTTTTTTTT
          Differentiating once with respect to electric field.
                with respect to dipole field.
          Differentiating once with respect to nuclear coordinates.
 Symmetry not used in FoFDir.
 MinBra= 0 MaxBra= 2 Meth= 1.
 IRaf=       0 NMat=  51 IRICut=      51 DoRegI=T DoRafI=T ISym2E= 0 JSym2E=0.
          There are  51 degrees of freedom in the 1st order CPHF.
    48 vectors were produced by pass  0.
 AX will form  48 AO Fock derivatives at one time.
    48 vectors were produced by pass  1.
    48 vectors were produced by pass  2.
    48 vectors were produced by pass  3.
    48 vectors were produced by pass  4.
    48 vectors were produced by pass  5.
    32 vectors were produced by pass  6.
     3 vectors were produced by pass  7.
     2 vectors were produced by pass  8.
 Inv2:  IOpt= 1 Iter= 1 AM= 2.63D-15 Conv= 1.00D-12.
 Inverted reduced A of dimension  325 with in-core refinement.
 Isotropic polarizability for W=    0.000000       73.76 Bohr**3.
 End of Minotr Frequency-dependent properties file   721 does not exist.

 **********************************************************************

            Population analysis using the SCF density.

 **********************************************************************

 Alpha  occ. eigenvalues --  -19.15427 -19.13232 -19.11502 -10.27219 -10.23435
 Alpha  occ. eigenvalues --  -10.18773 -10.17974  -1.07236  -1.00205  -0.94059
 Alpha  occ. eigenvalues --   -0.81908  -0.72070  -0.67097  -0.56458  -0.52563
 Alpha  occ. eigenvalues --   -0.49851  -0.47501  -0.45850  -0.44131  -0.42007
 Alpha  occ. eigenvalues --   -0.41291  -0.40923  -0.38370  -0.36446  -0.36074
 Alpha  occ. eigenvalues --   -0.31460  -0.28845  -0.26772  -0.21677
 Alpha virt. eigenvalues --   -0.06327   0.03508   0.05683   0.07396   0.08563
 Alpha virt. eigenvalues --    0.09396   0.10636   0.10931   0.12918   0.14894
 Alpha virt. eigenvalues --    0.16530   0.19668   0.21974   0.25384   0.25974
 Alpha virt. eigenvalues --    0.28199   0.32146   0.34590   0.37255   0.37716
 Alpha virt. eigenvalues --    0.39230   0.41094   0.43470   0.48058   0.48833
 Alpha virt. eigenvalues --    0.51739   0.52537   0.53731   0.55265   0.56808
 Alpha virt. eigenvalues --    0.58172   0.58723   0.59388   0.62279   0.63922
 Alpha virt. eigenvalues --    0.65495   0.67066   0.74427   0.77877   0.80428
 Alpha virt. eigenvalues --    0.83663   0.87547   0.88603   0.89719   0.91973
 Alpha virt. eigenvalues --    0.95538   0.96321   0.99827   1.00319   1.03945
 Alpha virt. eigenvalues --    1.16422   1.19360   1.26828   1.30035   1.31490
 Alpha virt. eigenvalues --    1.33748   1.36271   1.37061   1.41308   1.43034
 Alpha virt. eigenvalues --    1.43574   1.43718   1.45015   1.46908   1.50546
 Alpha virt. eigenvalues --    1.52940   1.53410   1.55192   1.57257   1.59900
 Alpha virt. eigenvalues --    1.62015   1.63446   1.67059   1.68615   1.70177
 Alpha virt. eigenvalues --    1.76338   1.79162   1.81947   1.82970   1.90976
 Alpha virt. eigenvalues --    1.91918   1.96309   1.98246   1.99144   2.03802
 Alpha virt. eigenvalues --    2.06834   2.09247   2.11908   2.23853   2.26233
 Alpha virt. eigenvalues --    2.28379   2.32550   2.33355   2.40151   2.42389
 Alpha virt. eigenvalues --    2.43014   2.45304   2.45989   2.47600   2.48537
 Alpha virt. eigenvalues --    2.50743   2.57492   2.58064   2.62791   2.69928
 Alpha virt. eigenvalues --    2.70110   2.74659   2.75074   2.78879   2.85674
 Alpha virt. eigenvalues --    2.86045   2.89922   2.94401   2.99511   3.07760
 Alpha virt. eigenvalues --    3.09691   3.12296   3.13508   3.15134   3.16088
 Alpha virt. eigenvalues --    3.23665   3.32618   3.35831   3.42174   3.55457
 Alpha virt. eigenvalues --    3.71924   3.76478   3.77581   3.79012   3.81271
 Alpha virt. eigenvalues --    3.83203   3.89036   3.95896   4.25068   4.27628
 Alpha virt. eigenvalues --    4.80934   4.84935   4.90629   4.93505   5.09750
 Alpha virt. eigenvalues --    5.24781   5.43213   5.45280   5.74301  23.64733
 Alpha virt. eigenvalues --   23.77374  23.90743  23.93955  49.78835  49.86186
 Alpha virt. eigenvalues --   49.93308
  Beta  occ. eigenvalues --  -19.15554 -19.11929 -19.11489 -10.27284 -10.22502
  Beta  occ. eigenvalues --  -10.18828 -10.18028  -1.07028  -0.99522  -0.91899
  Beta  occ. eigenvalues --   -0.80697  -0.71888  -0.66755  -0.55611  -0.52410
  Beta  occ. eigenvalues --   -0.49132  -0.47235  -0.44799  -0.43198  -0.41680
  Beta  occ. eigenvalues --   -0.40762  -0.40376  -0.38125  -0.36037  -0.34234
  Beta  occ. eigenvalues --   -0.30900  -0.28369  -0.26091
  Beta virt. eigenvalues --   -0.10508  -0.02007   0.03612   0.05977   0.07433
  Beta virt. eigenvalues --    0.08731   0.09640   0.10813   0.11039   0.13133
  Beta virt. eigenvalues --    0.14942   0.17515   0.20095   0.22169   0.25548
  Beta virt. eigenvalues --    0.26177   0.28533   0.32609   0.35219   0.37442
  Beta virt. eigenvalues --    0.38121   0.39521   0.41534   0.43786   0.48388
  Beta virt. eigenvalues --    0.49674   0.52285   0.53351   0.54980   0.55568
  Beta virt. eigenvalues --    0.57020   0.58268   0.58770   0.59557   0.62536
  Beta virt. eigenvalues --    0.64185   0.65925   0.67353   0.75157   0.78348
  Beta virt. eigenvalues --    0.80986   0.84693   0.88483   0.89321   0.90240
  Beta virt. eigenvalues --    0.92354   0.96097   0.96918   1.00179   1.00854
  Beta virt. eigenvalues --    1.04451   1.17053   1.19944   1.27163   1.30377
  Beta virt. eigenvalues --    1.31996   1.34257   1.37003   1.37418   1.41560
  Beta virt. eigenvalues --    1.43404   1.43891   1.44134   1.45332   1.47161
  Beta virt. eigenvalues --    1.50821   1.53343   1.53820   1.55502   1.57555
  Beta virt. eigenvalues --    1.60298   1.63062   1.64112   1.67298   1.68945
  Beta virt. eigenvalues --    1.70680   1.76745   1.79501   1.82713   1.83996
  Beta virt. eigenvalues --    1.91518   1.92736   1.96800   1.98494   1.99549
  Beta virt. eigenvalues --    2.04148   2.07218   2.09524   2.12719   2.24654
  Beta virt. eigenvalues --    2.26964   2.28718   2.32786   2.33647   2.40419
  Beta virt. eigenvalues --    2.42804   2.43376   2.45572   2.46250   2.47742
  Beta virt. eigenvalues --    2.48814   2.51002   2.57887   2.58373   2.63113
  Beta virt. eigenvalues --    2.70151   2.70572   2.75727   2.75959   2.79867
  Beta virt. eigenvalues --    2.86017   2.86710   2.92312   2.96156   3.00119
  Beta virt. eigenvalues --    3.07985   3.10836   3.12910   3.14500   3.16048
  Beta virt. eigenvalues --    3.16848   3.23933   3.32776   3.37368   3.42245
  Beta virt. eigenvalues --    3.55535   3.72155   3.76883   3.78465   3.79447
  Beta virt. eigenvalues --    3.81386   3.83352   3.89089   3.95974   4.26011
  Beta virt. eigenvalues --    4.28442   4.82522   4.88665   4.91154   4.93794
  Beta virt. eigenvalues --    5.08896   5.24736   5.43235   5.46327   5.74251
  Beta virt. eigenvalues --   23.64994  23.78114  23.90703  23.93902  49.80022
  Beta virt. eigenvalues --   49.86214  49.93333
          Condensed to atoms (all electrons):
              1          2          3          4          5          6
     1  C    5.566921   0.319599  -0.040892  -0.039864  -0.045780   0.351405
     2  C    0.319599   4.798694   0.404578   0.399597   0.395682  -0.052527
     3  H   -0.040892   0.404578   0.516155  -0.022587  -0.021694   0.005555
     4  H   -0.039864   0.399597  -0.022587   0.572271  -0.034790  -0.003300
     5  H   -0.045780   0.395682  -0.021694  -0.034790   0.582725  -0.003775
     6  C    0.351405  -0.052527   0.005555  -0.003300  -0.003775   4.782494
     7  H   -0.037661  -0.003400  -0.000065   0.004229  -0.000840   0.400028
     8  H   -0.029702   0.005977  -0.000298  -0.000026  -0.000220   0.405028
     9  H   -0.045036  -0.003427  -0.000243  -0.000967   0.003276   0.394129
    10  C    0.286785  -0.037301  -0.004931   0.004469   0.001964  -0.051797
    11  H   -0.073868   0.007760   0.002509  -0.000399   0.000371  -0.005471
    12  O   -0.023849   0.007209   0.002380  -0.001358   0.001000   0.008563
    13  O   -0.045344  -0.009355   0.023623   0.000048  -0.000170   0.002989
    14  H    0.009500   0.000488  -0.001236   0.000126  -0.000064  -0.000632
    15  O    0.012997  -0.000278  -0.000200  -0.000061   0.000023  -0.000266
    16  H   -0.002754   0.000215   0.000137   0.000036  -0.000013   0.000031
              7          8          9         10         11         12
     1  C   -0.037661  -0.029702  -0.045036   0.286785  -0.073868  -0.023849
     2  C   -0.003400   0.005977  -0.003427  -0.037301   0.007760   0.007209
     3  H   -0.000065  -0.000298  -0.000243  -0.004931   0.002509   0.002380
     4  H    0.004229  -0.000026  -0.000967   0.004469  -0.000399  -0.001358
     5  H   -0.000840  -0.000220   0.003276   0.001964   0.000371   0.001000
     6  C    0.400028   0.405028   0.394129  -0.051797  -0.005471   0.008563
     7  H    0.561734  -0.023659  -0.033144   0.004744  -0.000178  -0.001392
     8  H   -0.023659   0.539822  -0.023915  -0.004131   0.002470   0.002400
     9  H   -0.033144  -0.023915   0.581042   0.000764   0.000286   0.000983
    10  C    0.004744  -0.004131   0.000764   4.591156   0.416735   0.205350
    11  H   -0.000178   0.002470   0.000286   0.416735   0.649943  -0.051016
    12  O   -0.001392   0.002400   0.000983   0.205350  -0.051016   8.200234
    13  O   -0.000126   0.000243   0.000098   0.312624  -0.049792  -0.052617
    14  H    0.000063  -0.000059   0.000002  -0.048669  -0.002226  -0.002167
    15  O   -0.000065  -0.000130   0.000024  -0.028110   0.000711   0.022706
    16  H    0.000027   0.000025  -0.000006   0.000341   0.000403  -0.001551
             13         14         15         16
     1  C   -0.045344   0.009500   0.012997  -0.002754
     2  C   -0.009355   0.000488  -0.000278   0.000215
     3  H    0.023623  -0.001236  -0.000200   0.000137
     4  H    0.000048   0.000126  -0.000061   0.000036
     5  H   -0.000170  -0.000064   0.000023  -0.000013
     6  C    0.002989  -0.000632  -0.000266   0.000031
     7  H   -0.000126   0.000063  -0.000065   0.000027
     8  H    0.000243  -0.000059  -0.000130   0.000025
     9  H    0.000098   0.000002   0.000024  -0.000006
    10  C    0.312624  -0.048669  -0.028110   0.000341
    11  H   -0.049792  -0.002226   0.000711   0.000403
    12  O   -0.052617  -0.002167   0.022706  -0.001551
    13  O    7.907645   0.317922  -0.008172   0.001995
    14  H    0.317922   0.448632   0.037107  -0.001709
    15  O   -0.008172   0.037107   8.061549   0.266936
    16  H    0.001995  -0.001709   0.266936   0.483003
 Mulliken atomic charges:
              1
     1  C   -0.162455
     2  C   -0.233510
     3  H    0.137208
     4  H    0.122575
     5  H    0.122305
     6  C   -0.232457
     7  H    0.129704
     8  H    0.126174
     9  H    0.126135
    10  C    0.350007
    11  H    0.101763
    12  O   -0.316874
    13  O   -0.401611
    14  H    0.242921
    15  O   -0.364772
    16  H    0.252887
 Sum of Mulliken charges=   0.00000
 Atomic charges with hydrogens summed into heavy atoms:
              1
     1  C   -0.162455
     2  C    0.148578
     3  H    0.000000
     4  H    0.000000
     5  H    0.000000
     6  C    0.149557
     7  H    0.000000
     8  H    0.000000
     9  H    0.000000
    10  C    0.451770
    11  H    0.000000
    12  O   -0.316874
    13  O   -0.158690
    14  H    0.000000
    15  O   -0.111885
    16  H    0.000000
 Sum of Mulliken charges=   0.00000
          Atomic-Atomic Spin Densities.
              1          2          3          4          5          6
     1  C    0.767707  -0.029847  -0.000212  -0.014091  -0.021071  -0.025254
     2  C   -0.029847  -0.041480   0.001769   0.007512   0.010105   0.002180
     3  H   -0.000212   0.001769  -0.000042  -0.000400  -0.000196  -0.000113
     4  H   -0.014091   0.007512  -0.000400   0.044723  -0.013281   0.000781
     5  H   -0.021071   0.010105  -0.000196  -0.013281   0.055860   0.000527
     6  C   -0.025254   0.002180  -0.000113   0.000781   0.000527  -0.044299
     7  H   -0.014477   0.000066  -0.000026   0.003936  -0.002004   0.008817
     8  H   -0.000597  -0.000143  -0.000005   0.000040  -0.000027   0.002031
     9  H   -0.021281   0.001570   0.000039  -0.002069   0.004278   0.006849
    10  C   -0.008058   0.000150   0.000680   0.000798  -0.001185   0.000691
    11  H   -0.000865  -0.000005  -0.000035  -0.000201   0.000338  -0.000498
    12  O    0.008493  -0.001487  -0.000418  -0.000191   0.000023  -0.001231
    13  O   -0.002775   0.000421  -0.000277  -0.000241   0.000458  -0.000050
    14  H   -0.000353   0.000002   0.000073   0.000081  -0.000118   0.000028
    15  O    0.006777  -0.000118   0.000023  -0.000115   0.000031  -0.000136
    16  H   -0.000898   0.000047  -0.000009   0.000058  -0.000014   0.000026
              7          8          9         10         11         12
     1  C   -0.014477  -0.000597  -0.021281  -0.008058  -0.000865   0.008493
     2  C    0.000066  -0.000143   0.001570   0.000150  -0.000005  -0.001487
     3  H   -0.000026  -0.000005   0.000039   0.000680  -0.000035  -0.000418
     4  H    0.003936   0.000040  -0.002069   0.000798  -0.000201  -0.000191
     5  H   -0.002004  -0.000027   0.004278  -0.001185   0.000338   0.000023
     6  C    0.008817   0.002031   0.006849   0.000691  -0.000498  -0.001231
     7  H    0.042936   0.000363  -0.013969   0.000565  -0.000566  -0.000177
     8  H    0.000363   0.000487  -0.001080   0.000573  -0.000434  -0.000150
     9  H   -0.013969  -0.001080   0.061912  -0.001029   0.001090   0.000017
    10  C    0.000565   0.000573  -0.001029  -0.032802   0.000364   0.009470
    11  H   -0.000566  -0.000434   0.001090   0.000364   0.012742  -0.006470
    12  O   -0.000177  -0.000150   0.000017   0.009470  -0.006470  -0.027335
    13  O   -0.000051  -0.000008   0.000101  -0.000755   0.001544  -0.003427
    14  H    0.000022   0.000007  -0.000032   0.001234  -0.000674   0.002979
    15  O   -0.000099  -0.000012   0.000030  -0.000586   0.002248  -0.092103
    16  H    0.000030   0.000001  -0.000008   0.000006  -0.000227   0.006145
             13         14         15         16
     1  C   -0.002775  -0.000353   0.006777  -0.000898
     2  C    0.000421   0.000002  -0.000118   0.000047
     3  H   -0.000277   0.000073   0.000023  -0.000009
     4  H   -0.000241   0.000081  -0.000115   0.000058
     5  H    0.000458  -0.000118   0.000031  -0.000014
     6  C   -0.000050   0.000028  -0.000136   0.000026
     7  H   -0.000051   0.000022  -0.000099   0.000030
     8  H   -0.000008   0.000007  -0.000012   0.000001
     9  H    0.000101  -0.000032   0.000030  -0.000008
    10  C   -0.000755   0.001234  -0.000586   0.000006
    11  H    0.001544  -0.000674   0.002248  -0.000227
    12  O   -0.003427   0.002979  -0.092103   0.006145
    13  O    0.006152  -0.000637   0.001777  -0.000226
    14  H   -0.000637   0.001094  -0.004868   0.000720
    15  O    0.001777  -0.004868   0.553108  -0.001495
    16  H   -0.000226   0.000720  -0.001495  -0.011827
 Mulliken atomic spin densities:
              1
     1  C    0.643199
     2  C   -0.049260
     3  H    0.000853
     4  H    0.027340
     5  H    0.033723
     6  C   -0.049651
     7  H    0.025364
     8  H    0.001049
     9  H    0.036421
    10  C   -0.029883
    11  H    0.008350
    12  O   -0.105862
    13  O    0.002006
    14  H   -0.000442
    15  O    0.464463
    16  H   -0.007670
 Sum of Mulliken spin densities=   1.00000
 APT atomic charges:
              1
     1  C    0.113969
     2  C   -0.071854
     3  H    0.044232
     4  H    0.004237
     5  H    0.000225
     6  C   -0.043435
     7  H    0.005836
     8  H    0.012989
     9  H   -0.006776
    10  C    0.669778
    11  H   -0.070310
    12  O    0.231070
    13  O   -0.600221
    14  H    0.272171
    15  O   -0.814293
    16  H    0.252381
 Sum of APT charges=   0.00000
 APT Atomic charges with hydrogens summed into heavy atoms:
              1
     1  C    0.113969
     2  C   -0.023161
     3  H    0.000000
     4  H    0.000000
     5  H    0.000000
     6  C   -0.031385
     7  H    0.000000
     8  H    0.000000
     9  H    0.000000
    10  C    0.599467
    11  H    0.000000
    12  O    0.231070
    13  O   -0.328049
    14  H    0.000000
    15  O   -0.561911
    16  H    0.000000
 Sum of APT charges=   0.00000
 Electronic spatial extent (au):  <R**2>=  1266.4289
 Charge=     0.0000 electrons
 Dipole moment (field-independent basis, Debye):
    X=    -2.0102    Y=    -1.2538    Z=    -0.5485  Tot=     2.4319
 Quadrupole moment (field-independent basis, Debye-Ang):
   XX=   -44.0014   YY=   -33.3148   ZZ=   -44.4915
   XY=     4.9887   XZ=     0.5420   YZ=    -2.7275
 Traceless Quadrupole moment (field-independent basis, Debye-Ang):
   XX=    -3.3988   YY=     7.2877   ZZ=    -3.8889
   XY=     4.9887   XZ=     0.5420   YZ=    -2.7275
 Octapole moment (field-independent basis, Debye-Ang**2):
  XXX=    -2.8593  YYY=   155.0257  ZZZ=   -78.2298  XYY=    -0.0183
  XXY=    58.4423  XXZ=   -21.4137  XZZ=     8.6853  YZZ=    60.6903
  YYZ=   -16.5446  XYZ=    -1.6345
 Hexadecapole moment (field-independent basis, Debye-Ang**3):
 XXXX=  -509.5166 YYYY=  -853.9555 ZZZZ=  -265.4057 XXXY=  -105.0912
 XXXZ=    15.4641 YYYX=  -103.8214 YYYZ=    61.5504 ZZZX=    26.3871
 ZZZY=    79.0442 XXYY=  -220.5619 XXZZ=  -110.1949 YYZZ=  -185.7247
 XXYZ=    15.7169 YYXZ=     5.8482 ZZXY=   -33.1586
 N-N= 3.281071825595D+02 E-N=-1.556392637306D+03  KE= 3.822155015664D+02
  Exact polarizability:  90.509  28.244  79.672  -5.722  -4.225  51.096
 Approx polarizability: 138.389  49.427 111.354 -14.666 -10.829  77.158
                          Isotropic Fermi Contact Couplings
        Atom                 a.u.       MegaHertz       Gauss      10(-4) cm-1
     1  C(13)              0.03199      35.96560      12.83342      11.99683
     2  C(13)             -0.01928     -21.67568      -7.73442      -7.23023
     3  H(1)               0.00048       2.13609       0.76221       0.71252
     4  H(1)               0.01343      60.03162      21.42077      20.02439
     5  H(1)               0.01672      74.72804      26.66482      24.92659
     6  C(13)             -0.01919     -21.57676      -7.69913      -7.19723
     7  H(1)               0.01242      55.50282      19.80479      18.51375
     8  H(1)               0.00061       2.73530       0.97602       0.91240
     9  H(1)               0.01743      77.89628      27.79533      25.98340
    10  C(13)             -0.01745     -19.62033      -7.00102      -6.54464
    11  H(1)               0.00407      18.19786       6.49345       6.07015
    12  O(17)              0.37206    -225.53886     -80.47787     -75.23167
    13  O(17)              0.01141      -6.91768      -2.46840      -2.30749
    14  H(1)               0.00079       3.54116       1.26357       1.18120
    15  O(17)              0.05638     -34.17848     -12.19573     -11.40071
    16  H(1)              -0.00720     -32.16174     -11.47611     -10.72800
 --------------------------------------------------------
       Center         ----  Spin Dipole Couplings  ----
                      3XX-RR        3YY-RR        3ZZ-RR
 --------------------------------------------------------
     1   Atom       -0.343689     -0.322208      0.665897
     2   Atom        0.004157     -0.005447      0.001290
     3   Atom        0.000683      0.004346     -0.005029
     4   Atom        0.005462     -0.003854     -0.001608
     5   Atom        0.010379     -0.004705     -0.005673
     6   Atom       -0.009365      0.008260      0.001105
     7   Atom       -0.004492      0.004806     -0.000314
     8   Atom       -0.001185      0.005844     -0.004659
     9   Atom       -0.004556      0.010172     -0.005616
    10   Atom       -0.002957      0.000913      0.002044
    11   Atom        0.007296     -0.004230     -0.003067
    12   Atom       -0.378278      0.056675      0.321603
    13   Atom       -0.005425      0.012297     -0.006872
    14   Atom        0.000126     -0.003123      0.002997
    15   Atom        0.952883     -0.010839     -0.942044
    16   Atom       -0.025171     -0.000047      0.025218
 --------------------------------------------------------
                        XY            XZ            YZ
 --------------------------------------------------------
     1   Atom        0.045749     -0.245362     -0.262113
     2   Atom       -0.006858     -0.000313     -0.006462
     3   Atom       -0.007200     -0.000228     -0.000129
     4   Atom       -0.003107      0.006591     -0.000914
     5   Atom       -0.002147     -0.002623     -0.000345
     6   Atom       -0.000144     -0.005036      0.002024
     7   Atom        0.001409      0.001924      0.007293
     8   Atom       -0.006463     -0.001258      0.001817
     9   Atom        0.003246     -0.001030     -0.000631
    10   Atom        0.000876      0.003230      0.005228
    11   Atom        0.004880      0.003408     -0.002008
    12   Atom       -0.341262      0.010958      0.005245
    13   Atom        0.013791      0.002756      0.013993
    14   Atom        0.001518     -0.006782      0.003229
    15   Atom        1.364679      0.191203      0.132179
    16   Atom       -0.004449      0.032991     -0.064187
 --------------------------------------------------------


 ---------------------------------------------------------------------------------
              Anisotropic Spin Dipole Couplings in Principal Axis System
 ---------------------------------------------------------------------------------

       Atom             a.u.   MegaHertz   Gauss  10(-4) cm-1        Axes

              Baa    -0.4086   -54.828   -19.564   -18.289  0.8056  0.5064  0.3075
     1 C(13)  Bbb    -0.3775   -50.656   -18.075   -16.897 -0.5519  0.8302  0.0788
              Bcc     0.7861   105.484    37.639    35.186 -0.2154 -0.2332  0.9483
 
              Baa    -0.0117    -1.576    -0.562    -0.526  0.3663  0.8302  0.4203
     2 C(13)  Bbb     0.0028     0.369     0.132     0.123 -0.5736 -0.1542  0.8045
              Bcc     0.0090     1.207     0.431     0.403  0.7327 -0.5358  0.4197
 
              Baa    -0.0052    -2.794    -0.997    -0.932  0.4957  0.3829  0.7795
     3 H(1)   Bbb    -0.0047    -2.511    -0.896    -0.838 -0.6144 -0.4798  0.6264
              Bcc     0.0099     5.305     1.893     1.770 -0.6138  0.7895  0.0026
 
              Baa    -0.0060    -3.196    -1.141    -1.066 -0.5323 -0.4738  0.7016
     4 H(1)   Bbb    -0.0041    -2.199    -0.785    -0.733 -0.0786  0.8528  0.5163
              Bcc     0.0101     5.395     1.925     1.800  0.8429 -0.2197  0.4912
 
              Baa    -0.0064    -3.419    -1.220    -1.140  0.1924  0.4224  0.8857
     5 H(1)   Bbb    -0.0047    -2.486    -0.887    -0.829  0.0515  0.8970 -0.4390
              Bcc     0.0111     5.905     2.107     1.970  0.9800 -0.1301 -0.1509
 
              Baa    -0.0114    -1.532    -0.547    -0.511  0.9255 -0.0320  0.3775
     6 C(13)  Bbb     0.0025     0.334     0.119     0.112 -0.3677 -0.3160  0.8746
              Bcc     0.0089     1.197     0.427     0.399 -0.0912  0.9482  0.3042
 
              Baa    -0.0060    -3.187    -1.137    -1.063 -0.5435 -0.4205  0.7265
     7 H(1)   Bbb    -0.0043    -2.320    -0.828    -0.774  0.8257 -0.4238  0.3724
              Bcc     0.0103     5.507     1.965     1.837  0.1513  0.8022  0.5775
 
              Baa    -0.0052    -2.753    -0.983    -0.918  0.6937  0.2992  0.6552
     8 H(1)   Bbb    -0.0049    -2.591    -0.925    -0.864 -0.5120 -0.4350  0.7407
              Bcc     0.0100     5.345     1.907     1.783 -0.5066  0.8493  0.1486
 
              Baa    -0.0064    -3.388    -1.209    -1.130  0.6141 -0.0907  0.7840
     9 H(1)   Bbb    -0.0045    -2.426    -0.866    -0.809  0.7612 -0.1943 -0.6188
              Bcc     0.0109     5.814     2.075     1.939  0.2085  0.9767 -0.0503
 
              Baa    -0.0052    -0.704    -0.251    -0.235  0.6876  0.4105 -0.5989
    10 C(13)  Bbb    -0.0024    -0.316    -0.113    -0.105 -0.6711  0.6741 -0.3085
              Bcc     0.0076     1.020     0.364     0.340  0.2771  0.6141  0.7390
 
              Baa    -0.0080    -4.293    -1.532    -1.432 -0.3616  0.7522  0.5509
    11 H(1)   Bbb    -0.0016    -0.832    -0.297    -0.278  0.0120 -0.5870  0.8095
              Bcc     0.0096     5.125     1.829     1.710  0.9323  0.2993  0.2033
 
              Baa    -0.5656    40.929    14.604    13.652  0.8767  0.4809 -0.0137
    12 O(17)  Bbb     0.2439   -17.646    -6.296    -5.886 -0.4808  0.8768  0.0086
              Bcc     0.3218   -23.283    -8.308    -7.767  0.0161 -0.0010  0.9999
 
              Baa    -0.0168     1.213     0.433     0.405  0.5226 -0.5583  0.6444
    13 O(17)  Bbb    -0.0088     0.640     0.228     0.214  0.7516 -0.0552 -0.6573
              Bcc     0.0256    -1.853    -0.661    -0.618  0.4026  0.8278  0.3908
 
              Baa    -0.0077    -4.109    -1.466    -1.370  0.5925 -0.5862  0.5526
    14 H(1)   Bbb    -0.0010    -0.539    -0.192    -0.180  0.5389  0.7983  0.2689
              Bcc     0.0087     4.648     1.658     1.550 -0.5988  0.1384  0.7889
 
              Baa    -0.9766    70.668    25.216    23.572 -0.5806  0.7991  0.1560
    15 O(17)  Bbb    -0.9604    69.495    24.797    23.181  0.0255 -0.1737  0.9845
              Bcc     1.9370  -140.163   -50.014   -46.753  0.8138  0.5756  0.0805
 
              Baa    -0.0625   -33.362   -11.904   -11.128 -0.4819  0.6109  0.6281
    16 H(1)   Bbb    -0.0229   -12.203    -4.354    -4.071  0.8390  0.5284  0.1298
              Bcc     0.0854    45.565    16.259    15.199  0.2526 -0.5895  0.7672
 

 ---------------------------------------------------------------------------------

 Use density number 0.
 Entering OneElI...
 Calculate overlap and kinetic energy integrals
    NBasis = 187  MinDer = 2  MaxDer = 2
 Requested accuracy = 0.1000D-12
 PrsmSu:  NPrtUS=   1 ThrOK=F
 PRISM was handed   130760667 working-precision words and  2542 shell-pairs
 Entering OneElI...
 Calculate potential energy integrals
    NBasis = 187  MinDer = 2  MaxDer = 2
 Requested accuracy = 0.1000D-12
 PrsmSu:  NPrtUS=   8 ThrOK=T
 PRISM was handed    16302994 working-precision words and  2337 shell-pairs
 PRISM was handed    16302994 working-precision words and  2337 shell-pairs
 PRISM was handed    16302994 working-precision words and  2337 shell-pairs
 PRISM was handed    16302994 working-precision words and  2337 shell-pairs
 PRISM was handed    16302994 working-precision words and  2337 shell-pairs
 PRISM was handed    16302994 working-precision words and  2337 shell-pairs
 PRISM was handed    16302994 working-precision words and  2337 shell-pairs
 PRISM was handed    16302994 working-precision words and  2337 shell-pairs
 Polarizability after L701:
                1             2             3
      1  0.905093D+02
      2  0.282441D+02  0.796719D+02
      3 -0.572214D+01 -0.422452D+01  0.510960D+02
 Dipole Derivatives after L701:
               1            2            3            4            5
      1 0.167656D+00-0.206368D+00 0.275231D+00-0.183237D+00-0.376299D-01
      2-0.204650D+00 0.286290D+00 0.243332D+00 0.487050D-01-0.126827D+00
      3-0.489011D-02 0.567346D-01-0.112039D+00-0.525814D-02-0.215497D-01
               6            7            8            9           10
      1-0.132074D-01 0.808074D-01 0.499552D-01-0.259724D-02 0.681295D-02
      2 0.120061D-02-0.267428D-01-0.343880D-01-0.189822D-01-0.144947D-01
      3 0.945007D-01 0.160899D-01-0.157195D-01 0.862760D-01-0.340225D-01
              11           12           13           14           15
      1 0.547276D-01-0.113513D+00-0.742953D-01-0.594313D-02 0.788707D-01
      2 0.886502D-01-0.431473D-01-0.741119D-01 0.621499D-01 0.581026D-01
      3-0.529875D-01-0.827517D-01 0.732109D-01 0.635415D-01 0.128198D-01
              16           17           18           19           20
      1-0.641256D-01 0.238753D-01 0.209924D-01 0.723777D-01-0.287089D-01
      2-0.901890D-01-0.146742D+00-0.193273D-01 0.262106D-01 0.162514D-01
      3-0.827845D-02-0.403236D-01 0.805632D-01-0.732072D-01 0.355339D-02
              21           22           23           24           25
      1-0.939380D-01-0.675910D-01 0.457305D-02-0.316659D-01 0.314625D-01
      2-0.852754D-01 0.909652D-01 0.263370D-01-0.150568D-01-0.435949D-01
      3-0.711200D-01-0.140617D-01 0.181790D-02 0.802225D-01 0.799272D-01
              26           27           28           29           30
      1-0.108428D+00 0.679451D-01 0.312174D+00-0.279543D+00 0.118473D+00
      2-0.615349D-01 0.550525D-01-0.225605D+00 0.702521D+00 0.251723D+00
      3 0.510408D-01 0.974451D-02 0.930758D-01 0.277669D+00 0.994640D+00
              31           32           33           34           35
      1-0.881377D-01 0.108704D+00-0.667240D-01 0.918444D+00 0.999446D+00
      2 0.125111D+00-0.813410D-01 0.256270D-01 0.100528D+01 0.376903D+00
      3-0.927201D-01 0.285768D-01-0.414528D-01-0.215634D+00-0.131434D+00
              36           37           38           39           40
      1-0.147346D+00-0.328730D+00 0.123660D+00-0.104630D+00 0.183357D+00
      2-0.152043D+00 0.131246D+00-0.786241D+00-0.292811D+00-0.708217D-01
      3-0.602138D+00-0.438609D-01-0.345123D+00-0.685691D+00 0.371113D-02
              41           42           43           44           45
      1 0.259171D-01 0.130041D+00-0.119753D+01-0.811362D+00 0.622610D-01
      2 0.300778D+00 0.121889D+00-0.692898D+00-0.922025D+00-0.110935D+00
      3-0.267747D-02 0.332379D+00 0.301145D+00 0.853832D-01-0.323323D+00
              46           47           48
      1 0.230555D+00 0.871253D-01-0.180194D+00
      2 0.155915D-01 0.299218D+00-0.193483D-01
      3-0.752270D-01 0.414970D-01 0.227370D+00
 Hessian after L701:
                1             2             3             4             5
      1  0.104798D+02
      2 -0.126404D+01  0.106790D+02
      3 -0.170626D+01 -0.232727D+01  0.189384D+02
      4 -0.196031D+01 -0.263602D+01  0.588656D+00  0.118290D+02
      5 -0.242700D+01 -0.509499D+01 -0.250484D+00  0.116584D+01  0.148658D+02
      6  0.590681D+00 -0.271109D+00 -0.648614D+01 -0.537552D+00 -0.117910D+00
      7  0.621428D-01  0.918773D-01 -0.772330D-02 -0.459648D+01 -0.474596D-01
      8 -0.258193D-01  0.106891D+00  0.294715D-01  0.334327D+00 -0.158533D+01
      9 -0.202958D-01  0.474695D-01  0.757410D-01  0.511849D-01  0.586069D+00
     10  0.184518D-01  0.310844D-01  0.176110D-02 -0.378834D+01  0.125163D+00
     11  0.436622D-01  0.680173D-01  0.277788D-01  0.957782D-01 -0.419348D+01
     12  0.460952D-01 -0.862666D-03  0.180892D+00  0.918154D+00  0.255297D+00
     13  0.314137D-01 -0.186886D-01 -0.334384D-01 -0.270544D+01  0.790958D+00
     14  0.240939D-01  0.109916D+00 -0.175067D-01  0.701595D+00 -0.372041D+01
     15 -0.582750D-01  0.195948D-02  0.138667D+00 -0.113905D+01 -0.641859D+00
     16 -0.639752D+01 -0.491224D+00 -0.626126D-01  0.621362D-01 -0.230058D+00
     17 -0.633496D+00 -0.106604D+01  0.145243D+01 -0.147144D+00  0.213667D+00
     18 -0.937218D-01  0.139295D+01 -0.622497D+01 -0.725197D-02  0.358328D-02
     19  0.805247D-01  0.189029D-01  0.389428D-01 -0.147572D-01 -0.829382D-02
     20 -0.403207D-02 -0.423308D-02 -0.156787D-01 -0.142075D-01 -0.249959D-03
     21  0.227064D-01  0.375041D-01  0.187371D+00 -0.175176D-01  0.436644D-01
     22  0.914641D-01 -0.574906D-01  0.806863D-02  0.806934D-01 -0.114310D+00
     23  0.381765D-01  0.474639D-01 -0.166911D-01 -0.114373D+00  0.537111D-01
     24  0.285562D-01 -0.225951D-01  0.325608D-01 -0.507296D-02  0.304489D-02
     25  0.968403D-01  0.808574D-02 -0.315163D-01 -0.198648D-01  0.594621D-02
     26 -0.355432D-01  0.578804D-01 -0.504786D-01 -0.594691D-02  0.245113D-01
     27 -0.271825D-01 -0.810426D-01  0.133009D+00  0.615592D-02 -0.349643D-01
     28 -0.312469D+01  0.287271D+01  0.159073D+01  0.281860D+00  0.118096D+00
     29  0.282096D+01 -0.475152D+01  0.115537D+01  0.135895D+00 -0.844208D-01
     30  0.175914D+01  0.132725D+01 -0.655573D+01  0.909994D-01  0.259097D-01
     31 -0.413789D+00  0.577932D-01 -0.132042D+00  0.179821D+00 -0.256291D-01
     32  0.662044D-01  0.307497D+00  0.274041D-01 -0.512823D-01 -0.535196D-01
     33 -0.208982D+00  0.400865D-01  0.287710D+00  0.100414D+00 -0.950041D-02
     34  0.392033D+00  0.393689D+00 -0.674300D+00  0.500062D+00  0.243651D+00
     35  0.387859D+00 -0.257897D+00 -0.232215D+00  0.235728D+00 -0.294580D+00
     36 -0.750959D+00 -0.283279D+00 -0.715803D+00 -0.241633D+00 -0.704901D-01
     37  0.245972D+00  0.413107D+00  0.445626D+00  0.787850D-03  0.265866D+00
     38  0.432693D+00 -0.465009D+00  0.188750D+00  0.194664D+00 -0.726443D-01
     39  0.500670D+00  0.164098D+00  0.278267D+00  0.207720D+00  0.217700D+00
     40  0.304297D-01  0.163161D+00  0.542438D-01  0.305111D-01  0.373463D-01
     41  0.164731D+00  0.194770D+00  0.836586D-01  0.330757D-01  0.105731D-01
     42  0.402087D-01  0.653307D-01 -0.565178D-01  0.114782D-01  0.527276D-02
     43  0.390358D+00  0.439135D+00 -0.924829D-01  0.112855D+00  0.921579D-01
     44  0.420608D+00  0.765205D-01 -0.580383D-01  0.537117D-01 -0.739893D-01
     45 -0.121048D+00 -0.873355D-01 -0.215000D+00 -0.102073D-01 -0.113604D-02
     46 -0.231237D-01 -0.220868D-01  0.123475D-01  0.741847D-02  0.773159D-02
     47 -0.906039D-02 -0.827265D-02  0.349653D-02  0.183612D-01  0.533014D-02
     48 -0.133329D-02 -0.315001D-02  0.158077D-02 -0.164815D-01 -0.141984D-01
                6             7             8             9            10
      6  0.164101D+02
      7 -0.264670D-01  0.428354D+01
      8  0.652447D+00  0.562280D-01  0.155071D+01
      9 -0.439534D+01 -0.576830D-01 -0.672384D+00  0.444759D+01
     10  0.111726D+01  0.554108D-01 -0.258095D-01 -0.288853D-01  0.344010D+01
     11  0.221426D+00 -0.244088D-01  0.123754D-01 -0.885959D-01 -0.119363D+00
     12 -0.179679D+01 -0.114280D-01 -0.468791D-01  0.357166D-02 -0.127981D+01
     13 -0.126463D+01  0.388034D-01 -0.431624D-01  0.183897D-01  0.107884D+00
     14 -0.630956D+00 -0.550363D-01 -0.214964D-01  0.518791D-01 -0.815498D-03
     15 -0.306636D+01 -0.764800D-04  0.119821D-01  0.549626D-01  0.492071D-01
     16 -0.303087D-01 -0.197280D-01 -0.750257D-01 -0.114245D-01 -0.508796D-02
     17  0.260692D-01 -0.728664D-01  0.148585D+00  0.252040D-01 -0.215686D-01
     18 -0.610418D-01 -0.933763D-02  0.211909D-01 -0.394928D-01  0.164742D-01
     19 -0.420591D-02 -0.204706D-02  0.156999D-02  0.278602D-03 -0.105563D-03
     20  0.161296D-01 -0.168622D-02  0.848115D-02  0.374792D-02 -0.341018D-01
     21  0.683847D-02 -0.147820D-02  0.144879D-01  0.255564D-02 -0.129159D-01
     22 -0.733597D-02 -0.433537D-03 -0.984594D-02 -0.215335D-02  0.869100D-02
     23  0.488375D-02  0.328026D-02  0.232873D-02  0.124079D-02 -0.651659D-02
     24 -0.429775D-01  0.673030D-03 -0.106648D-02 -0.236816D-03  0.236692D-02
     25  0.881179D-03 -0.152435D-02  0.486499D-02  0.519845D-03 -0.288366D-02
     26 -0.159719D-01 -0.408960D-03  0.108226D-01  0.892111D-03 -0.342033D-02
     27 -0.117391D-01  0.140921D-03 -0.717895D-02 -0.219744D-02  0.371443D-02
     28  0.122141D+00 -0.301146D-01 -0.258357D-01 -0.268690D-01  0.787641D-01
     29  0.309980D-01  0.193367D-01 -0.396302D-02  0.946703D-02  0.774073D-02
     30 -0.226499D-01 -0.258843D-01  0.622779D-02 -0.141098D-01  0.797697D-01
     31  0.817848D-01  0.383033D-01 -0.343794D-01  0.104874D-01 -0.125533D-02
     32 -0.188410D-01 -0.267157D-01  0.910743D-02 -0.566620D-02 -0.332058D-02
     33 -0.174392D-01  0.163646D-01 -0.136044D-01 -0.784391D-02  0.252779D-05
     34 -0.257087D+00  0.683483D-01 -0.834477D-01 -0.576889D-01  0.484834D-01
     35 -0.673838D-01 -0.121935D-01 -0.399891D-01  0.724741D-02  0.147080D-01
     36 -0.282425D+00 -0.465793D-01  0.281782D-01 -0.324001D-01  0.538790D-02
     37  0.224029D+00  0.888539D-01 -0.334679D-01  0.145394D+00  0.114980D-01
     38  0.163875D+00  0.706431D-01 -0.175559D+00  0.387575D-01  0.193846D-01
     39 -0.128158D+00  0.185725D+00 -0.262882D-01 -0.780375D-01  0.399853D-01
     40  0.223560D-01 -0.898903D-02 -0.141235D-01 -0.569522D-02  0.670265D-02
     41  0.163239D-01 -0.249318D-02 -0.681439D-02 -0.289279D-02  0.653868D-02
     42 -0.129099D-01 -0.748265D-02 -0.138533D-02 -0.921074D-03  0.211240D-02
     43 -0.267116D-01  0.213385D-01 -0.267378D-01 -0.140714D-01  0.208376D-01
     44 -0.166877D-02 -0.146277D-02 -0.101553D-01 -0.117955D-04  0.575964D-02
     45 -0.923327D-01 -0.421796D-02 -0.770188D-03 -0.152411D-01  0.746568D-02
     46 -0.484144D-02  0.258187D-02  0.664323D-03 -0.148841D-02  0.853129D-03
     47 -0.831291D-02  0.336590D-02 -0.599428D-02 -0.242375D-02  0.453665D-02
     48 -0.661897D-03 -0.454528D-02  0.557126D-02  0.139926D-02 -0.389671D-02
               11            12            13            14            15
     11  0.407134D+01
     12 -0.233770D+00  0.170998D+01
     13 -0.579045D-02  0.488305D-01  0.224242D+01
     14  0.969116D-01  0.281127D-01 -0.781617D+00  0.358208D+01
     15  0.524824D-01 -0.115885D+00  0.129039D+01  0.571513D+00  0.306708D+01
     16 -0.168463D-01  0.356172D-01  0.114889D-01 -0.198582D-02 -0.324903D-01
     17  0.168249D-03 -0.346277D-01 -0.145154D-01 -0.180556D-01  0.188498D-01
     18 -0.135466D-01  0.116650D-02 -0.195679D-01  0.664412D-02 -0.343697D-02
     19 -0.226233D-01  0.523074D-03 -0.179513D-02  0.267020D-03  0.139738D-03
     20  0.233837D-01 -0.751042D-02 -0.361807D-02 -0.199149D-02  0.387123D-02
     21  0.111566D-01 -0.279493D-01 -0.111508D-01 -0.649112D-03  0.938374D-02
     22 -0.415276D-02  0.121097D-01  0.106454D-01  0.101828D-02 -0.745808D-02
     23  0.620321D-03 -0.637447D-02 -0.522857D-02 -0.182303D-02  0.312832D-02
     24 -0.116276D-02  0.726619D-04 -0.873904D-03  0.183292D-03 -0.116608D-02
     25  0.174110D-02 -0.369211D-02 -0.124461D-02 -0.170966D-01 -0.133885D-02
     26 -0.113475D-03 -0.952422D-02 -0.365794D-01  0.180739D-01  0.119020D-01
     27 -0.177623D-02  0.780051D-02  0.554912D-02 -0.328958D-04 -0.174689D-01
     28  0.148294D-02  0.102478D+00  0.970826D-01  0.352201D-01 -0.265693D-01
     29 -0.430033D-01  0.880526D-02  0.326699D-01 -0.235274D-01 -0.831984D-02
     30  0.101369D-02  0.261536D-01 -0.720758D-02 -0.436320D-02 -0.291226D-01
     31  0.169322D-02  0.547802D-02  0.194924D-01  0.350612D-02 -0.420316D-02
     32 -0.437396D-03 -0.449529D-02 -0.580862D-02 -0.451433D-02  0.203781D-02
     33  0.112968D-02  0.345424D-02  0.610633D-02  0.146200D-02 -0.476471D-02
     34  0.183385D-01  0.546530D-01  0.707179D-01  0.268015D-01 -0.477391D-01
     35 -0.207409D-01  0.125901D-01  0.318076D-01 -0.161069D-01 -0.140217D-01
     36  0.150056D-02 -0.198932D-01 -0.473979D-01 -0.143457D-01  0.131735D-02
     37  0.134107D-01  0.393764D-01  0.516572D-01  0.427408D-01 -0.428764D-02
     38 -0.114661D-01  0.245186D-01  0.442561D-01 -0.146641D-02 -0.440971D-02
     39  0.197009D-01  0.348229D-01  0.242771D-01  0.125647D-01 -0.292148D-01
     40  0.406256D-02  0.104378D-01  0.792956D-02  0.570516D-02 -0.394135D-02
     41  0.180492D-02  0.870819D-02  0.761829D-02  0.335769D-02 -0.355830D-02
     42  0.913528D-03  0.327986D-04 -0.881007D-03 -0.739169D-03 -0.495139D-03
     43  0.120678D-01  0.212858D-01  0.194694D-01  0.155314D-01 -0.144746D-01
     44 -0.629564D-02  0.170493D-02  0.375017D-02 -0.255535D-02 -0.272646D-02
     45  0.327990D-02 -0.202329D-02 -0.368453D-02 -0.120669D-02 -0.632077D-02
     46  0.947021D-03 -0.106421D-03 -0.525039D-03  0.710367D-04  0.164201D-03
     47  0.914935D-03  0.430729D-02  0.394829D-02  0.161210D-02 -0.283113D-02
     48 -0.153019D-02 -0.540258D-02 -0.471400D-02 -0.255884D-02  0.282012D-02
               16            17            18            19            20
     16  0.152654D+02
     17 -0.128894D+00  0.111233D+02
     18  0.725652D-01 -0.951087D+00  0.159572D+02
     19 -0.385289D+01  0.167421D+00  0.853057D+00  0.371199D+01
     20  0.232582D+00 -0.404017D+01  0.656947D+00 -0.284140D+00  0.377967D+01
     21  0.836677D+00  0.451511D+00 -0.172759D+01 -0.919427D+00 -0.820005D+00
     22 -0.175040D+01 -0.788844D+00  0.152204D+00 -0.678178D-02  0.736009D-03
     23 -0.109910D+01 -0.403226D+01 -0.740995D-01  0.598795D-02  0.622325D-01
     24  0.123175D+00 -0.482594D-01 -0.430303D+01 -0.831425D-01  0.108845D-01
     25 -0.320160D+01  0.856422D+00 -0.891019D+00  0.952292D-01  0.468420D-02
     26  0.949237D+00 -0.303235D+01 -0.104949D+01 -0.345637D-02  0.902102D-01
     27 -0.872781D+00 -0.925624D+00 -0.302756D+01  0.447086D-01  0.480371D-01
     28  0.668698D-01  0.102386D+00  0.247654D-01 -0.149178D-01  0.497138D-01
     29  0.159470D+00  0.111380D+00  0.537814D-02  0.505688D-01  0.419965D-01
     30  0.216745D-01 -0.623610D-01 -0.674113D-01  0.434926D-01  0.747975D-01
     31  0.241810D-02  0.106272D-01 -0.119444D-01  0.553673D-02  0.517440D-02
     32 -0.835489D-02 -0.140247D-01 -0.188464D-01 -0.473464D-03 -0.234844D-02
     33 -0.707396D-02 -0.871367D-02 -0.336407D-01  0.599195D-02  0.395441D-02
     34 -0.159715D-01  0.491548D+00 -0.114395D+00  0.255564D-02  0.291625D-01
     35  0.492067D+00  0.301574D+00 -0.173676D+00  0.404019D-01  0.216766D-01
     36 -0.113820D+00 -0.154036D+00 -0.321953D+00  0.406506D-02  0.372834D-02
     37 -0.160981D+00  0.638665D-01  0.360985D-01 -0.103264D-01  0.252013D-02
     38  0.835913D-01  0.245605D+00  0.208936D+00  0.108508D-01  0.876533D-02
     39  0.536799D-01  0.224274D+00 -0.512556D-01  0.113489D-01  0.168369D-01
     40  0.659163D-03  0.114531D-01  0.466967D-02  0.229102D-02  0.379368D-02
     41  0.720049D-02  0.549524D-02  0.443596D-02  0.397633D-02  0.428311D-02
     42 -0.159081D-02 -0.258220D-02 -0.797843D-02  0.393001D-03  0.109324D-02
     43  0.454793D-04  0.996224D-01 -0.121130D-01  0.610422D-02  0.129241D-01
     44  0.113035D+00  0.408787D-01 -0.112206D-01  0.153409D-01  0.498422D-02
     45 -0.188331D-02 -0.372616D-03 -0.888355D-01  0.623301D-02  0.559493D-02
     46 -0.480974D-02  0.398027D-02 -0.483690D-03 -0.605130D-03  0.494218D-03
     47  0.143046D-01  0.122882D-01 -0.810053D-02  0.369850D-02  0.331003D-02
     48 -0.940394D-02 -0.106775D-01 -0.228807D-03 -0.239830D-02 -0.242944D-02
               21            22            23            24            25
     21  0.158037D+01
     22 -0.368947D-01  0.175666D+01
     23  0.102499D-01  0.111524D+01  0.357809D+01
     24  0.241439D-01 -0.138395D+00  0.668319D-01  0.434263D+01
     25  0.162696D-01 -0.593862D-01 -0.308688D-01  0.684867D-01  0.306311D+01
     26  0.534780D-01 -0.192205D-01  0.724403D-01  0.270285D-02 -0.993708D+00
     27 -0.981803D-01  0.326645D-01  0.335332D-03  0.512112D-01  0.860377D+00
     28  0.550796D-01 -0.168912D-01  0.193210D-01  0.404594D-02  0.680683D-02
     29  0.996995D-01 -0.365951D-01  0.182172D-01 -0.919961D-02  0.587378D-01
     30  0.423208D-01 -0.440146D-02 -0.960875D-02 -0.294550D-01 -0.323373D-02
     31  0.124239D-01 -0.214518D-01  0.275624D-01  0.126487D-01  0.124006D-01
     32 -0.194744D-02  0.965195D-02  0.146592D-01  0.192599D-01  0.422260D-02
     33  0.774918D-02 -0.860861D-03  0.324800D-01 -0.115850D-02  0.637874D-02
     34  0.323582D-01 -0.592421D-01  0.384470D-01 -0.711775D-02  0.106398D-01
     35  0.455528D-01 -0.408848D-01  0.105233D+00 -0.332324D-01  0.467880D-01
     36 -0.179517D-01  0.953615D-02 -0.373521D-01 -0.457888D-01 -0.255550D-01
     37  0.362559D-02 -0.879792D-02 -0.126389D-01 -0.260109D-02 -0.878202D-02
     38  0.296884D-01 -0.355632D-01  0.449899D-01  0.185905D-01  0.272446D-01
     39  0.172414D-01 -0.193354D-01  0.294828D-01 -0.117753D-01  0.886547D-02
     40  0.689083D-02 -0.634049D-02  0.450874D-02  0.346837D-03  0.349564D-02
     41  0.835058D-02 -0.741077D-02  0.562548D-02  0.620991D-03  0.510470D-02
     42 -0.271878D-03  0.568725D-03 -0.889157D-04 -0.824298D-03 -0.563399D-03
     43  0.141189D-01 -0.189181D-01  0.165161D-01 -0.316038D-02  0.765716D-02
     44  0.124709D-01 -0.794064D-02  0.229799D-01 -0.500691D-02  0.146818D-01
     45 -0.106815D-02 -0.279612D-02  0.536232D-04 -0.143796D-01 -0.186001D-02
     46 -0.765699D-03  0.482632D-03 -0.312947D-03  0.644012D-04 -0.888647D-03
     47  0.478673D-02 -0.438716D-02  0.548392D-02 -0.159609D-02  0.314957D-02
     48 -0.496633D-02  0.447927D-02 -0.447154D-02  0.171181D-03 -0.300094D-02
               26            27            28            29            30
     26  0.260350D+01
     27  0.107820D+01  0.302068D+01
     28  0.491572D-01 -0.105908D-01  0.231997D+02
     29  0.526705D-01 -0.193659D-01 -0.904888D+00  0.197619D+02
     30 -0.572766D-03 -0.256402D-01  0.104990D+01 -0.303105D+01  0.165438D+02
     31  0.156137D-01 -0.380447D-02 -0.311486D+01 -0.164851D+01  0.123774D+01
     32 -0.299787D-03  0.207493D-02 -0.165587D+01 -0.378001D+01 -0.104242D+01
     33  0.608727D-02 -0.589097D-02  0.134067D+01 -0.111176D+01 -0.427950D+01
     34  0.534258D-01 -0.264550D-01 -0.859361D+01  0.108043D+01 -0.235053D+01
     35  0.482118D-01 -0.379257D-01  0.110983D+01 -0.908746D+01 -0.233420D+01
     36 -0.371914D-01 -0.224412D-02 -0.220902D+01 -0.223809D+01  0.632215D+00
     37  0.133172D-01 -0.117383D-03 -0.895140D+01 -0.188250D+01 -0.164652D+01
     38  0.378853D-01 -0.615766D-02 -0.181438D+01 -0.204372D+01  0.514798D+01
     39  0.162358D-01 -0.173051D-01 -0.167157D+01  0.531491D+01 -0.626122D+01
     40  0.568679D-02 -0.291975D-02  0.126897D+00 -0.286532D-02  0.710785D-02
     41  0.648321D-02 -0.320831D-02 -0.114045D+00  0.344123D-01  0.612277D-01
     42 -0.346297D-03 -0.341205D-03 -0.615613D-01 -0.536081D-01  0.145805D+00
     43  0.122812D-01 -0.998408D-02 -0.399079D-02  0.860941D-01 -0.233638D+00
     44  0.660351D-02 -0.840249D-02  0.118114D+00 -0.232544D+00 -0.114296D+00
     45 -0.208661D-02 -0.659796D-02 -0.247184D+00 -0.105942D+00 -0.118959D+00
     46 -0.434477D-03  0.523586D-03 -0.750882D-02  0.234521D-01 -0.184085D-01
     47  0.346558D-02 -0.296898D-02  0.389769D-01  0.296149D-01 -0.455207D-01
     48 -0.383489D-02  0.246548D-02 -0.364490D-01 -0.472957D-01  0.134803D-01
               31            32            33            34            35
     31  0.274388D+01
     32  0.161049D+01  0.333096D+01
     33 -0.150494D+01  0.135619D+01  0.423462D+01
     34  0.355395D+00 -0.131930D+00  0.129637D+00  0.755208D+01
     35 -0.142544D+00  0.332735D+00  0.634277D-01 -0.367857D+01  0.978579D+01
     36  0.130793D+00  0.665972D-01 -0.352424D+00  0.334104D+01  0.210066D+01
     37  0.235132D+00  0.109931D+00  0.177764D+00 -0.110974D+00 -0.163015D+00
     38  0.117851D+00 -0.144185D+00 -0.284888D+00 -0.117170D+00 -0.120455D+00
     39  0.174223D+00 -0.294853D+00  0.142628D+00 -0.251188D+00  0.458797D+00
     40 -0.342801D-02  0.160319D-01 -0.362679D-02 -0.350844D-01  0.326126D-01
     41 -0.788489D-02 -0.180598D-01 -0.133282D-01 -0.102691D-01 -0.281699D-01
     42  0.240456D-02 -0.935966D-02  0.667492D-02 -0.112021D-01 -0.275489D-01
     43 -0.353665D-01  0.670127D-01 -0.571648D-01 -0.107271D+00  0.166802D+01
     44  0.137973D-01  0.129135D-01 -0.511300D-01  0.158336D+01 -0.774278D+00
     45 -0.174741D-01 -0.636274D-01  0.108825D-01  0.306031D+00  0.354052D+00
     46 -0.222992D-02  0.209311D-03 -0.682654D-03 -0.781645D-01 -0.226205D-01
     47 -0.515523D-02  0.952782D-02 -0.118973D-01  0.625372D-01  0.444581D-01
     48  0.641940D-02 -0.135063D-01  0.894215D-02 -0.660178D-01 -0.122117D+00
               36            37            38            39            40
     36  0.284386D+01
     37 -0.321013D+00  0.125220D+02
     38  0.377737D+00 -0.187080D+01  0.735913D+01
     39  0.702937D+00  0.218420D+01 -0.523165D+01  0.120676D+02
     40  0.616414D-01 -0.408822D+01  0.266994D+01 -0.904111D+00  0.404001D+01
     41  0.485978D-01  0.294406D+01 -0.424298D+01 -0.831486D+00 -0.293790D+01
     42 -0.294139D-01 -0.636272D+00 -0.493810D+00 -0.681855D+01  0.928173D+00
     43  0.195337D+00  0.191764D+00  0.159123D+00 -0.505928D+00 -0.106323D+00
     44  0.265727D+00  0.563981D-01 -0.400010D+00 -0.383919D-01  0.741990D-02
     45 -0.235584D+01 -0.564552D+00 -0.139375D+00  0.734445D-01 -0.191546D+00
     46  0.817352D-02 -0.817761D-02  0.767728D-02 -0.385619D-01 -0.535623D-03
     47 -0.579384D-01  0.372043D-01 -0.188820D-01 -0.519278D-01 -0.682987D-02
     48 -0.419683D-02 -0.807453D-01 -0.385384D-01  0.786076D-01  0.159718D-01
               41            42            43            44            45
     41  0.428278D+01
     42  0.505433D+00  0.672468D+01
     43 -0.922928D-01 -0.276473D+00  0.509878D+01
     44 -0.252223D+00  0.103802D-01 -0.183025D+01  0.599954D+01
     45  0.105994D+00  0.656800D-01 -0.810907D-01  0.204613D+01  0.626549D+01
     46 -0.113287D-04  0.106869D-01 -0.559734D+01 -0.566324D+00  0.927814D+00
     47 -0.134353D-02  0.104591D-02 -0.731214D+00 -0.441237D+01 -0.211326D+01
     48  0.111234D-01 -0.146498D-01  0.109655D+01 -0.204552D+01 -0.349890D+01
               46            47            48
     46  0.571258D+01
     47  0.566563D+00  0.433086D+01
     48 -0.894435D+00  0.229314D+01  0.341954D+01
 ReadGW:  IGet=0 IStart=         114 Next=        7248 LGW=        7134.
 ICntrl=12127.
 Symmetry not used in FoFDir.
 MinBra= 0 MaxBra= 2 Meth= 1.
 IRaf=       0 NMat=   1 IRICut=       1 DoRegI=T DoRafI=F ISym2E= 0 JSym2E=0.
 PrsmSu:  NPrtUS=   8 ThrOK=T
 PRISM was handed    16288883 working-precision words and  2433 shell-pairs
 PRISM was handed    16288883 working-precision words and  2433 shell-pairs
 PRISM was handed    16288883 working-precision words and  2433 shell-pairs
 PRISM was handed    16288883 working-precision words and  2433 shell-pairs
 PRISM was handed    16288883 working-precision words and  2433 shell-pairs
 PRISM was handed    16288883 working-precision words and  2433 shell-pairs
 PRISM was handed    16288883 working-precision words and  2433 shell-pairs
 PRISM was handed    16288883 working-precision words and  2433 shell-pairs
 Pruned (  75, 302) grid will be used in CalDFT.
 CkSvGd:  ISavGI=        -1 IRadAn=       4 IRASav=       4 ISavGd=        -1.
 CalDSu:  NPrtUS=   8 ThrOK=T
 IPart= 0 IRanGd=          0 ScrnBf=T ScrnGd=T RCrit=4.00D+00 DoMicB=T.
 IPart= 7 IRanGd=          0 ScrnBf=T ScrnGd=T RCrit=4.00D+00 DoMicB=T.
 IPart= 4 IRanGd=          0 ScrnBf=T ScrnGd=T RCrit=4.00D+00 DoMicB=T.
 CutRad = 1000.00    CtRdIn =    0.00    XCrit =  15.00   ICut = 0
 IPart= 3 IRanGd=          0 ScrnBf=T ScrnGd=T RCrit=4.00D+00 DoMicB=T.
 CutRad = 1000.00    CtRdIn =    0.00    XCrit =  15.00   ICut = 0
 CutRad = 1000.00    CtRdIn =    0.00    XCrit =  15.00   ICut = 0
 CutRad = 1000.00    CtRdIn =    0.00    XCrit =  15.00   ICut = 0
 IPart= 5 IRanGd=          0 ScrnBf=T ScrnGd=T RCrit=4.00D+00 DoMicB=T.
 IPart= 1 IRanGd=          0 ScrnBf=T ScrnGd=T RCrit=4.00D+00 DoMicB=T.
 IPart= 6 IRanGd=          0 ScrnBf=T ScrnGd=T RCrit=4.00D+00 DoMicB=T.
 CutRad = 1000.00    CtRdIn =    0.00    XCrit =  15.00   ICut = 0
 IPart= 2 IRanGd=          0 ScrnBf=T ScrnGd=T RCrit=4.00D+00 DoMicB=T.
 CutRad = 1000.00    CtRdIn =    0.00    XCrit =  15.00   ICut = 0
 CutRad = 1000.00    CtRdIn =    0.00    XCrit =  15.00   ICut = 0
 CutRad = 1000.00    CtRdIn =    0.00    XCrit =  15.00   ICut = 0
 IPart= 3        13891 of        16132 points in      34 batches and      103 microbatches, Max-NSigAt=      16 Max-NSgAt2=      16
 IPart= 6        12880 of        15052 points in      32 batches and       93 microbatches, Max-NSigAt=      16 Max-NSgAt2=      16
 IPart= 2        12870 of        14362 points in      29 batches and       99 microbatches, Max-NSigAt=      16 Max-NSgAt2=      16
 IPart= 0        15100 of        16900 points in      34 batches and      114 microbatches, Max-NSigAt=      16 Max-NSgAt2=      16
 IPart= 1        14795 of        16966 points in      37 batches and      109 microbatches, Max-NSigAt=      16 Max-NSgAt2=      16
 IPart= 5        14365 of        16460 points in      34 batches and       94 microbatches, Max-NSigAt=      16 Max-NSgAt2=      16
 IPart= 4        15662 of        18018 points in      38 batches and       96 microbatches, Max-NSigAt=      16 Max-NSgAt2=      16
 IPart= 7        13116 of        14192 points in      26 batches and       88 microbatches, Max-NSigAt=      16 Max-NSgAt2=      16
 Polarizability after L703:
                1             2             3
      1  0.905093D+02
      2  0.282441D+02  0.796719D+02
      3 -0.572214D+01 -0.422452D+01  0.510960D+02
 Dipole Derivatives after L703:
               1            2            3            4            5
      1 0.167656D+00-0.206368D+00 0.275231D+00-0.183237D+00-0.376299D-01
      2-0.204650D+00 0.286290D+00 0.243332D+00 0.487050D-01-0.126827D+00
      3-0.489011D-02 0.567346D-01-0.112039D+00-0.525814D-02-0.215497D-01
               6            7            8            9           10
      1-0.132074D-01 0.808074D-01 0.499552D-01-0.259724D-02 0.681295D-02
      2 0.120061D-02-0.267428D-01-0.343880D-01-0.189822D-01-0.144947D-01
      3 0.945007D-01 0.160899D-01-0.157195D-01 0.862760D-01-0.340225D-01
              11           12           13           14           15
      1 0.547276D-01-0.113513D+00-0.742953D-01-0.594313D-02 0.788707D-01
      2 0.886502D-01-0.431473D-01-0.741119D-01 0.621499D-01 0.581026D-01
      3-0.529875D-01-0.827517D-01 0.732109D-01 0.635415D-01 0.128198D-01
              16           17           18           19           20
      1-0.641256D-01 0.238753D-01 0.209924D-01 0.723777D-01-0.287089D-01
      2-0.901890D-01-0.146742D+00-0.193273D-01 0.262106D-01 0.162514D-01
      3-0.827845D-02-0.403236D-01 0.805632D-01-0.732072D-01 0.355339D-02
              21           22           23           24           25
      1-0.939380D-01-0.675910D-01 0.457305D-02-0.316659D-01 0.314625D-01
      2-0.852754D-01 0.909652D-01 0.263370D-01-0.150568D-01-0.435949D-01
      3-0.711200D-01-0.140617D-01 0.181790D-02 0.802225D-01 0.799272D-01
              26           27           28           29           30
      1-0.108428D+00 0.679451D-01 0.312174D+00-0.279543D+00 0.118473D+00
      2-0.615349D-01 0.550525D-01-0.225605D+00 0.702521D+00 0.251723D+00
      3 0.510408D-01 0.974451D-02 0.930758D-01 0.277669D+00 0.994640D+00
              31           32           33           34           35
      1-0.881377D-01 0.108704D+00-0.667240D-01 0.918444D+00 0.999446D+00
      2 0.125111D+00-0.813410D-01 0.256270D-01 0.100528D+01 0.376903D+00
      3-0.927201D-01 0.285768D-01-0.414528D-01-0.215634D+00-0.131434D+00
              36           37           38           39           40
      1-0.147346D+00-0.328730D+00 0.123660D+00-0.104630D+00 0.183357D+00
      2-0.152043D+00 0.131246D+00-0.786241D+00-0.292811D+00-0.708217D-01
      3-0.602138D+00-0.438609D-01-0.345123D+00-0.685691D+00 0.371113D-02
              41           42           43           44           45
      1 0.259171D-01 0.130041D+00-0.119753D+01-0.811362D+00 0.622610D-01
      2 0.300778D+00 0.121889D+00-0.692898D+00-0.922025D+00-0.110935D+00
      3-0.267747D-02 0.332379D+00 0.301145D+00 0.853832D-01-0.323323D+00
              46           47           48
      1 0.230555D+00 0.871253D-01-0.180194D+00
      2 0.155915D-01 0.299218D+00-0.193483D-01
      3-0.752270D-01 0.414970D-01 0.227370D+00
 Hessian after L703:
                1             2             3             4             5
      1  0.514339D+00
      2 -0.332890D-01  0.515156D+00
      3  0.102691D+00  0.102435D+00  0.198201D+00
      4 -0.182890D+00  0.575355D-01 -0.208953D-01  0.476549D+00
      5  0.634303D-01 -0.122207D+00  0.241604D-02  0.234962D-01  0.572619D+00
      6 -0.284264D-01 -0.267833D-03 -0.654340D-01  0.147422D-01  0.256594D-01
      7  0.335310D-02  0.310455D-01  0.767156D-02 -0.489583D-01 -0.258697D-01
      8  0.116076D-02 -0.149745D-01 -0.243597D-02 -0.202091D-01 -0.308043D+00
      9  0.334961D-02  0.370286D-02 -0.352357D-03 -0.643851D-02 -0.564104D-01
     10 -0.195186D-01 -0.412880D-02 -0.266266D-01 -0.682867D-01 -0.105170D-01
     11  0.483026D-02  0.356803D-02  0.140389D-01 -0.784045D-02 -0.531276D-01
     12 -0.427045D-02 -0.128769D-03 -0.433126D-03 -0.823129D-01 -0.330132D-01
     13 -0.261280D-01 -0.979620D-02  0.151276D-01 -0.151597D+00 -0.687930D-01
     14  0.810452D-02  0.716991D-02 -0.100864D-01 -0.625595D-01 -0.850426D-01
     15 -0.198745D-02 -0.326884D-02  0.363300D-02  0.102809D+00  0.630911D-01
     16 -0.905458D-01  0.251192D-01 -0.788460D-03  0.277761D-02  0.310945D-01
     17  0.182455D-01 -0.210183D+00 -0.400655D-01  0.596472D-02 -0.119001D-01
     18 -0.765869D-02 -0.445254D-01 -0.736200D-01 -0.470845D-03  0.267814D-02
     19  0.834866D-03 -0.381933D-02  0.258060D-02 -0.261333D-03 -0.896958D-04
     20 -0.149331D-01 -0.118706D-01 -0.301609D-01 -0.103191D-02  0.143634D-02
     21 -0.343795D-02 -0.491340D-02 -0.444131D-02 -0.275570D-03  0.466641D-03
     22 -0.154567D-02  0.126769D-02  0.639083D-04  0.127947D-02  0.599613D-03
     23  0.324589D-01 -0.109387D-01  0.359514D-02 -0.178266D-02 -0.554040D-02
     24  0.832138D-02 -0.442506D-03 -0.741736D-03 -0.661899D-03 -0.139452D-02
     25  0.162654D-02 -0.288958D-02 -0.392088D-02 -0.916742D-03 -0.315189D-03
     26 -0.182769D-01 -0.232148D-01  0.162972D-01  0.135948D-04  0.148438D-02
     27 -0.581539D-02 -0.385484D-02  0.641322D-02  0.632437D-04  0.221536D-03
     28 -0.177778D+00 -0.453972D-01 -0.539207D-01 -0.215852D-01 -0.109656D-01
     29 -0.508320D-01 -0.100561D+00 -0.311993D-01  0.594988D-02  0.117933D-01
     30 -0.785920D-01 -0.532359D-01 -0.501830D-01 -0.309755D-02  0.949660D-03
     31 -0.210109D-01  0.117210D-01 -0.101348D-01 -0.467466D-03 -0.246270D-02
     32 -0.125647D-01  0.814125D-02 -0.581593D-02 -0.135586D-02 -0.168952D-02
     33 -0.299498D-02  0.150686D-02  0.184063D-02  0.237028D-03 -0.310348D-03
     34  0.115974D-01  0.188137D-01 -0.247832D-01 -0.359939D-02  0.273268D-02
     35  0.180712D-01  0.855717D-02 -0.199042D-01  0.123364D-02  0.472016D-02
     36  0.220777D-01  0.193767D-01 -0.104709D-01 -0.340196D-02 -0.303168D-02
     37  0.995028D-02 -0.232059D-01 -0.127201D-01 -0.131724D-02  0.170559D-02
     38  0.117719D-02 -0.290117D-01 -0.184128D-01  0.111332D-02 -0.157652D-02
     39 -0.376413D-02 -0.961197D-02 -0.358186D-02 -0.811877D-03 -0.110259D-02
     40 -0.803865D-03 -0.382698D-03  0.156160D-02  0.755265D-04 -0.614245D-03
     41  0.308755D-02 -0.378944D-02 -0.614348D-03  0.524991D-03  0.354947D-03
     42  0.377231D-03 -0.516286D-02 -0.377518D-02  0.499073D-03 -0.919034D-04
     43 -0.211559D-01 -0.226146D-01  0.226288D-01 -0.764199D-03 -0.327713D-02
     44 -0.194880D-01 -0.155749D-01  0.199587D-01 -0.114756D-02 -0.333410D-02
     45 -0.446945D-03 -0.149403D-02  0.211627D-02  0.141365D-03 -0.578090D-05
     46 -0.324204D-03  0.207049D-04  0.146522D-02 -0.376988D-04 -0.154656D-03
     47 -0.118237D-02 -0.265986D-03 -0.459333D-04  0.952509D-04  0.529053D-04
     48  0.577563D-03 -0.115406D-03  0.829344D-03 -0.125287D-03 -0.122199D-03
                6             7             8             9            10
      6  0.513592D+00
      7 -0.641260D-02  0.543374D-01
      8 -0.547009D-01  0.222534D-01  0.334413D+00
      9 -0.599926D-01  0.588860D-02  0.605939D-01  0.593235D-01
     10 -0.844581D-01 -0.188821D-02 -0.333992D-03 -0.166898D-02  0.820323D-01
     11 -0.307614D-01 -0.971830D-02 -0.114664D-03 -0.286038D-01  0.992408D-02
     12 -0.264090D+00 -0.626302D-03 -0.149368D-03 -0.424223D-02  0.916045D-01
     13  0.108101D+00 -0.163481D-02 -0.952735D-03  0.914508D-03  0.779426D-02
     14  0.611891D-01 -0.204448D-01 -0.104685D-01  0.206486D-01  0.251687D-02
     15 -0.135656D+00 -0.559611D-02 -0.219503D-02  0.426019D-02  0.205011D-01
     16  0.626308D-02 -0.554161D-02  0.282499D-02 -0.108278D-02  0.677981D-03
     17 -0.376274D-02  0.935282D-03  0.544474D-03 -0.187631D-03 -0.148833D-02
     18  0.171789D-02 -0.120200D-02  0.510076D-03  0.118148D-02 -0.222519D-04
     19  0.356155D-03 -0.280106D-04 -0.106785D-03 -0.825411D-04  0.381612D-03
     20  0.154541D-03 -0.313129D-03  0.113899D-03  0.443615D-03  0.704409D-03
     21  0.672259D-03 -0.393128D-04  0.457127D-05  0.306354D-03  0.595976D-03
     22  0.214368D-03 -0.263380D-03 -0.132624D-03 -0.161929D-03  0.560346D-04
     23 -0.206156D-02  0.166304D-02 -0.687806D-03  0.153028D-03 -0.292300D-03
     24  0.877673D-03  0.248722D-03 -0.283741D-03  0.542028D-03  0.400146D-03
     25  0.336665D-03  0.102730D-03 -0.160830D-03 -0.357268D-04  0.183894D-03
     26 -0.110116D-03 -0.116335D-03  0.251119D-03 -0.578380D-03 -0.345316D-04
     27  0.433045D-03 -0.204084D-03  0.702151D-04  0.809769D-05  0.178293D-03
     28 -0.806595D-02 -0.234740D-03 -0.615862D-03 -0.624569D-03 -0.147679D-02
     29  0.953689D-02  0.280215D-02 -0.189099D-02  0.694135D-03  0.432477D-02
     30  0.824238D-03  0.155124D-02 -0.952951D-03  0.155260D-02 -0.195746D-02
     31 -0.264632D-02  0.545015D-03  0.169633D-03  0.214627D-03 -0.116533D-02
     32 -0.111775D-02 -0.166072D-03  0.134995D-03 -0.215429D-03 -0.712521D-03
     33 -0.349410D-03 -0.277915D-03 -0.794238D-04 -0.335687D-03 -0.123419D-03
     34 -0.288254D-02  0.243999D-02 -0.183437D-02  0.739345D-03  0.143518D-02
     35 -0.961269D-02  0.105266D-02 -0.523248D-03  0.806423D-03  0.132598D-03
     36  0.612213D-02 -0.507817D-03 -0.975644D-05 -0.950217D-03  0.131178D-02
     37 -0.136657D-02 -0.441912D-03 -0.272445D-02 -0.628461D-03  0.266138D-03
     38  0.107738D-02 -0.119067D-02  0.262222D-03 -0.113042D-03  0.278394D-03
     39  0.100865D-02 -0.234034D-03 -0.470784D-03 -0.135380D-02  0.171607D-03
     40 -0.427130D-03 -0.335358D-03 -0.222332D-03  0.136313D-03 -0.583447D-05
     41  0.591554D-03 -0.573513D-03  0.283783D-03 -0.463191D-03  0.897273D-04
     42 -0.419521D-03  0.976892D-04 -0.906578D-04  0.358526D-03  0.373013D-05
     43  0.502458D-02 -0.130300D-02  0.857176D-03 -0.644004D-03 -0.349059D-03
     44  0.415332D-02 -0.136369D-02  0.697908D-03 -0.492590D-03 -0.443907D-03
     45  0.777902D-03 -0.402286D-03  0.140392D-03 -0.291212D-03  0.192976D-03
     46 -0.352368D-03 -0.148917D-03  0.272002D-04  0.124498D-03 -0.136861D-03
     47  0.328134D-04  0.424130D-05  0.108609D-05  0.218715D-04 -0.195015D-04
     48 -0.843009D-04  0.446560D-04  0.493928D-04 -0.146045D-04 -0.103322D-03
               11            12            13            14            15
     11  0.500058D-01
     12  0.342469D-01  0.289201D+00
     13  0.405874D-02 -0.631744D-02  0.171811D+00
     14  0.116536D-02 -0.258714D-02  0.726953D-01  0.881192D-01
     15  0.126264D-01 -0.205726D-01 -0.115403D+00 -0.701845D-01  0.149620D+00
     16 -0.404082D-03  0.614385D-04  0.103097D-02 -0.103499D-02  0.916749D-05
     17  0.343116D-03 -0.328767D-03 -0.690426D-03 -0.549196D-03 -0.118475D-03
     18  0.408091D-03  0.555255D-03 -0.186517D-03  0.391760D-03  0.546188D-03
     19  0.254586D-03  0.112988D-04  0.675490D-04  0.237316D-03  0.140946D-03
     20 -0.257943D-03  0.405824D-03 -0.514857D-05  0.722768D-04  0.172691D-03
     21 -0.446548D-03  0.245368D-03 -0.503479D-04  0.547752D-04 -0.106886D-03
     22 -0.190645D-03  0.432771D-04  0.181794D-03 -0.220295D-03 -0.585654D-04
     23  0.167534D-03  0.162870D-04 -0.369705D-04  0.220738D-03 -0.193004D-03
     24 -0.305514D-03  0.268459D-03 -0.521887D-03  0.191650D-03  0.371686D-04
     25  0.225866D-03  0.476808D-04  0.124951D-03  0.385727D-03  0.687900D-04
     26 -0.350205D-04 -0.466384D-04  0.871310D-03 -0.345610D-03 -0.287630D-03
     27  0.580388D-04 -0.134134D-03 -0.124073D-03  0.647398D-04  0.131817D-03
     28  0.316086D-03  0.119158D-02 -0.263107D-02  0.117882D-02 -0.853516D-03
     29 -0.269344D-02  0.962020D-03  0.107283D-02 -0.625398D-03  0.133888D-03
     30 -0.156549D-02 -0.117220D-02  0.179685D-02 -0.424274D-03 -0.143714D-02
     31  0.439307D-03 -0.167291D-03 -0.231181D-03  0.610423D-04 -0.106601D-03
     32  0.306322D-03 -0.626154D-04 -0.188064D-03  0.117079D-03 -0.185732D-03
     33  0.254622D-03  0.293768D-04 -0.921389D-04  0.142336D-04  0.123067D-04
     34 -0.121527D-02  0.235592D-02  0.401381D-02 -0.253623D-02  0.932494D-03
     35 -0.682890D-03  0.169014D-02  0.502575D-02 -0.206125D-02  0.950816D-03
     36 -0.240641D-03  0.549325D-03 -0.249075D-02  0.791350D-03 -0.102687D-03
     37 -0.172693D-02 -0.200854D-03  0.393280D-03 -0.735643D-03  0.147569D-04
     38  0.341771D-03  0.319568D-04 -0.258180D-03  0.617668D-03 -0.859093D-04
     39  0.223528D-03 -0.662854D-05 -0.701571D-03 -0.283939D-03 -0.209800D-03
     40  0.729001D-04  0.221002D-04 -0.658480D-04  0.234061D-03  0.601879D-04
     41  0.243241D-03  0.873117D-04  0.220760D-04 -0.132091D-03 -0.273355D-04
     42 -0.281681D-03  0.741307D-04  0.224810D-03 -0.556363D-04 -0.304255D-05
     43  0.980279D-03 -0.146700D-02 -0.310359D-02  0.204477D-02 -0.540596D-03
     44  0.862755D-03 -0.119882D-02 -0.303593D-02  0.180264D-02 -0.422498D-03
     45  0.254967D-03 -0.202157D-03 -0.164729D-03  0.218255D-03 -0.166927D-03
     46 -0.643894D-05  0.245115D-04 -0.257990D-04  0.730508D-04  0.933871D-05
     47 -0.923048D-04  0.748181D-04  0.106102D-04 -0.602447D-04 -0.602495D-05
     48  0.936643D-04 -0.702970D-04 -0.112392D-03  0.573909D-04  0.152315D-04
               16            17            18            19            20
     16  0.574893D+00
     17 -0.191213D-01  0.476458D+00
     18  0.178613D-01  0.335768D-02  0.510858D+00
     19 -0.746231D-01 -0.798084D-02 -0.794437D-01  0.761665D-01
     20 -0.104149D-01 -0.487131D-01 -0.422537D-01  0.146305D-01  0.582689D-01
     21 -0.813637D-01 -0.400440D-01 -0.264598D+00  0.883748D-01  0.457748D-01
     22 -0.291349D+00  0.774612D-01 -0.175928D-01 -0.852318D-02  0.201388D-02
     23  0.730857D-01 -0.706998D-01  0.331931D-02 -0.561339D-02  0.872276D-03
     24 -0.182065D-01  0.304763D-02 -0.488961D-01 -0.283905D-01  0.922828D-02
     25 -0.119764D+00 -0.701415D-01  0.864478D-01  0.553879D-02  0.609760D-02
     26 -0.764359D-01 -0.118788D+00  0.896660D-01  0.288633D-02  0.328311D-02
     27  0.854513D-01  0.829198D-01 -0.134270D+00  0.172413D-01  0.170696D-01
     28  0.591127D-02 -0.194308D-02  0.687747D-02 -0.191854D-03  0.441213D-02
     29 -0.175844D-01 -0.142703D-01 -0.120864D-01 -0.610207D-04 -0.227370D-02
     30 -0.330092D-02 -0.355043D-02  0.100910D-02 -0.184979D-02 -0.139668D-02
     31 -0.670613D-04  0.988047D-03  0.168034D-02  0.519422D-03 -0.249480D-04
     32 -0.902582D-03  0.114354D-02 -0.166069D-03  0.548118D-04  0.150255D-03
     33 -0.107776D-02  0.260553D-03  0.238015D-03  0.325026D-03 -0.134031D-03
     34  0.328704D-02 -0.162123D-02 -0.876053D-02 -0.399646D-03  0.104143D-02
     35  0.538067D-03 -0.410647D-02 -0.152959D-02 -0.338412D-03  0.123740D-02
     36 -0.235360D-02 -0.216984D-02  0.482572D-02  0.195810D-03  0.106961D-02
     37 -0.275009D-02 -0.900846D-03 -0.237048D-02 -0.137825D-03 -0.128163D-02
     38 -0.344312D-02  0.505761D-03 -0.287965D-02 -0.478374D-03 -0.144064D-02
     39 -0.587854D-03  0.755105D-03  0.398946D-03  0.438814D-03 -0.158207D-03
     40 -0.373797D-04  0.202191D-03  0.742001D-04  0.152336D-03 -0.310503D-04
     41 -0.519159D-03  0.248640D-04 -0.845549D-03 -0.355136D-04 -0.332978D-03
     42 -0.568968D-03 -0.101080D-04 -0.801771D-03 -0.175319D-03 -0.235972D-03
     43 -0.383883D-02  0.339316D-04  0.485368D-02  0.482971D-03 -0.818163D-03
     44 -0.296424D-02  0.111973D-03  0.396025D-02  0.555224D-03 -0.556983D-03
     45  0.143399D-04  0.270214D-04  0.743018D-03  0.227953D-03  0.136407D-03
     46 -0.615041D-04  0.567218D-04 -0.870084D-04  0.209310D-04 -0.459023D-04
     47  0.162363D-03  0.785751D-04 -0.495076D-05 -0.954103D-04  0.115514D-04
     48 -0.330001D-03 -0.130287D-03  0.111866D-03  0.491469D-04 -0.115824D-03
               21            22            23            24            25
     21  0.289000D+00
     22  0.462166D-04  0.314322D+00
     23  0.650000D-03 -0.832620D-01  0.786984D-01
     24 -0.228711D-03  0.191363D-01 -0.301402D-02  0.473443D-01
     25 -0.650996D-02 -0.151348D-01 -0.173108D-01  0.191253D-01  0.127733D+00
     26 -0.247908D-02  0.465446D-02  0.568725D-02 -0.680474D-02  0.848430D-01
     27 -0.202454D-01 -0.171456D-02 -0.257928D-02  0.121126D-02 -0.952639D-01
     28  0.214110D-02 -0.169746D-03  0.221414D-02  0.886842D-03 -0.750689D-04
     29  0.775390D-03 -0.160739D-02 -0.431974D-03 -0.992521D-03 -0.293015D-03
     30 -0.796097D-03 -0.480365D-03  0.880607D-03  0.104332D-02 -0.195665D-03
     31 -0.796916D-05  0.829654D-03 -0.931151D-03 -0.402211D-03  0.263087D-04
     32  0.182119D-03  0.229374D-03  0.181482D-03  0.109879D-03 -0.115160D-03
     33 -0.709698D-04  0.921570D-04 -0.666320D-03 -0.340078D-03  0.103416D-03
     34  0.224497D-02 -0.543039D-03  0.178007D-02  0.838413D-03  0.669485D-04
[...]
    Y7       -6.97950   0.00000   0.00000   0.00012   0.00013  -6.97938
    Z7       -1.48211   0.00000   0.00000   0.00006   0.00004  -1.48207
    X8        0.76277   0.00000   0.00000   0.00022   0.00016   0.76293
    Y8       -7.23918   0.00000   0.00000   0.00037   0.00034  -7.23884
    Z8        0.56378   0.00000   0.00000  -0.00049  -0.00052   0.56326
    X9       -2.34229   0.00000   0.00000   0.00053   0.00046  -2.34183
    Y9       -7.77865   0.00000   0.00000  -0.00008  -0.00007  -7.77871
    Z9        1.71089   0.00000   0.00000   0.00013   0.00011   1.71100
   X10        0.76465   0.00000   0.00000  -0.00009  -0.00008   0.76457
   Y10       -2.45133   0.00000   0.00000   0.00013   0.00009  -2.45124
   Z10        2.00193   0.00000   0.00000   0.00006   0.00003   2.00196
   X11        2.23587   0.00000   0.00000  -0.00014  -0.00014   2.23573
   Y11       -3.61908   0.00000   0.00000   0.00019   0.00013  -3.61895
   Z11        2.89141   0.00000   0.00000   0.00023   0.00019   2.89160
   X12        1.36629   0.00000   0.00000   0.00000   0.00002   1.36631
   Y12       -1.85159   0.00000   0.00000  -0.00014  -0.00018  -1.85177
   Z12       -0.47626   0.00000   0.00000   0.00002  -0.00002  -0.47628
   X13        0.19122   0.00000   0.00000  -0.00015  -0.00011   0.19111
   Y13       -0.34474  -0.00001   0.00000   0.00025   0.00022  -0.34452
   Z13        3.48207   0.00000   0.00000  -0.00015  -0.00017   3.48189
   X14        1.54111   0.00000   0.00000   0.00014   0.00021   1.54132
   Y14        0.83064   0.00000   0.00000   0.00004   0.00000   0.83064
   Z14        3.09052   0.00000   0.00000   0.00026   0.00023   3.09075
   X15        3.96365   0.00000   0.00000   0.00027   0.00031   3.96396
   Y15        0.16354   0.00000   0.00000  -0.00045  -0.00054   0.16300
   Z15       -0.18227   0.00000   0.00000  -0.00020  -0.00025  -0.18251
   X16        3.43328   0.00000   0.00000  -0.00005   0.00000   3.43329
   Y16        1.20591   0.00001   0.00000  -0.00002  -0.00009   1.20582
   Z16       -1.58656   0.00000   0.00000   0.00024   0.00020  -1.58636
         Item               Value     Threshold  Converged?
 Maximum Force            0.000006     0.000450     YES
 RMS     Force            0.000002     0.000300     YES
 Maximum Displacement     0.000645     0.001800     YES
 RMS     Displacement     0.000246     0.001200     YES
 Predicted change in Energy=-9.829740D-10
 Optimization completed.
    -- Stationary point found.
 GradGradGradGradGradGradGradGradGradGradGradGradGradGradGradGradGradGrad


 Test job not archived.
 1\1\GINC-NODE63\Freq\UB3LYP\CBSB7\C4H9O3(2)\NYEE\15-Jul-2014\0\\# freq
  nosymm b3lyp/cbsb7 iop(7/33=1)\\Title Card Required\\0,2\C,-0.780559,
 -2.061838,0.590249\C,-2.083993,-1.371468,0.413755\H,-1.997632,-0.31100
 2,0.640508\H,-2.473728,-1.507205,-0.601176\H,-2.827177,-1.809356,1.095
 534\C,-0.632028,-3.496869,0.229437\H,-0.99717,-3.693394,-0.784298\H,0.
 40364,-3.830807,0.298341\H,-1.239488,-4.116282,0.905364\C,0.404633,-1.
 297188,1.059375\H,1.183172,-1.915136,1.530068\O,0.723009,-0.979819,-0.
 252026\O,0.101188,-0.182429,1.842631\H,0.815522,0.439556,1.635435\O,2.
 097474,0.086539,-0.096451\H,1.816816,0.638138,-0.839572\\Version=AM64L
 -G03RevD.01\HF=-383.4694889\S2=0.793846\S2-1=0.\S2A=0.750237\RMSD=4.56
 1e-09\RMSF=2.423e-06\ZeroPoint=0.1274389\Thermal=0.1367439\Dipole=-0.7
 908876,-0.4932959,-0.215812\DipoleDeriv=0.1676565,-0.2046497,-0.004890
 1,-0.2063682,0.2862902,0.0567346,0.2752313,0.2433322,-0.1120393,-0.183
 237,0.048705,-0.0052581,-0.0376299,-0.1268268,-0.0215497,-0.0132074,0.
 0012006,0.0945007,0.0808074,-0.0267428,0.0160899,0.0499552,-0.034388,-
 0.0157195,-0.0025972,-0.0189822,0.086276,0.0068129,-0.0144947,-0.03402
 25,0.0547276,0.0886502,-0.0529875,-0.1135127,-0.0431473,-0.0827517,-0.
 0742953,-0.0741119,0.0732109,-0.0059431,0.0621499,0.0635415,0.0788707,
 0.0581026,0.0128198,-0.0641256,-0.090189,-0.0082785,0.0238753,-0.14674
 21,-0.0403236,0.0209924,-0.0193273,0.0805632,0.0723777,0.0262106,-0.07
 32072,-0.0287089,0.0162514,0.0035534,-0.093938,-0.0852754,-0.07112,-0.
 067591,0.0909652,-0.0140617,0.0045731,0.026337,0.0018179,-0.0316659,-0
 .0150568,0.0802225,0.0314625,-0.0435949,0.0799272,-0.1084281,-0.061534
 9,0.0510408,0.0679451,0.0550525,0.0097445,0.3121736,-0.2256053,0.09307
 58,-0.2795433,0.7025205,0.2776694,0.1184729,0.2517225,0.9946397,-0.088
 1377,0.1251106,-0.0927201,0.1087036,-0.081341,0.0285768,-0.066724,0.02
 5627,-0.0414528,0.918444,1.0052787,-0.2156342,0.9994463,0.376903,-0.13
 14338,-0.1473455,-0.1520432,-0.6021381,-0.3287302,0.1312463,-0.0438609
 ,0.1236599,-0.7862405,-0.345123,-0.1046304,-0.2928111,-0.6856912,0.183
 3568,-0.0708217,0.0037111,0.0259171,0.3007778,-0.0026775,0.1300414,0.1
 218891,0.3323792,-1.19753,-0.6928979,0.3011453,-0.8113619,-0.9220248,0
 .0853832,0.062261,-0.1109349,-0.3233229,0.2305554,0.0155915,-0.075227,
 0.0871253,0.2992181,0.041497,-0.1801936,-0.0193483,0.2273704\Polar=90.
 509252,28.2441163,79.6719447,-5.7221354,-4.2245167,51.0960304\PG=C01 [
 X(C4H9O3)]\NImag=1\\0.51433905,-0.03328904,0.51515587,0.10269085,0.102
 43542,0.19820090,-0.18289003,0.05753551,-0.02089533,0.47654924,0.06343
 026,-0.12220688,0.00241604,0.02349617,0.57261869,-0.02842635,-0.000267
 83,-0.06543401,0.01474217,0.02565941,0.51359213,0.00335310,0.03104547,
 0.00767156,-0.04895833,-0.02586967,-0.00641260,0.05433743,0.00116076,-
 0.01497450,-0.00243597,-0.02020915,-0.30804290,-0.05470090,0.02225337,
 0.33441307,0.00334961,0.00370286,-0.00035236,-0.00643851,-0.05641037,-
 0.05999263,0.00588860,0.06059394,0.05932347,-0.01951862,-0.00412880,-0
 .02662659,-0.06828672,-0.01051696,-0.08445809,-0.00188821,-0.00033399,
 -0.00166898,0.08203232,0.00483026,0.00356803,0.01403886,-0.00784045,-0
 .05312762,-0.03076144,-0.00971830,-0.00011466,-0.02860381,0.00992408,0
 .05000576,-0.00427045,-0.00012877,-0.00043313,-0.08231294,-0.03301317,
 -0.26408966,-0.00062630,-0.00014937,-0.00424223,0.09160448,0.03424693,
 0.28920110,-0.02612802,-0.00979620,0.01512763,-0.15159749,-0.06879298,
 0.10810090,-0.00163481,-0.00095273,0.00091451,0.00779426,0.00405874,-0
 .00631744,0.17181119,0.00810452,0.00716991,-0.01008640,-0.06255949,-0.
 08504263,0.06118914,-0.02044485,-0.01046845,0.02064857,0.00251687,0.00
 116536,-0.00258714,0.07269532,0.08811920,-0.00198745,-0.00326884,0.003
 63300,0.10280888,0.06309114,-0.13565639,-0.00559611,-0.00219503,0.0042
 6019,0.02050113,0.01262642,-0.02057258,-0.11540285,-0.07018448,0.14961
 955,-0.09054583,0.02511917,-0.00078846,0.00277761,0.03109450,0.0062630
 8,-0.00554161,0.00282499,-0.00108278,0.00067798,-0.00040408,0.00006144
 ,0.00103097,-0.00103499,0.00000917,0.57489272,0.01824547,-0.21018345,-
 0.04006554,0.00596472,-0.01190013,-0.00376274,0.00093528,0.00054447,-0
 .00018763,-0.00148833,0.00034312,-0.00032877,-0.00069043,-0.00054920,-
 0.00011847,-0.01912128,0.47645836,-0.00765869,-0.04452540,-0.07361996,
 -0.00047085,0.00267814,0.00171789,-0.00120200,0.00051008,0.00118148,-0
 .00002225,0.00040809,0.00055525,-0.00018652,0.00039176,0.00054619,0.01
 786128,0.00335768,0.51085786,0.00083487,-0.00381933,0.00258060,-0.0002
 6133,-0.00008970,0.00035615,-0.00002801,-0.00010679,-0.00008254,0.0003
 8161,0.00025459,0.00001130,0.00006755,0.00023732,0.00014095,-0.0746231
 3,-0.00798084,-0.07944373,0.07616650,-0.01493314,-0.01187063,-0.030160
 94,-0.00103191,0.00143634,0.00015454,-0.00031313,0.00011390,0.00044362
 ,0.00070441,-0.00025794,0.00040582,-0.00000515,0.00007228,0.00017269,-
 0.01041492,-0.04871310,-0.04225371,0.01463050,0.05826888,-0.00343795,-
 0.00491340,-0.00444131,-0.00027557,0.00046664,0.00067226,-0.00003931,0
 .00000457,0.00030635,0.00059598,-0.00044655,0.00024537,-0.00005035,0.0
 0005478,-0.00010689,-0.08136374,-0.04004402,-0.26459787,0.08837485,0.0
 4577483,0.28900030,-0.00154567,0.00126769,0.00006391,0.00127947,0.0005
 9961,0.00021437,-0.00026338,-0.00013262,-0.00016193,0.00005603,-0.0001
 9064,0.00004328,0.00018179,-0.00022030,-0.00005857,-0.29134851,0.07746
 120,-0.01759275,-0.00852318,0.00201388,0.00004622,0.31432164,0.0324589
 3,-0.01093873,0.00359514,-0.00178266,-0.00554040,-0.00206156,0.0016630
 4,-0.00068781,0.00015303,-0.00029230,0.00016753,0.00001629,-0.00003697
 ,0.00022074,-0.00019300,0.07308565,-0.07069981,0.00331931,-0.00561339,
 0.00087228,0.00065000,-0.08326199,0.07869835,0.00832138,-0.00044251,-0
 .00074174,-0.00066190,-0.00139452,0.00087767,0.00024872,-0.00028374,0.
 00054203,0.00040015,-0.00030551,0.00026846,-0.00052189,0.00019165,0.00
 003717,-0.01820647,0.00304763,-0.04889612,-0.02839055,0.00922828,-0.00
 022871,0.01913630,-0.00301402,0.04734431,0.00162654,-0.00288958,-0.003
 92088,-0.00091674,-0.00031519,0.00033666,0.00010273,-0.00016083,-0.000
 03573,0.00018389,0.00022587,0.00004768,0.00012495,0.00038573,0.0000687
 9,-0.11976365,-0.07014153,0.08644785,0.00553879,0.00609760,-0.00650996
 ,-0.01513483,-0.01731085,0.01912528,0.12773301,-0.01827686,-0.02321481
 ,0.01629719,0.00001359,0.00148438,-0.00011012,-0.00011634,0.00025112,-
 0.00057838,-0.00003453,-0.00003502,-0.00004664,0.00087131,-0.00034561,
 -0.00028763,-0.07643593,-0.11878821,0.08966602,0.00288633,0.00328311,-
 0.00247908,0.00465446,0.00568725,-0.00680474,0.08484305,0.13335139,-0.
 00581539,-0.00385484,0.00641322,0.00006324,0.00022154,0.00043305,-0.00
 020408,0.00007022,0.00000810,0.00017829,0.00005804,-0.00013413,-0.0001
 2407,0.00006474,0.00013182,0.08545125,0.08291984,-0.13426962,0.0172413
 3,0.01706956,-0.02024540,-0.00171456,-0.00257928,0.00121126,-0.0952639
 3,-0.09385064,0.14839523,-0.17777810,-0.04539716,-0.05392071,-0.021585
 22,-0.01096558,-0.00806595,-0.00023474,-0.00061586,-0.00062457,-0.0014
 7679,0.00031609,0.00119158,-0.00263107,0.00117882,-0.00085352,0.005911
 27,-0.00194308,0.00687747,-0.00019185,0.00441213,0.00214110,-0.0001697
 5,0.00221414,0.00088684,-0.00007507,0.00004866,-0.00010929,0.53969576,
 -0.05083199,-0.10056121,-0.03119928,0.00594988,0.01179327,0.00953689,0
 .00280215,-0.00189099,0.00069414,0.00432477,-0.00269344,0.00096202,0.0
 0107283,-0.00062540,0.00013389,-0.01758444,-0.01427031,-0.01208641,-0.
 00006102,-0.00227370,0.00077539,-0.00160739,-0.00043197,-0.00099252,-0
 .00029301,-0.00185332,-0.00025333,-0.04593869,0.54325983,-0.07859199,-
 0.05323595,-0.05018296,-0.00309755,0.00094966,0.00082424,0.00155124,-0
 .00095295,0.00155260,-0.00195746,-0.00156549,-0.00117220,0.00179685,-0
 .00042427,-0.00143714,-0.00330092,-0.00355043,0.00100910,-0.00184979,-
 0.00139668,-0.00079610,-0.00048036,0.00088061,0.00104332,-0.00019567,0
 .00149710,-0.00139519,0.11600342,0.01134812,0.44541906,-0.02101094,0.0
 1172102,-0.01013484,-0.00046747,-0.00246270,-0.00264632,0.00054502,0.0
 0016963,0.00021463,-0.00116533,0.00043931,-0.00016729,-0.00023118,0.00
 006104,-0.00010660,-0.00006706,0.00098805,0.00168034,0.00051942,-0.000
 02495,-0.00000797,0.00082965,-0.00093115,-0.00040221,0.00002631,-0.000
 24824,-0.00016542,-0.17881548,0.09025996,-0.07866983,0.18587870,-0.012
 56473,0.00814125,-0.00581593,-0.00135586,-0.00168952,-0.00111775,-0.00
 016607,0.00013499,-0.00021543,-0.00071252,0.00030632,-0.00006262,-0.00
 018806,0.00011708,-0.00018573,-0.00090258,0.00114354,-0.00016607,0.000
 05481,0.00015026,0.00018212,0.00022937,0.00018148,0.00010988,-0.000115
 16,0.00009192,0.00005739,0.08633496,-0.11767767,0.05092516,-0.10397594
 ,0.13882478,-0.00299498,0.00150686,0.00184063,0.00023703,-0.00031035,-
 0.00034941,-0.00027792,-0.00007942,-0.00033569,-0.00012342,0.00025462,
 0.00002938,-0.00009214,0.00001423,0.00001231,-0.00107776,0.00026055,0.
 00023802,0.00032503,-0.00013403,-0.00007097,0.00009216,-0.00066632,-0.
 00034008,0.00010342,-0.00030152,-0.00011088,-0.07389446,0.05387288,-0.
 08140957,0.07968827,-0.05562362,0.11007081,0.01159739,0.01881374,-0.02
 478323,-0.00359939,0.00273268,-0.00288254,0.00243999,-0.00183437,0.000
 73935,0.00143518,-0.00121527,0.00235592,0.00401381,-0.00253623,0.00093
 249,0.00328704,-0.00162123,-0.00876053,-0.00039965,0.00104143,0.002244
 97,-0.00054304,0.00178007,0.00083841,0.00006695,0.00600035,0.00162216,
 -0.03603016,0.01316649,0.03789919,0.01155456,0.00425325,-0.01505154,-0
 .04184391,0.01807123,0.00855717,-0.01990417,0.00123364,0.00472016,-0.0
 0961269,0.00105266,-0.00052325,0.00080642,0.00013260,-0.00068289,0.001
 69014,0.00502575,-0.00206125,0.00095082,0.00053807,-0.00410647,-0.0015
 2959,-0.00033841,0.00123740,0.00167017,-0.00127633,0.00249721,0.000822
 60,-0.00066242,0.00356837,0.00101986,0.02081406,-0.07084950,0.06767676
 ,-0.00755123,-0.00211885,0.02580641,-0.08523540,0.02920943,0.02207771,
 0.01937667,-0.01047086,-0.00340196,-0.00303168,0.00612213,-0.00050782,
 -0.00000976,-0.00095022,0.00131178,-0.00024064,0.00054932,-0.00249075,
 0.00079135,-0.00010269,-0.00235360,-0.00216984,0.00482572,0.00019581,0
 .00106961,0.00059702,0.00008196,-0.00001578,-0.00082112,-0.00022821,-0
 .00219419,-0.00010356,-0.01904267,0.02512414,-0.22078839,0.00771192,0.
 01611947,-0.03707091,-0.01370115,-0.03930079,0.34652251,0.00995028,-0.
 02320593,-0.01272010,-0.00131724,0.00170559,-0.00136657,-0.00044191,-0
 .00272445,-0.00062846,0.00026614,-0.00172693,-0.00020085,0.00039328,-0
 .00073564,0.00001476,-0.00275009,-0.00090085,-0.00237048,-0.00013782,-
 0.00128163,-0.00028790,0.00005049,-0.00034011,-0.00026467,-0.00009763,
 0.00001762,-0.00022120,-0.10373799,0.01211224,0.01111806,0.00080964,0.
 02530471,0.01442597,-0.00144039,0.00245160,0.02026998,0.37499926,0.001
 17719,-0.02901166,-0.01841281,0.00111332,-0.00157652,0.00107738,-0.001
 19067,0.00026222,-0.00011304,0.00027839,0.00034177,0.00003196,-0.00025
 818,0.00061767,-0.00008591,-0.00344312,0.00050576,-0.00287965,-0.00047
 837,-0.00144064,-0.00049780,-0.00003482,0.00116527,0.00044921,-0.00015
 461,-0.00041580,-0.00016283,0.04483641,-0.18768841,-0.06509523,0.01001
 718,-0.03001480,-0.02056811,-0.00069351,0.00921299,-0.02236527,0.17964
 390,0.44545717,-0.00376413,-0.00961197,-0.00358186,-0.00081188,-0.0011
 0259,0.00100865,-0.00023403,-0.00047078,-0.00135380,0.00017161,0.00022
 353,-0.00000663,-0.00070157,-0.00028394,-0.00020980,-0.00058785,0.0007
 5510,0.00039895,0.00043881,-0.00015821,-0.00004526,0.00026477,-0.00006
 860,-0.00025233,-0.00003535,-0.00058532,-0.00007815,0.03178944,-0.0423
 5678,-0.09452873,0.00318107,-0.00312239,0.00567281,0.02883652,-0.03299
 384,-0.05819211,-0.13338884,0.05655863,0.19576226,-0.00080386,-0.00038
 270,0.00156160,0.00007553,-0.00061424,-0.00042713,-0.00033536,-0.00022
 233,0.00013631,-0.00000583,0.00007290,0.00002210,-0.00006585,0.0002340
 6,0.00006019,-0.00003738,0.00020219,0.00007420,0.00015234,-0.00003105,
 0.00004590,0.00010096,-0.00006315,-0.00001247,0.00005222,-0.00010135,0
 .00000171,0.00726664,0.00216470,-0.00727672,-0.00053686,0.00184966,0.0
 0120135,0.00040974,0.00303117,0.00536808,-0.27725506,-0.22819196,0.079
 49789,0.27189049,0.00308755,-0.00378944,-0.00061435,0.00052499,0.00035
 495,0.00059155,-0.00057351,0.00028378,-0.00046319,0.00008973,0.0002432
 4,0.00008731,0.00002208,-0.00013209,-0.00002734,-0.00051916,0.00002486
 ,-0.00084555,-0.00003551,-0.00033298,-0.00004520,-0.00009765,-0.000038
 76,-0.00006704,-0.00002946,0.00002556,-0.00002724,-0.02925956,-0.03810
 742,-0.00287852,0.00032604,0.00063200,-0.00018279,-0.00222418,0.001448
 28,0.00346593,-0.19567499,-0.21128140,0.03889794,0.22356035,0.25239651
 ,0.00037723,-0.00516286,-0.00377518,0.00049907,-0.00009190,-0.00041952
 ,0.00009769,-0.00009066,0.00035853,0.00000373,-0.00028168,0.00007413,0
 .00022481,-0.00005564,-0.00000304,-0.00056897,-0.00001011,-0.00080177,
 -0.00017532,-0.00023597,0.00001419,0.00003656,0.00017391,0.00015778,-0
 .00003335,0.00022190,-0.00004678,-0.01748984,-0.02182660,0.00385483,0.
 00001649,-0.00054427,0.00009531,-0.00651945,-0.00415794,0.00051720,0.0
 9827705,0.06605246,-0.04364088,-0.07603559,-0.03967676,0.04156935,-0.0
 2115594,-0.02261455,0.02262876,-0.00076420,-0.00327713,0.00502458,-0.0
 0130300,0.00085718,-0.00064400,-0.00034906,0.00098028,-0.00146700,-0.0
 0310359,0.00204477,-0.00054060,-0.00383883,0.00003393,0.00485368,0.000
 48297,-0.00081816,-0.00148759,0.00070293,-0.00156497,-0.00048256,0.000
 51374,-0.00413303,-0.00095741,-0.02473356,-0.01133688,0.00729710,0.002
 09197,0.00178208,-0.00203957,0.04924502,0.05669615,-0.02923834,0.00105
 229,-0.00277561,-0.00431025,-0.00195275,0.00107442,0.00051200,0.065021
 78,-0.01948804,-0.01557494,0.01995867,-0.00114756,-0.00333410,0.004153
 32,-0.00136369,0.00069791,-0.00049259,-0.00044391,0.00086275,-0.001198
 82,-0.00303593,0.00180264,-0.00042250,-0.00296424,0.00011197,0.0039602
 5,0.00055522,-0.00055698,-0.00121605,0.00059121,-0.00114215,-0.0005932
 0,0.00051548,-0.00317533,-0.00074221,-0.02316608,-0.01485363,-0.004220
 01,0.00125113,0.00149582,-0.00309877,0.04615036,0.02836849,-0.00701999
 ,0.00396923,0.00472556,-0.00456391,-0.00082854,-0.00266896,0.00562714,
 -0.09010984,0.17205972,-0.00044695,-0.00149403,0.00211627,0.00014137,-
 0.00000578,0.00077790,-0.00040229,0.00014039,-0.00029121,0.00019298,0.
 00025497,-0.00020216,-0.00016473,0.00021826,-0.00016693,0.00001434,0.0
 0002702,0.00074302,0.00022795,0.00013641,-0.00021252,-0.00001586,-0.00
 015354,-0.00019430,0.00006014,-0.00024616,-0.00017385,0.01664189,0.006
 60146,0.00024366,-0.00067419,-0.00029013,0.00142127,-0.00120535,0.0118
 7422,-0.03382637,0.00616634,0.00589566,-0.00162641,-0.00291636,0.00037
 650,0.00299605,0.11695914,-0.23684637,0.33907554,-0.00032420,0.0000207
 0,0.00146522,-0.00003770,-0.00015466,-0.00035237,-0.00014892,0.0000272
 0,0.00012450,-0.00013686,-0.00000644,0.00002451,-0.00002580,0.00007305
 ,0.00000934,-0.00006150,0.00005672,-0.00008701,0.00002093,-0.00004590,
 0.00001133,0.00000539,-0.00000429,-0.00001437,0.00001878,0.00001091,0.
 00001737,-0.00541389,-0.00419961,-0.00024558,0.00003903,0.00017209,-0.
 00052143,-0.00019315,-0.01398313,0.01394726,-0.00034324,0.00015446,-0.
 00034620,0.00104504,-0.00027113,0.00077788,-0.06190979,0.08951518,-0.1
 3457842,0.06746587,-0.00118237,-0.00026599,-0.00004593,0.00009525,0.00
 005291,0.00003281,0.00000424,0.00000109,0.00002187,-0.00001950,-0.0000
 9230,0.00007482,0.00001061,-0.00006024,-0.00000602,0.00016236,0.000078
 58,-0.00000495,-0.00009541,0.00001155,0.00006359,0.00000433,-0.0000104
 8,0.00004855,0.00000493,0.00008499,-0.00001080,-0.00286926,-0.00127612
 ,0.00004214,-0.00003916,0.00028139,-0.00075062,0.00142183,-0.00847729,
 0.01040075,0.00138563,-0.00085919,-0.00111689,-0.00067970,0.00094186,0
 .00005896,0.07316136,-0.16881877,0.21351113,-0.07136516,0.17840803,0.0
 0057756,-0.00011541,0.00082934,-0.00012529,-0.00012220,-0.00008430,0.0
 0004466,0.00004939,-0.00001460,-0.00010332,0.00009366,-0.00007030,-0.0
 0011239,0.00005739,0.00001523,-0.00033000,-0.00013029,0.00011187,0.000
 04915,-0.00011582,-0.00009047,0.00004451,-0.00003616,-0.00000760,0.000
 03324,-0.00019781,-0.00003509,-0.00153074,-0.00033399,-0.00223653,0.00
 048195,-0.00025008,0.00030699,-0.00256523,-0.00481838,0.00319231,0.001
 17691,0.00011536,0.00067330,-0.00130104,0.00140873,-0.00095019,-0.1161
 0793,0.22671501,-0.31067995,0.11976796,-0.22231940,0.30903999\\0.00000
 030,0.00000170,0.00000139,-0.00000034,0.00000171,-0.00000037,0.0000010
 6,0.00000158,-0.00000216,0.00000034,0.00000041,-0.00000019,-0.00000009
 ,0.00000335,0.00000012,-0.00000136,-0.00000058,0.00000436,-0.00000168,
 -0.00000169,0.00000314,-0.00000255,-0.00000096,0.00000410,-0.00000253,
 0.00000165,0.00000431,0.00000117,-0.00000171,-0.00000166,-0.00000024,0
 .00000107,0.00000037,-0.00000129,-0.00000266,-0.00000091,0.00000491,0.
 00000578,-0.00000335,-0.00000189,-0.00000227,-0.00000377,0.00000160,-0
 .00000235,-0.00000336,0.00000259,-0.00000504,-0.00000204\\\@


 LAW OF COMPENSATION:
      NO CALCULATION IS EVER A COMPLETE FAILURE; IT 
      CAN ALWAYS SERVE AS A BAD EXAMPLE.

                                           -- ANON
 Job cpu time:  0 days  1 hours  7 minutes 31.8 seconds.
 File lengths (MBytes):  RWF=    125 Int=      0 D2E=      0 Chk=      8 Scr=      1
 Normal termination of Gaussian 03 at Tue Jul 15 23:23:08 2014.
