 Entering Gaussian System, Link 0=g03
 Input=TS05bmkfreq.gjf
 Output=TS05bmkfreq.log
 Initial command:
 /opt/g03/l1.exe /scratch/nyee/Gau-14464.inp -scrdir=/scratch/nyee/
 Entering Link 1 = /opt/g03/l1.exe PID=     14466.
  
 Copyright (c) 1988,1990,1992,1993,1995,1998,2003,2004, Gaussian, Inc.
                  All Rights Reserved.
  
 This is the Gaussian(R) 03 program.  It is based on the
 the Gaussian(R) 98 system (copyright 1998, Gaussian, Inc.),
 the Gaussian(R) 94 system (copyright 1995, Gaussian, Inc.),
 the Gaussian 92(TM) system (copyright 1992, Gaussian, Inc.),
 the Gaussian 90(TM) system (copyright 1990, Gaussian, Inc.),
 the Gaussian 88(TM) system (copyright 1988, Gaussian, Inc.),
 the Gaussian 86(TM) system (copyright 1986, Carnegie Mellon
 University), and the Gaussian 82(TM) system (copyright 1983,
 Carnegie Mellon University). Gaussian is a federally registered
 trademark of Gaussian, Inc.
  
 This software contains proprietary and confidential information,
 including trade secrets, belonging to Gaussian, Inc.
  
 This software is provided under written license and may be
 used, copied, transmitted, or stored only in accord with that
 written license.
  
 The following legend is applicable only to US Government
 contracts under FAR:
  
                    RESTRICTED RIGHTS LEGEND
  
 Use, reproduction and disclosure by the US Government is
 subject to restrictions as set forth in subparagraphs (a)
 and (c) of the Commercial Computer Software - Restricted
 Rights clause in FAR 52.227-19.
  
 Gaussian, Inc.
 340 Quinnipiac St., Bldg. 40, Wallingford CT 06492
  
  
 ---------------------------------------------------------------
 Warning -- This program may not be used in any manner that
 competes with the business of Gaussian, Inc. or will provide
 assistance to any competitor of Gaussian, Inc.  The licensee
 of this program is prohibited from giving any competitor of
 Gaussian, Inc. access to this program.  By using this program,
 the user acknowledges that Gaussian, Inc. is engaged in the
 business of creating and licensing software in the field of
 computational chemistry and represents and warrants to the
 licensee that it is not a competitor of Gaussian, Inc. and that
 it will not use this program in any manner prohibited above.
 ---------------------------------------------------------------
  

 Cite this work as:
 Gaussian 03, Revision D.01,
 M. J. Frisch, G. W. Trucks, H. B. Schlegel, G. E. Scuseria, 
 M. A. Robb, J. R. Cheeseman, J. A. Montgomery, Jr., T. Vreven, 
 K. N. Kudin, J. C. Burant, J. M. Millam, S. S. Iyengar, J. Tomasi, 
 V. Barone, B. Mennucci, M. Cossi, G. Scalmani, N. Rega, 
 G. A. Petersson, H. Nakatsuji, M. Hada, M. Ehara, K. Toyota, 
 R. Fukuda, J. Hasegawa, M. Ishida, T. Nakajima, Y. Honda, O. Kitao, 
 H. Nakai, M. Klene, X. Li, J. E. Knox, H. P. Hratchian, J. B. Cross, 
 V. Bakken, C. Adamo, J. Jaramillo, R. Gomperts, R. E. Stratmann, 
 O. Yazyev, A. J. Austin, R. Cammi, C. Pomelli, J. W. Ochterski, 
 P. Y. Ayala, K. Morokuma, G. A. Voth, P. Salvador, J. J. Dannenberg, 
 V. G. Zakrzewski, S. Dapprich, A. D. Daniels, M. C. Strain, 
 O. Farkas, D. K. Malick, A. D. Rabuck, K. Raghavachari, 
 J. B. Foresman, J. V. Ortiz, Q. Cui, A. G. Baboul, S. Clifford, 
 J. Cioslowski, B. B. Stefanov, G. Liu, A. Liashenko, P. Piskorz, 
 I. Komaromi, R. L. Martin, D. J. Fox, T. Keith, M. A. Al-Laham, 
 C. Y. Peng, A. Nanayakkara, M. Challacombe, P. M. W. Gill, 
 B. Johnson, W. Chen, M. W. Wong, C. Gonzalez, and J. A. Pople, 
 Gaussian, Inc., Wallingford CT, 2004.
 
 ******************************************
 Gaussian 03:  AM64L-G03RevD.01 13-Oct-2005
                15-Jul-2014 
 ******************************************
 %chk=TS05freqbmk.chk
 %mem=1000mb
 %nproc=8
 Will use up to    8 processors via shared memory.
 -----------------------------------
 # freq nosymm bmk/cbsb7 iop(7/33=1)
 -----------------------------------
 1/10=4,30=1,38=1/1,3;
 2/15=1,17=6,18=5,40=1/2;
 3/5=4,6=6,7=700,11=2,16=1,25=1,30=1,74=-34/1,2,3;
 4//1;
 5/5=2,38=5/2;
 8/6=4,10=90,11=11/1;
 11/6=1,8=1,9=11,15=111,16=1,31=1/1,2,10;
 10/6=1,31=1/2;
 6/7=2,8=2,9=2,10=2,18=1,28=1/1;
 7/8=1,10=1,25=1,30=1,33=1/1,2,3,16;
 1/10=4,30=1/3;
 99//99;
 -------------------
 Title Card Required
 -------------------
 Symbolic Z-matrix:
 Charge =  0 Multiplicity = 2
 O                    -1.45167   1.11394   1.43506 
 H                    -2.09264   0.54737   0.98546 
 O                    -0.27774   0.31388   1.39907 
 C                     0.16765   0.26567   0.06735 
 H                     0.16156   1.28312  -0.33801 
 O                    -0.71878  -0.45435  -0.73032 
 H                    -0.60525  -1.38653  -0.5253 
 C                     1.58146  -0.29648   0.08754 
 H                     1.89919  -0.72432  -0.85958 
 C                     2.50375   0.13738   0.98731 
 H                     3.54987  -0.13195   0.88692 
 H                     2.20195   0.69968   1.86441 
 C                     1.08245  -2.45747   0.78613 
 H                     2.07709  -2.74159   1.10945 
 H                     0.37301  -2.21307   1.56955 
 H                     0.71137  -2.98728  -0.08969 
 

 GradGradGradGradGradGradGradGradGradGradGradGradGradGradGradGradGradGrad
 Berny optimization.
 Initialization pass.
 Trust Radius=3.00D-01 FncErr=1.00D-07 GrdErr=1.00D-07
 Number of steps in this run=   2 maximum allowed number of steps=   2.
 GradGradGradGradGradGradGradGradGradGradGradGradGradGradGradGradGradGrad

                          Input orientation:                          
 ---------------------------------------------------------------------
 Center     Atomic     Atomic              Coordinates (Angstroms)
 Number     Number      Type              X           Y           Z
 ---------------------------------------------------------------------
    1          8             0       -1.451672    1.113945    1.435058
    2          1             0       -2.092643    0.547368    0.985461
    3          8             0       -0.277741    0.313875    1.399074
    4          6             0        0.167653    0.265666    0.067350
    5          1             0        0.161559    1.283116   -0.338005
    6          8             0       -0.718783   -0.454352   -0.730319
    7          1             0       -0.605246   -1.386533   -0.525302
    8          6             0        1.581460   -0.296483    0.087543
    9          1             0        1.899187   -0.724324   -0.859583
   10          6             0        2.503753    0.137378    0.987305
   11          1             0        3.549870   -0.131946    0.886920
   12          1             0        2.201949    0.699677    1.864411
   13          6             0        1.082447   -2.457471    0.786132
   14          1             0        2.077087   -2.741585    1.109449
   15          1             0        0.373005   -2.213075    1.569545
   16          1             0        0.711372   -2.987275   -0.089689
 ---------------------------------------------------------------------
                    Distance matrix (angstroms):
                    1          2          3          4          5
     1  O    0.000000
     2  H    0.966432   0.000000
     3  O    1.421098   1.876023   0.000000
     4  C    2.283072   2.455855   1.405058   0.000000
     5  H    2.403099   2.715569   2.037120   1.095242   0.000000
     6  O    2.772281   2.415540   2.306297   1.393008   1.986884
     7  H    3.288136   2.869622   2.588797   1.917908   2.783899
     8  C    3.606244   3.875226   2.355691   1.521601   2.166182
     9  H    4.457899   4.577783   3.304301   2.199431   2.705773
    10  C    4.098726   4.614645   2.817342   2.513989   2.924899
    11  H    5.183447   5.684112   3.887372   3.502739   3.870852
    12  H    3.702014   4.386259   2.552302   2.748846   3.058468
    13  C    4.426949   4.376070   3.147407   2.961245   4.012943
    14  H    5.236723   5.312178   3.868454   3.711532   4.686426
    15  H    3.796919   3.747081   2.614958   2.905670   3.988334
    16  H    4.880944   4.638119   3.753978   3.301805   4.312794
                    6          7          8          9         10
     6  O    0.000000
     7  H    0.961189   0.000000
     8  C    2.446413   2.519022   0.000000
     9  H    2.635026   2.611982   1.086759   0.000000
    10  C    3.699340   3.778381   1.359570   2.125800   0.000000
    11  H    4.576113   4.564356   2.130895   2.475063   1.084884
    12  H    4.073706   4.235958   2.129460   3.088622   1.084703
    13  C    3.091365   2.390622   2.325276   2.525716   2.965438
    14  H    4.053772   3.421036   2.696008   2.824549   2.912969
    15  H    3.094266   2.455307   2.707401   3.232070   3.225480
    16  H    2.978498   2.117927   2.833518   2.669192   3.759788
                   11         12         13         14         15
    11  H    0.000000
    12  H    1.861176   0.000000
    13  C    3.392109   3.519027   0.000000
    14  H    3.004800   3.525314   1.083773   0.000000
    15  H    3.858697   3.451971   1.084792   1.842527   0.000000
    16  H    4.142914   4.431020   1.088784   1.833977   1.861971
                   16
    16  H    0.000000
 Symmetry turned off by external request.
 Stoichiometry    C4H9O3(2)
 Framework group  C1[X(C4H9O3)]
 Deg. of freedom    42
 Full point group                 C1
 Rotational constants (GHZ):      3.3215296      1.8537269      1.5885581
 Standard basis: CBSB7 (5D, 7F)
 Integral buffers will be    131072 words long.
 Raffenetti 2 integral format.
 Two-electron integral symmetry is turned off.
   180 basis functions,   296 primitive gaussians,   187 cartesian basis functions
    29 alpha electrons       28 beta electrons
       nuclear repulsion energy       327.2131606732 Hartrees.
 NAtoms=   16 NActive=   16 NUniq=   16 SFac= 7.50D-01 NAtFMM=   80 NAOKFM=F Big=F
 One-electron integrals computed using PRISM.
 NBasis=   180 RedAO= T  NBF=   180
 NBsUse=   180 1.00D-06 NBFU=   180
 Harris functional with IExCor= 3226 diagonalized for initial guess.
 ExpMin= 1.03D-01 ExpMax= 8.59D+03 ExpMxC= 1.30D+03 IAcc=1 IRadAn=         1 AccDes= 1.00D-06
 HarFok:  IExCor=3226 AccDes= 1.00D-06 IRadAn=         1 IDoV=1
 ScaDFX=  1.000000  1.000000  1.000000  1.000000
 <S**2> of initial guess= 0.7500
 Requested convergence on RMS density matrix=1.00D-08 within 128 cycles.
 Requested convergence on MAX density matrix=1.00D-06.
 Requested convergence on             energy=1.00D-06.
 No special actions if energy rises.
 Integral accuracy reduced to 1.0D-05 until final iterations.
 Initial convergence to 1.0D-05 achieved.  Increase integral accuracy.
 SCF Done:  E(UBMK+HF-BMK) =  -383.178352739     A.U. after   21 cycles
             Convg  =    0.9814D-08             -V/T =  2.0028
             S**2   =   0.7885
 Annihilation of the first spin contaminant:
 S**2 before annihilation     0.7885,   after     0.7503
 Range of M.O.s used for correlation:     1   180
 NBasis=   180 NAE=    29 NBE=    28 NFC=     0 NFV=     0
 NROrb=    180 NOA=    29 NOB=    28 NVA=   151 NVB=   152
 Symmetrizing basis deriv contribution to polar:
 IMax=3 JMax=2 DiffMx= 0.00D+00
 G2DrvN: will do   17 centers at a time, making    1 passes doing MaxLOS=2.
 FoFDir/FoFCou used for L=0 through L=2.
 DoAtom=TTTTTTTTTTTTTTTT
          Differentiating once with respect to electric field.
                with respect to dipole field.
          Differentiating once with respect to nuclear coordinates.
 Symmetry not used in FoFDir.
 MinBra= 0 MaxBra= 2 Meth= 1.
 IRaf=       0 NMat=  51 IRICut=      51 DoRegI=T DoRafI=T ISym2E= 0 JSym2E=0.
          There are  51 degrees of freedom in the 1st order CPHF.
    48 vectors were produced by pass  0.
 AX will form  48 AO Fock derivatives at one time.
    48 vectors were produced by pass  1.
    48 vectors were produced by pass  2.
    48 vectors were produced by pass  3.
    48 vectors were produced by pass  4.
    48 vectors were produced by pass  5.
    45 vectors were produced by pass  6.
    12 vectors were produced by pass  7.
     3 vectors were produced by pass  8.
 Inv2:  IOpt= 1 Iter= 1 AM= 3.16D-15 Conv= 1.00D-12.
 Inverted reduced A of dimension  348 with in-core refinement.
 Isotropic polarizability for W=    0.000000       64.04 Bohr**3.
 End of Minotr Frequency-dependent properties file   721 does not exist.

 **********************************************************************

            Population analysis using the SCF density.

 **********************************************************************

 Alpha  occ. eigenvalues --  -19.58684 -19.57668 -19.53979 -10.57739 -10.48769
 Alpha  occ. eigenvalues --  -10.47662 -10.46906  -1.24353  -1.14096  -0.99830
 Alpha  occ. eigenvalues --   -0.85835  -0.76326  -0.74139  -0.65086  -0.62426
 Alpha  occ. eigenvalues --   -0.57499  -0.54014  -0.50996  -0.49268  -0.48396
 Alpha  occ. eigenvalues --   -0.46922  -0.46440  -0.43825  -0.39531  -0.38385
 Alpha  occ. eigenvalues --   -0.35407  -0.34965  -0.33286  -0.23684
 Alpha virt. eigenvalues --    0.03107   0.07121   0.07688   0.11602   0.12625
 Alpha virt. eigenvalues --    0.13526   0.15055   0.15953   0.16280   0.19157
 Alpha virt. eigenvalues --    0.19261   0.24434   0.27076   0.29937   0.31523
 Alpha virt. eigenvalues --    0.33619   0.36405   0.39856   0.42406   0.42768
 Alpha virt. eigenvalues --    0.45585   0.46750   0.48816   0.49997   0.51678
 Alpha virt. eigenvalues --    0.54083   0.55590   0.58953   0.63259   0.63864
 Alpha virt. eigenvalues --    0.65193   0.66525   0.67678   0.68871   0.70902
 Alpha virt. eigenvalues --    0.72174   0.77556   0.80639   0.83955   0.87004
 Alpha virt. eigenvalues --    0.88979   0.91053   0.92518   0.94471   0.97005
 Alpha virt. eigenvalues --    1.00161   1.03786   1.05658   1.12736   1.15519
 Alpha virt. eigenvalues --    1.17522   1.18831   1.22014   1.26042   1.37591
 Alpha virt. eigenvalues --    1.38768   1.42373   1.42876   1.45273   1.47285
 Alpha virt. eigenvalues --    1.49771   1.51525   1.53505   1.54234   1.56812
 Alpha virt. eigenvalues --    1.58291   1.59635   1.62147   1.65054   1.68196
 Alpha virt. eigenvalues --    1.71534   1.75043   1.76951   1.80218   1.81698
 Alpha virt. eigenvalues --    1.85562   1.86882   1.89495   1.93010   1.94504
 Alpha virt. eigenvalues --    1.95883   2.01416   2.02379   2.05698   2.11242
 Alpha virt. eigenvalues --    2.14293   2.15814   2.21977   2.23651   2.25860
 Alpha virt. eigenvalues --    2.27146   2.31632   2.38446   2.44974   2.48933
 Alpha virt. eigenvalues --    2.52912   2.56647   2.58924   2.60843   2.63704
 Alpha virt. eigenvalues --    2.65391   2.67167   2.68825   2.70144   2.72180
 Alpha virt. eigenvalues --    2.74722   2.78161   2.79852   2.83548   2.84373
 Alpha virt. eigenvalues --    2.89813   2.95117   2.97510   3.05905   3.10172
 Alpha virt. eigenvalues --    3.13400   3.17172   3.21466   3.23235   3.24098
 Alpha virt. eigenvalues --    3.39513   3.40983   3.41928   3.50122   3.62037
 Alpha virt. eigenvalues --    3.74641   3.80851   3.82675   3.83741   3.85019
 Alpha virt. eigenvalues --    3.89905   4.02821   4.07189   4.10068   4.32563
 Alpha virt. eigenvalues --    4.83934   4.94493   5.01806   5.04807   5.35702
 Alpha virt. eigenvalues --    5.44609   5.49330   5.79103   5.90417  23.86111
 Alpha virt. eigenvalues --   23.95798  24.09240  24.36737  50.06717  50.11364
 Alpha virt. eigenvalues --   50.21732
  Beta  occ. eigenvalues --  -19.58692 -19.57668 -19.53975 -10.57698 -10.49128
  Beta  occ. eigenvalues --  -10.46232 -10.46127  -1.24361  -1.14088  -0.99840
  Beta  occ. eigenvalues --   -0.85432  -0.74096  -0.72778  -0.64665  -0.62424
  Beta  occ. eigenvalues --   -0.57464  -0.53926  -0.50804  -0.49154  -0.48253
  Beta  occ. eigenvalues --   -0.46202  -0.45731  -0.43565  -0.39505  -0.38367
  Beta  occ. eigenvalues --   -0.34966  -0.33383  -0.31884
  Beta virt. eigenvalues --   -0.05092   0.05565   0.07154   0.08037   0.11791
  Beta virt. eigenvalues --    0.12734   0.13687   0.15216   0.16394   0.16719
  Beta virt. eigenvalues --    0.19405   0.19577   0.24548   0.27037   0.29934
  Beta virt. eigenvalues --    0.31789   0.34130   0.36783   0.42542   0.43033
  Beta virt. eigenvalues --    0.43913   0.45664   0.47067   0.49067   0.51366
  Beta virt. eigenvalues --    0.51811   0.54526   0.56124   0.59086   0.64400
  Beta virt. eigenvalues --    0.64606   0.66047   0.67054   0.67698   0.69929
  Beta virt. eigenvalues --    0.71650   0.72856   0.77924   0.80881   0.84062
  Beta virt. eigenvalues --    0.87403   0.89145   0.91585   0.92602   0.94958
  Beta virt. eigenvalues --    0.97108   1.00517   1.04007   1.06357   1.14336
  Beta virt. eigenvalues --    1.16479   1.18080   1.20365   1.22900   1.26504
  Beta virt. eigenvalues --    1.37883   1.39271   1.42494   1.43005   1.45418
  Beta virt. eigenvalues --    1.47633   1.49895   1.52011   1.55000   1.55098
  Beta virt. eigenvalues --    1.57879   1.58544   1.61011   1.62795   1.65193
  Beta virt. eigenvalues --    1.68642   1.72439   1.75304   1.77149   1.80350
  Beta virt. eigenvalues --    1.82030   1.86006   1.87583   1.90523   1.93653
  Beta virt. eigenvalues --    1.95341   1.96370   2.01953   2.02609   2.06076
  Beta virt. eigenvalues --    2.12252   2.15660   2.16734   2.22867   2.24248
  Beta virt. eigenvalues --    2.26004   2.27722   2.31871   2.38751   2.45682
  Beta virt. eigenvalues --    2.49629   2.52972   2.57872   2.59903   2.61142
  Beta virt. eigenvalues --    2.65004   2.66485   2.67757   2.69291   2.70751
  Beta virt. eigenvalues --    2.72421   2.75170   2.78981   2.80585   2.84087
  Beta virt. eigenvalues --    2.85918   2.90165   2.95920   2.97640   3.06298
  Beta virt. eigenvalues --    3.10283   3.15066   3.17299   3.21493   3.23238
  Beta virt. eigenvalues --    3.24177   3.39511   3.40992   3.41932   3.50281
  Beta virt. eigenvalues --    3.62202   3.74648   3.81430   3.84513   3.85324
  Beta virt. eigenvalues --    3.86708   3.90015   4.02825   4.07268   4.10169
  Beta virt. eigenvalues --    4.32827   4.83934   4.94499   5.01811   5.04815
  Beta virt. eigenvalues --    5.35695   5.44608   5.49332   5.79114   5.90414
  Beta virt. eigenvalues --   23.86169  23.95875  24.10797  24.36970  50.06717
  Beta virt. eigenvalues --   50.11359  50.21730
          Condensed to atoms (all electrons):
              1          2          3          4          5          6
     1  O    7.936939   0.293462   0.075924  -0.056725   0.007124  -0.004114
     2  H    0.293462   0.457490  -0.037287  -0.003677  -0.001656   0.017267
     3  O    0.075924  -0.037287   8.116440   0.214206  -0.040517  -0.061326
     4  C   -0.056725  -0.003677   0.214206   4.744598   0.414746   0.292460
     5  H    0.007124  -0.001656  -0.040517   0.414746   0.537328  -0.045169
     6  O   -0.004114   0.017267  -0.061326   0.292460  -0.045169   7.910757
     7  H    0.000337   0.000005   0.004457  -0.050503   0.007775   0.327640
     8  C    0.010027  -0.000604  -0.059023   0.309397  -0.038662  -0.033820
     9  H   -0.000193  -0.000027   0.003528  -0.040230  -0.001181   0.004295
    10  C   -0.000660  -0.000083   0.011055  -0.078039  -0.005502   0.007153
    11  H    0.000007   0.000009   0.000126   0.005387  -0.000222  -0.000135
    12  H   -0.000523   0.000097   0.010179  -0.008271   0.000200   0.000364
    13  C    0.000024  -0.000044  -0.007596  -0.016608   0.002510  -0.006520
    14  H    0.000002  -0.000004  -0.000078   0.000923   0.000001   0.000321
    15  H   -0.000512   0.000110   0.011239   0.000365   0.000723  -0.000367
    16  H   -0.000018  -0.000032   0.000184  -0.001292  -0.000127   0.000271
              7          8          9         10         11         12
     1  O    0.000337   0.010027  -0.000193  -0.000660   0.000007  -0.000523
     2  H    0.000005  -0.000604  -0.000027  -0.000083   0.000009   0.000097
     3  O    0.004457  -0.059023   0.003528   0.011055   0.000126   0.010179
     4  C   -0.050503   0.309397  -0.040230  -0.078039   0.005387  -0.008271
     5  H    0.007775  -0.038662  -0.001181  -0.005502  -0.000222   0.000200
     6  O    0.327640  -0.033820   0.004295   0.007153  -0.000135   0.000364
     7  H    0.450723  -0.005236  -0.000277  -0.000455  -0.000016  -0.000051
     8  C   -0.005236   5.296533   0.410276   0.472023  -0.033392  -0.046492
     9  H   -0.000277   0.410276   0.495929  -0.023822  -0.008372   0.004834
    10  C   -0.000455   0.472023  -0.023822   5.032127   0.404243   0.422502
    11  H   -0.000016  -0.033392  -0.008372   0.404243   0.524999  -0.028474
    12  H   -0.000051  -0.046492   0.004834   0.422502  -0.028474   0.487892
    13  C    0.012161   0.029406  -0.017042  -0.041709   0.000420   0.000538
    14  H    0.000096  -0.004253  -0.000644   0.001228   0.000084  -0.000027
    15  H    0.000035  -0.009114   0.000999  -0.000348  -0.000122   0.000133
    16  H    0.000983   0.000077  -0.000543   0.002713  -0.000040  -0.000017
             13         14         15         16
     1  O    0.000024   0.000002  -0.000512  -0.000018
     2  H   -0.000044  -0.000004   0.000110  -0.000032
     3  O   -0.007596  -0.000078   0.011239   0.000184
     4  C   -0.016608   0.000923   0.000365  -0.001292
     5  H    0.002510   0.000001   0.000723  -0.000127
     6  O   -0.006520   0.000321  -0.000367   0.000271
     7  H    0.012161   0.000096   0.000035   0.000983
     8  C    0.029406  -0.004253  -0.009114   0.000077
     9  H   -0.017042  -0.000644   0.000999  -0.000543
    10  C   -0.041709   0.001228  -0.000348   0.002713
    11  H    0.000420   0.000084  -0.000122  -0.000040
    12  H    0.000538  -0.000027   0.000133  -0.000017
    13  C    5.339504   0.396557   0.388855   0.374610
    14  H    0.396557   0.499730  -0.018553  -0.023594
    15  H    0.388855  -0.018553   0.488606  -0.026265
    16  H    0.374610  -0.023594  -0.026265   0.547474
 Mulliken atomic charges:
              1
     1  O   -0.261101
     2  H    0.274973
     3  O   -0.241511
     4  C    0.273265
     5  H    0.162628
     6  O   -0.409075
     7  H    0.252327
     8  C   -0.297143
     9  H    0.172471
    10  C   -0.202426
    11  H    0.135498
    12  H    0.157116
    13  C   -0.455065
    14  H    0.148212
    15  H    0.164216
    16  H    0.125616
 Sum of Mulliken charges=   0.00000
 Atomic charges with hydrogens summed into heavy atoms:
              1
     1  O    0.013872
     2  H    0.000000
     3  O   -0.241511
     4  C    0.435892
     5  H    0.000000
     6  O   -0.156749
     7  H    0.000000
     8  C   -0.124672
     9  H    0.000000
    10  C    0.090188
    11  H    0.000000
    12  H    0.000000
    13  C   -0.017021
    14  H    0.000000
    15  H    0.000000
    16  H    0.000000
 Sum of Mulliken charges=   0.00000
          Atomic-Atomic Spin Densities.
              1          2          3          4          5          6
     1  O    0.000198  -0.000017   0.000123  -0.000147  -0.000244   0.000031
     2  H   -0.000017   0.000019   0.000008   0.000022   0.000016  -0.000005
     3  O    0.000123   0.000008  -0.003071   0.000033   0.001188  -0.000374
     4  C   -0.000147   0.000022   0.000033   0.015813  -0.003774  -0.002375
     5  H   -0.000244   0.000016   0.001188  -0.003774  -0.010275   0.001427
     6  O    0.000031  -0.000005  -0.000374  -0.002375   0.001427   0.002184
     7  H   -0.000029   0.000000   0.000078  -0.000369  -0.000100   0.000515
     8  C   -0.000071   0.000002   0.002252   0.014058   0.002777   0.002207
     9  H    0.000003   0.000001   0.000014   0.002007  -0.000198  -0.000152
    10  C   -0.000006  -0.000004  -0.000050  -0.005542   0.001731   0.000186
    11  H    0.000000   0.000000   0.000000  -0.000267   0.000012   0.000004
    12  H   -0.000008   0.000002   0.000149   0.000390  -0.000022   0.000001
    13  C   -0.000054  -0.000019  -0.001681  -0.007056   0.001106  -0.002429
    14  H    0.000001   0.000000   0.000029   0.000044  -0.000020   0.000020
    15  H    0.000013   0.000004   0.000445  -0.000018  -0.000058   0.000224
    16  H    0.000003   0.000002   0.000068   0.000410  -0.000065   0.000490
              7          8          9         10         11         12
     1  O   -0.000029  -0.000071   0.000003  -0.000006   0.000000  -0.000008
     2  H    0.000000   0.000002   0.000001  -0.000004   0.000000   0.000002
     3  O    0.000078   0.002252   0.000014  -0.000050   0.000000   0.000149
     4  C   -0.000369   0.014058   0.002007  -0.005542  -0.000267   0.000390
     5  H   -0.000100   0.002777  -0.000198   0.001731   0.000012  -0.000022
     6  O    0.000515   0.002207  -0.000152   0.000186   0.000004   0.000001
     7  H   -0.000579  -0.001628  -0.000165  -0.000074   0.000003  -0.000006
     8  C   -0.001628  -0.252382   0.010298   0.005074  -0.001136  -0.000549
     9  H   -0.000165   0.010298   0.021792  -0.003017   0.000099  -0.000126
    10  C   -0.000074   0.005074  -0.003017   0.551410   0.000478  -0.001151
    11  H    0.000003  -0.001136   0.000099   0.000478  -0.026470   0.001620
    12  H   -0.000006  -0.000549  -0.000126  -0.001151   0.001620  -0.024476
    13  C    0.003267  -0.048513  -0.014324  -0.048397   0.000787   0.000033
    14  H   -0.000027   0.003384   0.000401   0.003349  -0.000031  -0.000008
    15  H   -0.000389   0.003836   0.000348   0.002770  -0.000037   0.000021
    16  H   -0.001107   0.002667   0.000896   0.001391  -0.000029  -0.000001
             13         14         15         16
     1  O   -0.000054   0.000001   0.000013   0.000003
     2  H   -0.000019   0.000000   0.000004   0.000002
     3  O   -0.001681   0.000029   0.000445   0.000068
     4  C   -0.007056   0.000044  -0.000018   0.000410
     5  H    0.001106  -0.000020  -0.000058  -0.000065
     6  O   -0.002429   0.000020   0.000224   0.000490
     7  H    0.003267  -0.000027  -0.000389  -0.001107
     8  C   -0.048513   0.003384   0.003836   0.002667
     9  H   -0.014324   0.000401   0.000348   0.000896
    10  C   -0.048397   0.003349   0.002770   0.001391
    11  H    0.000787  -0.000031  -0.000037  -0.000029
    12  H    0.000033  -0.000008   0.000021  -0.000001
    13  C    1.030566  -0.014365  -0.018777  -0.021327
    14  H   -0.014365  -0.032621   0.003286   0.004211
    15  H   -0.018777   0.003286  -0.025967   0.005259
    16  H   -0.021327   0.004211   0.005259  -0.016601
 Mulliken atomic spin densities:
              1
     1  O   -0.000207
     2  H    0.000031
     3  O   -0.000790
     4  C    0.013226
     5  H   -0.006499
     6  O    0.001954
     7  H   -0.000609
     8  C   -0.257725
     9  H    0.017876
    10  C    0.508147
    11  H   -0.024970
    12  H   -0.024131
    13  C    0.858816
    14  H   -0.032346
    15  H   -0.029041
    16  H   -0.023733
 Sum of Mulliken spin densities=   1.00000
 APT atomic charges:
              1
     1  O   -0.280211
     2  H    0.262554
     3  O   -0.371616
     4  C    0.792198
     5  H   -0.020827
     6  O   -0.652449
     7  H    0.289181
     8  C    0.007489
     9  H    0.029744
    10  C   -0.168599
    11  H    0.044981
    12  H    0.084935
    13  C   -0.087492
    14  H    0.016090
    15  H    0.038898
    16  H    0.015124
 Sum of APT charges=   0.00000
 APT Atomic charges with hydrogens summed into heavy atoms:
              1
     1  O   -0.017657
     2  H    0.000000
     3  O   -0.371616
     4  C    0.771371
     5  H    0.000000
     6  O   -0.363267
     7  H    0.000000
     8  C    0.037233
     9  H    0.000000
    10  C   -0.038682
    11  H    0.000000
    12  H    0.000000
    13  C   -0.017381
    14  H    0.000000
    15  H    0.000000
    16  H    0.000000
 Sum of APT charges=   0.00000
 Electronic spatial extent (au):  <R**2>=   967.6934
 Charge=     0.0000 electrons
 Dipole moment (field-independent basis, Debye):
    X=     0.7949    Y=    -1.8524    Z=    -1.0583  Tot=     2.2767
 Quadrupole moment (field-independent basis, Debye-Ang):
   XX=   -37.8285   YY=   -42.6625   ZZ=   -48.0761
   XY=     0.7020   XZ=     0.3048   YZ=    -1.0507
 Traceless Quadrupole moment (field-independent basis, Debye-Ang):
   XX=     5.0272   YY=     0.1932   ZZ=    -5.2204
   XY=     0.7020   XZ=     0.3048   YZ=    -1.0507
 Octapole moment (field-independent basis, Debye-Ang**2):
  XXX=   -64.1659  YYY=    36.0588  ZZZ=   -80.0163  XYY=   -20.7770
  XXY=     8.4819  XXZ=   -18.7488  XZZ=   -15.0956  YZZ=    10.3665
  YYZ=   -31.6498  XYZ=     3.7992
 Hexadecapole moment (field-independent basis, Debye-Ang**3):
 XXXX=  -499.5422 YYYY=  -425.9265 ZZZZ=  -295.5254 XXXY=    67.8913
 XXXZ=   -36.5433 YYYX=    92.6334 YYYZ=     7.8770 ZZZX=   -32.1250
 ZZZY=    -3.4107 XXYY=  -164.5333 XXZZ=  -140.3479 YYZZ=  -118.9712
 XXYZ=    -2.0885 YYXZ=    -7.1301 ZZXY=    36.4183
 N-N= 3.272131606732D+02 E-N=-1.553733425915D+03  KE= 3.821270678401D+02
  Exact polarizability:  70.125   3.402  71.014   3.600   4.481  50.978
 Approx polarizability:  80.773   7.141  83.537   6.664   6.824  65.604
                          Isotropic Fermi Contact Couplings
        Atom                 a.u.       MegaHertz       Gauss      10(-4) cm-1
     1  O(17)              0.00059      -0.35488      -0.12663      -0.11838
     2  H(1)               0.00002       0.07019       0.02505       0.02341
     3  O(17)             -0.00565       3.42590       1.22244       1.14276
     4  C(13)              0.01537      17.28343       6.16716       5.76513
     5  H(1)              -0.00397     -17.76558      -6.33920      -5.92596
     6  O(17)             -0.00364       2.20616       0.78721       0.73590
     7  H(1)              -0.00013      -0.58328      -0.20813      -0.19456
     8  C(13)             -0.03120     -35.07497     -12.51562     -11.69975
     9  H(1)               0.00942      42.11471      15.02758      14.04796
    10  C(13)              0.06344      71.31690      25.44764      23.78876
    11  H(1)              -0.00744     -33.27564     -11.87357     -11.09956
    12  H(1)              -0.00738     -32.98968     -11.77154     -11.00417
    13  C(13)              0.20921     235.18998      83.92163      78.45093
    14  H(1)              -0.01217     -54.41609     -19.41701     -18.15125
    15  H(1)              -0.01107     -49.48306     -17.65679     -16.50577
    16  H(1)              -0.00759     -33.91807     -12.10281     -11.31385
 --------------------------------------------------------
       Center         ----  Spin Dipole Couplings  ----
                      3XX-RR        3YY-RR        3ZZ-RR
 --------------------------------------------------------
     1   Atom        0.003003     -0.001915     -0.001088
     2   Atom        0.001393      0.000153     -0.001546
     3   Atom        0.004800      0.008346     -0.013146
     4   Atom        0.001819      0.004313     -0.006131
     5   Atom       -0.000394      0.001690     -0.001296
     6   Atom       -0.008025      0.013407     -0.005382
     7   Atom        0.006238     -0.004508     -0.001729
     8   Atom        0.082322     -0.122403      0.040081
     9   Atom        0.001350     -0.000178     -0.001173
    10   Atom       -0.228758      0.290726     -0.061968
    11   Atom        0.030688     -0.004647     -0.026041
    12   Atom       -0.027547      0.012474      0.015073
    13   Atom       -0.378636      0.648250     -0.269615
    14   Atom        0.041691     -0.004125     -0.037565
    15   Atom       -0.004708     -0.006704      0.011412
    16   Atom       -0.041458      0.007378      0.034080
 --------------------------------------------------------
                        XY            XZ            YZ
 --------------------------------------------------------
     1   Atom       -0.000316     -0.002426      0.001609
     2   Atom       -0.001895     -0.000029      0.000193
     3   Atom       -0.002572      0.001367      0.003120
     4   Atom       -0.003381      0.002341     -0.003468
     5   Atom       -0.001707      0.002884     -0.001654
     6   Atom       -0.001742     -0.002723     -0.015121
     7   Atom       -0.007881      0.010930     -0.005324
     8   Atom       -0.052624      0.036612      0.118332
     9   Atom        0.007842      0.005863     -0.010502
    10   Atom        0.112096     -0.060052     -0.317441
    11   Atom       -0.009214     -0.010120     -0.011152
    12   Atom       -0.005377     -0.017975      0.016563
    13   Atom        0.253791     -0.099345     -0.432807
    14   Atom       -0.020530      0.030103     -0.026185
    15   Atom       -0.008844     -0.057222      0.004437
    16   Atom        0.025897      0.028454      0.024552
 --------------------------------------------------------


 ---------------------------------------------------------------------------------
              Anisotropic Spin Dipole Couplings in Principal Axis System
 ---------------------------------------------------------------------------------

       Atom             a.u.   MegaHertz   Gauss  10(-4) cm-1        Axes

              Baa    -0.0035     0.250     0.089     0.083  0.2282 -0.6805  0.6963
     1 O(17)  Bbb    -0.0008     0.060     0.021     0.020  0.4149  0.7149  0.5628
              Bcc     0.0043    -0.310    -0.111    -0.103  0.8808 -0.1605 -0.4455
 
              Baa    -0.0016    -0.854    -0.305    -0.285 -0.1777 -0.2951  0.9388
     2 H(1)   Bbb    -0.0012    -0.624    -0.223    -0.208  0.5609  0.7535  0.3430
              Bcc     0.0028     1.478     0.528     0.493  0.8086 -0.5875 -0.0316
 
              Baa    -0.0138     0.995     0.355     0.332 -0.0933 -0.1498  0.9843
     3 O(17)  Bbb     0.0038    -0.278    -0.099    -0.093  0.8993  0.4116  0.1479
              Bcc     0.0099    -0.717    -0.256    -0.239 -0.4273  0.8989  0.0963
 
              Baa    -0.0074    -0.990    -0.353    -0.330 -0.1560  0.2392  0.9584
     4 C(13)  Bbb    -0.0005    -0.072    -0.026    -0.024  0.8229  0.5681 -0.0078
              Bcc     0.0079     1.062     0.379     0.354 -0.5463  0.7874 -0.2855
 
              Baa    -0.0038    -2.011    -0.718    -0.671 -0.6398  0.0326  0.7679
     5 H(1)   Bbb    -0.0005    -0.263    -0.094    -0.088  0.5366  0.7342  0.4159
              Bcc     0.0043     2.275     0.812     0.759 -0.5502  0.6781 -0.4872
 
              Baa    -0.0152     1.102     0.393     0.368  0.4086  0.4454  0.7966
     6 O(17)  Bbb    -0.0066     0.476     0.170     0.159  0.9127 -0.1930 -0.3603
              Bcc     0.0218    -1.579    -0.563    -0.527 -0.0067  0.8743 -0.4854
 
              Baa    -0.0094    -5.017    -1.790    -1.674 -0.6167 -0.1529  0.7722
     7 H(1)   Bbb    -0.0085    -4.544    -1.621    -1.516  0.2210  0.9079  0.3562
              Bcc     0.0179     9.561     3.412     3.189  0.7556 -0.3904  0.5261
 
              Baa    -0.1991   -26.716    -9.533    -8.912  0.2207  0.8604 -0.4594
     8 C(13)  Bbb     0.0913    12.258     4.374     4.089  0.7996 -0.4293 -0.4200
              Bcc     0.1077    14.458     5.159     4.823  0.5586  0.2747  0.7827
 
              Baa    -0.0165    -8.779    -3.133    -2.928 -0.4786  0.6271  0.6146
     9 H(1)   Bbb     0.0061     3.231     1.153     1.078  0.8168  0.0612  0.5737
              Bcc     0.0104     5.549     1.980     1.851  0.3221  0.7765 -0.5415
 
              Baa    -0.2550   -34.215   -12.209   -11.413  0.7667 -0.4331 -0.4739
    10 C(13)  Bbb    -0.2447   -32.838   -11.717   -10.953  0.6186  0.3008  0.7259
              Bcc     0.4997    67.052    23.926    22.366  0.1718  0.8496 -0.4986
 
              Baa    -0.0334   -17.835    -6.364    -5.949  0.1993  0.4089  0.8905
    11 H(1)   Bbb    -0.0004    -0.238    -0.085    -0.079  0.1219  0.8914 -0.4366
              Bcc     0.0339    18.073     6.449     6.028  0.9723 -0.1956 -0.1278
 
              Baa    -0.0341   -18.208    -6.497    -6.073  0.9375 -0.0154  0.3477
    12 H(1)   Bbb    -0.0009    -0.497    -0.177    -0.166  0.2238  0.7919 -0.5682
              Bcc     0.0351    18.704     6.674     6.239 -0.2666  0.6105  0.7458
 
              Baa    -0.4419   -59.301   -21.160   -19.781 -0.2906  0.4107  0.8642
    13 C(13)  Bbb    -0.4373   -58.678   -20.938   -19.573  0.9331 -0.0782  0.3509
              Bcc     0.8792   117.980    42.098    39.354  0.2118  0.9084 -0.3605
 
              Baa    -0.0553   -29.502   -10.527    -9.841 -0.1993  0.3819  0.9025
    14 H(1)   Bbb    -0.0085    -4.512    -1.610    -1.505  0.4899  0.8364 -0.2457
              Bcc     0.0638    34.014    12.137    11.346  0.8487 -0.3932  0.3538
 
              Baa    -0.0547   -29.204   -10.421    -9.741  0.7565  0.0793  0.6491
    15 H(1)   Bbb    -0.0076    -4.065    -1.450    -1.356  0.0263  0.9881 -0.1514
              Bcc     0.0624    33.269    11.871    11.097 -0.6534  0.1316  0.7455
 
              Baa    -0.0562   -29.995   -10.703   -10.005  0.9309 -0.2970 -0.2126
    16 H(1)   Bbb    -0.0062    -3.331    -1.189    -1.111  0.1249  0.8058 -0.5788
              Bcc     0.0625    33.326    11.892    11.116  0.3432  0.5123  0.7873
 

 ---------------------------------------------------------------------------------

 Use density number 0.
 Entering OneElI...
 Calculate overlap and kinetic energy integrals
    NBasis = 187  MinDer = 2  MaxDer = 2
 Requested accuracy = 0.1000D-12
 PrsmSu:  NPrtUS=   1 ThrOK=F
 PRISM was handed   130760330 working-precision words and  2547 shell-pairs
 Entering OneElI...
 Calculate potential energy integrals
    NBasis = 187  MinDer = 2  MaxDer = 2
 Requested accuracy = 0.1000D-12
 PrsmSu:  NPrtUS=   8 ThrOK=T
 PRISM was handed    16302741 working-precision words and  2357 shell-pairs
 PRISM was handed    16302741 working-precision words and  2357 shell-pairs
 PRISM was handed    16302741 working-precision words and  2357 shell-pairs
 PRISM was handed    16302741 working-precision words and  2357 shell-pairs
 PRISM was handed    16302741 working-precision words and  2357 shell-pairs
 PRISM was handed    16302741 working-precision words and  2357 shell-pairs
 PRISM was handed    16302741 working-precision words and  2357 shell-pairs
 PRISM was handed    16302741 working-precision words and  2357 shell-pairs
 Polarizability after L701:
                1             2             3
      1  0.701255D+02
      2  0.340159D+01  0.710142D+02
      3  0.360040D+01  0.448147D+01  0.509782D+02
 Dipole Derivatives after L701:
               1            2            3            4            5
      1-0.411692D+00 0.306305D-01 0.512813D-01 0.316154D+00-0.606245D-02
      2 0.121360D+00-0.125256D+00 0.114091D+00-0.121748D-01 0.172270D+00
      3 0.147025D+00 0.418768D-01-0.303684D+00-0.387106D-01-0.731403D-01
               6            7            8            9           10
      1-0.773400D-01-0.223773D+00-0.148794D-01 0.134206D+00 0.838354D+00
      2-0.480894D-01-0.692348D-01-0.320761D+00-0.192839D+00 0.470879D-01
      3 0.299237D+00 0.526447D-01 0.211203D-02-0.570313D+00 0.156510D+00
              11           12           13           14           15
      1 0.193364D+00-0.131372D+00-0.307283D-01-0.193238D-01 0.365915D-01
      2 0.599613D+00 0.303628D+00 0.407094D-01-0.444528D-01-0.483775D-02
      3 0.210021D+00 0.938627D+00-0.602995D-01 0.492894D-01 0.126998D-01
              16           17           18           19           20
      1-0.757503D+00-0.128900D+00-0.342053D-01 0.375059D+00-0.254025D-01
      2-0.104296D+00-0.507327D+00-0.200267D+00 0.284459D-01 0.211567D+00
      3-0.233774D+00-0.242839D+00-0.692517D+00 0.285721D-01 0.151188D-01
              21           22           23           24           25
      1 0.132671D-01-0.458739D-01-0.521433D-01 0.329084D-01 0.153087D-01
      2 0.655183D-01-0.923996D-01 0.458130D-01-0.959331D-01 0.434291D-01
      3 0.280917D+00 0.316884D-01 0.521802D-02 0.225273D-01 0.168029D-02
              26           27           28           29           30
      1 0.463925D-01 0.503935D-02-0.442772D-01-0.712002D-01-0.182632D-01
      2 0.851518D-01-0.372378D-01-0.105612D+00-0.339673D+00 0.150798D+00
      3-0.336200D-01-0.112289D-01-0.522286D-01 0.142262D+00-0.121847D+00
              31           32           33           34           35
      1-0.490345D-01 0.540833D-01 0.868839D-02 0.721665D-01 0.366149D-01
      2 0.361832D-01 0.103369D+00-0.455272D-01 0.205774D-01 0.132263D+00
      3-0.854096D-02-0.322966D-01 0.806087D-01 0.316549D-01-0.593846D-01
              36           37           38           39           40
      1-0.522195D-02-0.793975D-01 0.479806D-01 0.147778D-01-0.199022D-01
      2-0.632798D-01 0.658962D-01-0.119994D+00 0.944334D-01 0.205184D-01
      3 0.503761D-01-0.611125D-02 0.837129D-01-0.630845D-01-0.248666D-01
              41           42           43           44           45
      1 0.352717D-02-0.349716D-01 0.181530D-01-0.434835D-01 0.362001D-01
      2 0.133304D-01 0.179556D-01-0.703841D-02 0.623990D-01-0.288963D-01
      3-0.212754D-02 0.548411D-01 0.273200D-01-0.378676D-01 0.361412D-01
              46           47           48
      1 0.269855D-01-0.511977D-01-0.315859D-01
      2-0.334522D-01 0.316867D-01-0.295159D-01
      3-0.525645D-01-0.683358D-01-0.133009D-01
 Hessian after L701:
                1             2             3             4             5
      1  0.367934D+01
      2  0.285882D+01  0.821687D+01
      3 -0.251835D+00 -0.224471D+01  0.110647D+02
      4 -0.397379D+01  0.186663D+01  0.176490D+01  0.394504D+01
      5  0.158910D+01 -0.521755D+01  0.120626D+01 -0.200281D+01  0.521345D+01
      6  0.149905D+01  0.120916D+01 -0.566945D+01 -0.156194D+01 -0.136839D+01
      7  0.560030D+00 -0.393892D+01 -0.656177D+00 -0.695582D-01  0.393835D+00
      8 -0.381882D+01 -0.291323D+01  0.775307D-01  0.311126D+00  0.145892D+00
      9 -0.640714D+00  0.912149D-01 -0.555584D+01  0.329145D-01  0.948911D-01
     10 -0.345087D+00  0.525121D-01 -0.197694D+00  0.177014D-01  0.673100D-01
     11 -0.342315D-01  0.101729D+00  0.241058D+00  0.200726D-01 -0.268165D-01
     12 -0.113559D+00  0.142398D+00  0.136282D+00  0.896164D-02 -0.230595D-01
     13 -0.713824D-02 -0.500567D-01 -0.772787D-01 -0.155066D-01 -0.155865D-02
     14  0.989522D-02 -0.956500D-01 -0.369601D-01  0.619571D-02  0.108296D-01
     15 -0.773145D-01  0.522397D-01  0.128150D-01  0.889852D-02 -0.207879D-02
     16 -0.394355D+00 -0.169405D+00 -0.234075D+00  0.109021D-01 -0.744029D-01
     17 -0.930225D-01 -0.110566D+00  0.507814D+00 -0.144758D+00 -0.880311D-01
     18 -0.133973D+00  0.553457D+00  0.383795D+00 -0.242479D+00  0.972551D-01
     19 -0.242417D-01 -0.230259D-01 -0.172973D-01  0.159333D-02  0.175085D-02
     20 -0.123071D-01  0.686270D-01  0.769382D-01 -0.151729D-01 -0.672222D-02
     21 -0.939524D-02  0.292477D-01 -0.433411D-02 -0.842512D-03 -0.101932D-02
     22  0.353721D+00 -0.329500D+00 -0.250672D+00  0.211546D-01  0.943100D-02
     23 -0.294459D+00 -0.520734D-01  0.117078D+00 -0.782853D-02 -0.114772D-01
     24 -0.218494D+00  0.116674D+00 -0.138734D+00 -0.700095D-02 -0.273605D-02
     25  0.159979D-02 -0.117415D-01 -0.148549D-01  0.452635D-02  0.245821D-02
     26 -0.127239D-01  0.296006D-03  0.141138D-01 -0.437993D-02 -0.303497D-02
     27 -0.191499D-01  0.169651D-01  0.118420D-01 -0.719299D-02 -0.370121D-02
     28  0.144026D+00 -0.635847D-01 -0.272742D-01  0.249116D-01  0.107858D-01
     29 -0.738236D-01 -0.852836D-01 -0.113630D-02 -0.472156D-02 -0.788712D-02
     30 -0.381525D-01 -0.371951D-03 -0.108820D+00 -0.143721D-02 -0.828446D-03
     31  0.236352D-01 -0.124349D-01 -0.790486D-02  0.778603D-02  0.423679D-02
     32 -0.823850D-02 -0.524434D-02  0.229834D-02 -0.165697D-02 -0.146964D-02
     33 -0.322137D-02  0.181156D-02 -0.651947D-02 -0.409296D-03 -0.414872D-03
     34  0.162083D-01 -0.384982D-02  0.727956D-02  0.480348D-02  0.682571D-03
     35  0.103852D-01 -0.214312D-01  0.436453D-03  0.462384D-02  0.119710D-02
     36  0.307090D-01 -0.570277D-02 -0.163488D-01  0.799381D-02  0.427608D-02
     37 -0.195604D-01 -0.146850D+00 -0.327724D-01  0.176618D-01 -0.671554D-03
     38 -0.902981D-01  0.713708D-01  0.276384D-01 -0.167935D-01 -0.424832D-02
     39 -0.268737D-01  0.458975D-01 -0.850523D-01 -0.498688D-02 -0.108343D-02
     40  0.696653D-02 -0.274584D-01 -0.551702D-02  0.665477D-02  0.276605D-02
     41 -0.107674D-01  0.868595D-02  0.244982D-02 -0.304157D-02 -0.145840D-02
     42  0.105544D-02 -0.409569D-02 -0.833465D-02  0.160553D-02  0.850380D-03
     43 -0.152215D-01  0.273586D-02  0.224916D-02 -0.302337D-02 -0.223454D-02
     44 -0.114524D-01  0.133122D-01 -0.422777D-02 -0.266681D-02 -0.416434D-03
     45  0.563758D-02 -0.283492D-01 -0.185337D-01  0.625670D-02  0.183513D-02
     46 -0.613507D-02 -0.387361D-02 -0.107657D-02 -0.865972D-03 -0.678990D-03
     47 -0.805266D-02  0.201423D-01  0.134131D-01 -0.482218D-02 -0.225880D-02
     48 -0.376420D-02  0.241617D-01  0.254132D-02 -0.523863D-02 -0.206139D-02
                6             7             8             9            10
      6  0.544636D+01
      7  0.124406D+00  0.644519D+01
      8  0.560210D-01  0.462901D+01  0.114035D+02
      9  0.246224D+00  0.412029D+01 -0.155128D+01  0.527745D+01
     10  0.320330D-01 -0.776047D+01 -0.754961D+00 -0.306758D+01  0.183272D+02
     11 -0.180255D-01 -0.737773D+00 -0.888410D+01  0.665881D+00 -0.758679D+00
     12 -0.228916D-01 -0.316205D+01  0.634405D+00  0.473355D+00 -0.915644D+00
     13  0.149942D-01  0.211435D+00  0.591433D-01 -0.848904D-02 -0.515388D+01
     14  0.776121D-02  0.946516D-01  0.350160D+00 -0.668996D-01  0.134046D+00
     15 -0.698766D-02 -0.313910D-01 -0.177536D-01 -0.195178D+00 -0.596004D-01
     16 -0.139528D+00 -0.206646D+00  0.271361D-01  0.208660D-01 -0.478388D+01
     17  0.129012D+00 -0.284390D-02  0.461403D-02  0.348808D+00  0.322139D+01
     18  0.444326D-01  0.728288D-02  0.489562D+00  0.560276D+00  0.402327D+01
     19 -0.244000D-04 -0.743577D-01 -0.131586D-01 -0.115862D-01  0.192181D+00
     20 -0.298165D-02 -0.518658D-02  0.408234D-01  0.152199D+00 -0.115283D-02
     21 -0.275709D-02 -0.852783D-02  0.597021D-01  0.311275D-01 -0.582541D-02
     22  0.443983D-02  0.137845D+00  0.839096D-01 -0.493643D-02 -0.651804D+00
     23 -0.200695D-02  0.281518D-01 -0.767704D-04  0.180408D-01 -0.178284D+01
     24 -0.124337D-01 -0.278744D-01  0.119765D-01 -0.159429D+00  0.121476D+00
     25  0.129029D-02  0.472673D-01 -0.426205D-01 -0.100777D+00 -0.406859D-01
     26 -0.127316D-02 -0.558854D-01 -0.202055D-01  0.593379D-01  0.506091D-01
     27 -0.317991D-02 -0.116798D+00  0.548157D-01  0.706683D-01  0.101132D+00
     28  0.983451D-02  0.678922D+00 -0.160450D+00 -0.273066D+00  0.162069D+00
     29 -0.176876D-02 -0.168915D+00 -0.362045D+00  0.407027D-01 -0.399493D-01
     30 -0.809465D-02 -0.285134D+00  0.309503D-01 -0.337794D+00 -0.108235D+00
     31  0.348416D-02  0.738122D-01 -0.163909D-01 -0.180020D-01  0.166322D+00
     32 -0.813716D-03 -0.157684D-01 -0.165872D-01  0.428483D-02 -0.204398D-01
     33 -0.907904D-03 -0.125318D-01  0.324983D-02 -0.161748D-01  0.377645D-01
     34  0.158334D-02  0.138508D+00  0.188314D-01  0.216208D-01 -0.204519D-01
     35  0.245396D-02  0.823168D-01 -0.101324D+00  0.899951D-02 -0.447243D-02
     36  0.253942D-02  0.119028D+00  0.106961D-01 -0.940677D-01  0.985431D-02
     37  0.820246D-02 -0.966326D-01 -0.234865D+00 -0.572931D-01 -0.740974D-01
     38 -0.467479D-02 -0.160878D+00  0.161101D+00  0.696227D-01 -0.109725D+00
     39 -0.113588D-01 -0.801125D-01  0.148848D+00 -0.179049D+00  0.102538D-01
     40  0.375670D-02  0.291674D-01 -0.555078D-01 -0.607564D-02  0.128223D-01
     41 -0.139530D-02 -0.342672D-01  0.223568D-01  0.483347D-02 -0.332040D-01
     42  0.112276D-03  0.535277D-02 -0.608345D-02 -0.190293D-01  0.139713D-01
     43 -0.126328D-02 -0.940391D-01 -0.286329D-01 -0.599788D-02 -0.308553D-01
     44 -0.108562D-02 -0.860152D-01  0.120193D+00  0.232842D-01 -0.844555D-02
     45  0.172282D-02  0.199899D-01 -0.545532D-01 -0.107508D+00  0.918533D-02
     46 -0.310080D-03 -0.204765D-01 -0.375116D-02 -0.117946D-02 -0.170964D-01
     47 -0.199545D-02 -0.215171D-01  0.489362D-01  0.360770D-01 -0.119960D-01
     48 -0.332635D-02 -0.157573D-01  0.519093D-01  0.497222D-02 -0.436706D-02
               11            12            13            14            15
     11  0.223583D+02
     12 -0.241020D+01  0.163509D+02
     13  0.206591D+00 -0.856175D-01  0.503515D+01
     14 -0.193808D+01 -0.121847D+01 -0.109765D+00  0.148202D+01
     15 -0.133612D+01 -0.462065D+01  0.320780D+00  0.160755D+01  0.462234D+01
     16  0.325132D+01  0.400058D+01 -0.167794D-01 -0.237491D+00 -0.155021D+00
     17 -0.629004D+01  0.317046D+01 -0.290962D+00 -0.898473D-01 -0.273083D+00
     18  0.324955D+01 -0.598752D+01 -0.150840D+00 -0.248104D+00  0.825019D-01
     19 -0.109563D+00  0.146595D-01 -0.265302D-01  0.550118D-01 -0.290376D-02
     20  0.535832D-01  0.317596D-01  0.545751D-01  0.185515D+00 -0.603887D-02
     21 -0.952797D-01  0.196305D+00  0.243636D-02  0.147210D-01 -0.382136D-01
     22 -0.177037D+01  0.236688D+00  0.398289D-01  0.145276D+00 -0.379495D-01
     23 -0.578209D+01 -0.115944D+00  0.162783D+00 -0.487089D-01  0.465073D-01
     24 -0.106905D+00 -0.638604D+01 -0.317767D-01  0.172138D-01  0.139426D+00
     25  0.998591D-01  0.151546D+00  0.355197D-04 -0.943065D-02  0.153077D-02
     26  0.931798D-01 -0.530971D-01 -0.323318D-02  0.127291D-01 -0.213157D-02
     27 -0.650329D-01  0.697287D-01 -0.248532D-02  0.157272D-01 -0.448892D-02
     28  0.266777D-01 -0.170155D+00 -0.465808D-01 -0.314261D-01  0.656987D-02
     29  0.174036D+00 -0.559340D-01 -0.291201D-02  0.234411D-01 -0.198393D-01
     30 -0.182363D-01 -0.166991D-01  0.901446D-03 -0.314980D-01  0.913513D-02
     31 -0.755359D-02  0.451679D-01  0.166984D-02 -0.127969D-01  0.560490D-02
     32 -0.346785D-01 -0.868541D-02 -0.237517D-02  0.305103D-02 -0.129675D-02
     33 -0.936096D-02 -0.284158D-01  0.657551D-03 -0.490530D-03 -0.120344D-02
     34 -0.251184D-01 -0.382831D-01  0.687911D-03 -0.314673D-02  0.631353D-02
     35 -0.184446D-02 -0.550435D-02  0.104461D-02 -0.100994D-01  0.257289D-02
     36  0.181277D-02 -0.166825D-01  0.927000D-02 -0.162797D-01  0.119506D-01
     37 -0.133902D+00  0.193873D-01 -0.178142D-01 -0.383888D-01  0.131618D-01
     38  0.111161D+00 -0.333957D-01 -0.217773D-01  0.849728D-01 -0.347193D-01
     39 -0.360536D-01 -0.144023D+00  0.634201D-02 -0.279865D-01 -0.143976D-01
     40 -0.412667D-01  0.151622D-01  0.535015D-03 -0.114392D-01  0.452356D-02
     41  0.278807D-01 -0.167549D-01 -0.943091D-03  0.635360D-02 -0.273693D-02
     42 -0.188739D-01 -0.129553D-01  0.647359D-03 -0.461153D-02  0.704818D-03
     43  0.138341D-01 -0.899300D-02 -0.405764D-02  0.607600D-02 -0.240156D-02
     44  0.914466D-02 -0.405879D-01 -0.712344D-03  0.146960D-01 -0.102974D-01
     45 -0.629292D-01  0.222547D-01  0.175336D-03 -0.198410D-01  0.555432D-02
     46  0.953668D-04  0.214964D-02 -0.106230D-02  0.273285D-02 -0.801761D-03
     47  0.286315D-01  0.260353D-02  0.158692D-03  0.861847D-02 -0.277467D-02
     48  0.187103D-01 -0.129788D-01  0.282285D-03  0.816604D-02 -0.330697D-02
               16            17            18            19            20
     16  0.119833D+02
     17 -0.215173D+01  0.875642D+01
     18 -0.429164D+01 -0.278737D+01  0.122141D+02
     19 -0.718316D+01 -0.642598D-01  0.656429D-01  0.708550D+01
     20 -0.371732D+00 -0.177435D+01 -0.108598D+01  0.305927D+00  0.157984D+01
     21  0.109098D+00 -0.732904D+00 -0.700762D+01 -0.148630D+00  0.816826D+00
     22  0.175291D+00 -0.161164D+00  0.991365D-01 -0.479986D-01 -0.890297D-02
     23 -0.861490D-01 -0.263334D+00 -0.918796D-01 -0.558450D-01 -0.204707D-01
     24  0.164324D+00 -0.114222D+00 -0.117237D+00 -0.387969D-01 -0.830511D-02
     25  0.106221D+00 -0.298954D-01  0.370315D-01 -0.342457D-02  0.124645D-01
     26 -0.549285D-01 -0.576569D-01 -0.503352D-02 -0.373602D-02 -0.830945D-02
     27 -0.454171D-01  0.188548D-01 -0.680406D-01 -0.409414D-02 -0.139583D-01
     28  0.328272D+00  0.926383D-01  0.317551D+00  0.146108D-01  0.426628D-01
     29  0.121655D+00 -0.170526D+00  0.575400D-01  0.134055D-01  0.547176D-02
     30  0.307800D+00  0.392828D-01 -0.138041D-01  0.165831D-01  0.223370D-01
     31  0.420112D-01 -0.745018D-02  0.218472D-01  0.254996D-02  0.123292D-01
     32 -0.552808D-02 -0.110339D-01 -0.164218D-02  0.178336D-03 -0.217466D-02
     33  0.430679D-02  0.109796D-02 -0.865738D-02  0.494861D-03  0.669940D-03
     34  0.685076D-02  0.988041D-02  0.229101D-01 -0.124578D-03  0.764756D-03
     35  0.281635D-01 -0.142456D-01  0.260714D-01  0.157151D-02  0.727608D-02
     36  0.525743D-01  0.107220D-01  0.294205D-01  0.246568D-02  0.115496D-01
     37 -0.336968D-01 -0.309508D+00  0.183818D+00  0.631773D-01 -0.760646D-02
     38 -0.175481D+00  0.272728D-01 -0.172459D+00 -0.816558D-01 -0.110073D+00
     39  0.149717D+00 -0.246993D+00 -0.107655D+00  0.113803D+00 -0.383068D-02
     40  0.395719D-01 -0.537557D-01  0.375246D-01  0.562370D-02  0.998248D-02
     41 -0.309202D-01  0.793115D-02 -0.196746D-01 -0.446899D-02 -0.560648D-02
     42  0.272244D-01 -0.239827D-01  0.774000D-03  0.565491D-02  0.240693D-02
     43 -0.334387D-01  0.720240D-02 -0.513621D-02 -0.516710D-02 -0.370790D-02
     44 -0.149265D-01 -0.165102D-01 -0.202603D-01  0.760948D-03 -0.648273D-02
     45  0.451165D-01 -0.754009D-01  0.430159D-01  0.315242D-02  0.156911D-01
     46 -0.404285D-01 -0.217549D-01  0.804966D-02 -0.230927D-03 -0.129365D-01
     47 -0.555810D-01  0.899001D-01 -0.410372D-01 -0.228920D-01 -0.694708D-02
     48 -0.159260D-01  0.278985D-01 -0.477537D-01  0.876472D-03 -0.928127D-02
               21            22            23            24            25
     21  0.692571D+01
     22 -0.627779D-01  0.960482D+01
     23 -0.404238D-01  0.763758D+00  0.192465D+02
     24 -0.351825D-01 -0.300240D+01 -0.363219D+01  0.151801D+02
     25 -0.291509D-02 -0.441929D+01 -0.379802D+00 -0.848750D+00  0.432134D+01
     26  0.163125D-02 -0.290415D+00 -0.412743D+01  0.983380D+00  0.440848D+00
     27  0.437245D-03 -0.719507D+00  0.102247D+01 -0.241207D+01  0.919871D+00
     28  0.106691D-01 -0.462802D+01  0.144367D+01  0.411786D+01  0.807275D-02
     29  0.435084D-02  0.135507D+01 -0.964712D+01  0.299151D+01 -0.473236D-01
     30 -0.722677D-02  0.388104D+01  0.300047D+01 -0.534291D+01 -0.111331D+00
     31 -0.934612D-03  0.209111D-01 -0.146639D-03 -0.457106D-01 -0.188154D-01
     32  0.132696D-03 -0.451129D-01  0.704228D-01 -0.580602D-02 -0.141713D-01
     33 -0.853982D-03 -0.845824D-01  0.902475D-02  0.379017D-01 -0.376578D-01
     34  0.616411D-03  0.127007D+00 -0.632702D-01 -0.116591D+00 -0.223095D-01
     35  0.402491D-03  0.573275D-02  0.111327D+00 -0.423646D-01  0.454883D-04
     36 -0.834406D-03  0.171452D-02 -0.454442D-01  0.255549D-01 -0.231642D-02
     37  0.110634D+00 -0.720130D+00  0.244677D+00 -0.634339D-01  0.152804D-01
     38 -0.503524D-01  0.245328D+00  0.456019D+00 -0.220520D+00 -0.360403D-01
     39 -0.395596D-01 -0.686747D-01 -0.283811D+00 -0.743028D+00  0.225975D-01
     40  0.297387D-02  0.959561D-03 -0.525918D-01  0.176525D-01 -0.540583D-02
     41 -0.224715D-02 -0.119528D-01  0.876829D-02 -0.183624D-01  0.227978D-02
     42 -0.126324D-02  0.102423D-01 -0.289695D-01 -0.141849D-01 -0.235896D-02
     43 -0.194912D-02  0.193800D-01  0.396850D-01 -0.268731D-01  0.506035D-02
     44  0.156032D-02 -0.829357D-02 -0.172277D-01  0.183608D-01  0.731295D-02
     45 -0.300177D-02 -0.113185D-01 -0.217351D-01  0.413444D-02 -0.174607D-01
     46  0.537104D-02 -0.336785D-01  0.402076D-01  0.638608D-02  0.525837D-03
     47 -0.634800D-02  0.171979D-01  0.769828D-01  0.122889D-01  0.575691D-02
     48 -0.127291D-01  0.955243D-02  0.488035D-01 -0.258916D-01  0.455548D-02
               26            27            28            29            30
     26  0.408103D+01
     27 -0.113440D+01  0.216833D+01
     28 -0.318553D-01 -0.780412D-01  0.920475D+01
     29  0.708033D-01  0.370134D-01 -0.353517D+00  0.171048D+02
     30  0.350407D-01  0.810612D-01 -0.288544D+01 -0.424328D+01  0.122696D+02
     31 -0.744548D-02 -0.292676D-01 -0.152205D+01 -0.649092D+00 -0.242266D+00
     32  0.868223D-02 -0.156315D-01 -0.541615D+00 -0.382961D+01  0.218295D-01
     33 -0.924024D-02 -0.222129D-01 -0.170338D+00  0.103795D-01 -0.398452D+01
     34  0.421094D-02  0.599660D-02 -0.427397D+01 -0.296429D+00 -0.476981D+00
     35  0.159146D-01  0.535346D-01 -0.508593D+00 -0.350988D+01  0.127165D+01
     36  0.487876D-01  0.839236D-01 -0.805493D+00  0.126892D+01 -0.239211D+01
     37 -0.351173D-01  0.104991D-01 -0.762293D-01  0.979391D-01 -0.759245D-01
     38 -0.563440D-01  0.480981D-01 -0.100339D-01  0.147152D+00 -0.178625D+00
     39  0.680750D-01  0.138071D-02 -0.555842D-01 -0.961768D-01 -0.863450D-01
     40  0.122310D-02  0.148736D-01 -0.375005D-01 -0.314663D-01  0.102115D-02
     41 -0.286213D-02 -0.105521D-01  0.197302D-01  0.478305D-01  0.920117D-02
     42  0.495954D-03  0.790926D-02 -0.238239D-02 -0.150116D-01 -0.372132D-01
     43  0.370061D-02 -0.229383D-01  0.169724D-01  0.371209D-01 -0.364434D-02
     44 -0.147119D-02 -0.115125D-01  0.174929D-01 -0.880707D-02  0.500991D-02
     45 -0.660488D-02  0.249853D-01 -0.196668D-01 -0.185255D-01 -0.190700D-01
     46 -0.872518D-03 -0.748131D-02  0.174121D-02  0.429538D-01  0.211931D-01
     47 -0.532597D-02 -0.126918D-01  0.474180D-01  0.476449D-01  0.370624D-01
     48  0.917696D-03 -0.102748D-01  0.249497D-01  0.412568D-01 -0.516893D-02
               31            32            33            34            35
     31  0.119712D+01
     32  0.529207D+00  0.377349D+01
     33  0.151614D+00  0.625223D-01  0.403645D+01
     34 -0.422075D-01  0.923764D-01  0.116875D+00  0.408719D+01
     35  0.953118D-01  0.402419D-01 -0.663628D-01  0.252969D+00  0.341907D+01
     36  0.111532D+00 -0.601736D-01  0.239904D-01  0.445026D+00 -0.128243D+01
     37  0.400676D-01  0.283500D-01 -0.194283D-02 -0.193573D-01  0.239383D-01
     38  0.459660D-01  0.698817D-03 -0.137080D-02  0.103028D-01  0.424331D-01
     39  0.100895D-01  0.370165D-02 -0.235147D-01  0.341531D-02  0.302130D-01
     40 -0.119490D-01  0.157415D-02  0.786086D-03 -0.505454D-03 -0.988916D-02
     41  0.157820D-01  0.517700D-02 -0.198819D-02 -0.159569D-02  0.108809D-01
     42 -0.521253D-02 -0.155861D-02 -0.373594D-02  0.538120D-03 -0.700729D-03
     43  0.126023D-01  0.138078D-02 -0.226323D-02 -0.875662D-03  0.130661D-01
     44  0.109591D-02 -0.113829D-02 -0.182331D-03  0.352729D-02  0.458363D-02
     45 -0.959508D-02 -0.300446D-03 -0.248014D-03  0.250146D-03 -0.615498D-02
     46  0.653478D-02  0.183943D-02  0.447705D-03 -0.145864D-02  0.378532D-02
     47  0.938191D-02  0.178501D-03  0.654801D-03 -0.135750D-03  0.590384D-02
     48  0.955426D-02  0.113895D-02 -0.136936D-02 -0.570210D-03  0.717965D-02
               36            37            38            39            40
     36  0.235063D+01
     37  0.138197D-01  0.921107D+01
     38  0.354293D-01  0.106894D+01  0.102180D+02
     39 -0.187209D-02 -0.162568D+00 -0.813110D+00  0.996897D+01
     40 -0.867610D-02 -0.169677D+01 -0.513738D+00  0.724259D+00  0.176494D+01
     41  0.827580D-02 -0.708603D+00 -0.374862D+01 -0.246973D+00  0.776450D+00
     42 -0.401554D-02  0.736986D+00 -0.189865D+00 -0.368651D+01 -0.736525D+00
     43  0.860934D-02 -0.296807D+01 -0.531279D+00 -0.132640D+01 -0.791967D-01
     44  0.249528D-02 -0.323375D+00 -0.406505D+01  0.356109D+00  0.280933D-01
     45 -0.862134D-02 -0.142535D+01  0.623678D+00 -0.269132D+01  0.197573D-01
     46  0.388806D-02 -0.362491D+01  0.377161D+00  0.684722D+00 -0.359192D-01
     47  0.706866D-02  0.475040D+00 -0.333584D+01  0.110317D+01 -0.229756D-01
     48  0.653718D-02  0.722776D+00  0.894625D+00 -0.215666D+01 -0.854962D-01
               41            42            43            44            45
     41  0.348632D+01
     42  0.320392D+00  0.373155D+01
     43  0.540347D-01  0.623210D-01  0.307823D+01
     44  0.472883D-01 -0.166758D-01  0.365422D+00  0.385764D+01
     45 -0.107298D-01  0.597450D-01  0.130398D+01 -0.202865D+00  0.284102D+01
     46 -0.285132D-01 -0.119120D+00  0.101696D+00  0.321827D-01  0.698904D-01
     47  0.790739D-01 -0.137168D-01  0.215967D-01  0.502415D-01 -0.133215D+00
     48 -0.137382D-01 -0.135524D-01  0.307013D-01 -0.991250D-01 -0.154122D+00
               46            47            48
     46  0.367177D+01
     47 -0.428578D+00  0.289412D+01
     48 -0.672129D+00 -0.100056D+01  0.243308D+01
 ReadGW:  IGet=0 IStart=         114 Next=        7241 LGW=        7127.
 ICntrl=12127.
 Symmetry not used in FoFDir.
 MinBra= 0 MaxBra= 2 Meth= 1.
 IRaf=       0 NMat=   1 IRICut=       1 DoRegI=T DoRafI=F ISym2E= 0 JSym2E=0.
 PrsmSu:  NPrtUS=   8 ThrOK=T
 PRISM was handed    16288593 working-precision words and  2455 shell-pairs
 PRISM was handed    16288593 working-precision words and  2455 shell-pairs
 PRISM was handed    16288593 working-precision words and  2455 shell-pairs
 PRISM was handed    16288593 working-precision words and  2455 shell-pairs
 PRISM was handed    16288593 working-precision words and  2455 shell-pairs
 PRISM was handed    16288593 working-precision words and  2455 shell-pairs
 PRISM was handed    16288593 working-precision words and  2455 shell-pairs
 PRISM was handed    16288593 working-precision words and  2455 shell-pairs
 Pruned (  75, 302) grid will be used in CalDFT.
 CkSvGd:  ISavGI=        -1 IRadAn=       4 IRASav=       4 ISavGd=        -1.
 CalDSu:  NPrtUS=   8 ThrOK=T
 IPart= 0 IRanGd=          0 ScrnBf=T ScrnGd=T RCrit=4.00D+00 DoMicB=T.
 IPart= 4 IRanGd=          0 ScrnBf=T ScrnGd=T RCrit=4.00D+00 DoMicB=T.
 IPart= 5 IRanGd=          0 ScrnBf=T ScrnGd=T RCrit=4.00D+00 DoMicB=T.
 IPart= 6 IRanGd=          0 ScrnBf=T ScrnGd=T RCrit=4.00D+00 DoMicB=T.
 IPart= 1 IRanGd=          0 ScrnBf=T ScrnGd=T RCrit=4.00D+00 DoMicB=T.
 CutRad = 1000.00    CtRdIn =    0.00    XCrit =  15.00   ICut = 0
 CutRad = 1000.00    CtRdIn =    0.00    XCrit =  15.00   ICut = 0
 IPart= 7 IRanGd=          0 ScrnBf=T ScrnGd=T RCrit=4.00D+00 DoMicB=T.
 CutRad = 1000.00    CtRdIn =    0.00    XCrit =  15.00   ICut = 0
 IPart= 2 IRanGd=          0 ScrnBf=T ScrnGd=T RCrit=4.00D+00 DoMicB=T.
 CutRad = 1000.00    CtRdIn =    0.00    XCrit =  15.00   ICut = 0
 CutRad = 1000.00    CtRdIn =    0.00    XCrit =  15.00   ICut = 0
 CutRad = 1000.00    CtRdIn =    0.00    XCrit =  15.00   ICut = 0
 IPart= 3 IRanGd=          0 ScrnBf=T ScrnGd=T RCrit=4.00D+00 DoMicB=T.
 CutRad = 1000.00    CtRdIn =    0.00    XCrit =  15.00   ICut = 0
 CutRad = 1000.00    CtRdIn =    0.00    XCrit =  15.00   ICut = 0
 IPart= 3        14571 of        16310 points in      34 batches and      117 microbatches, Max-NSigAt=      16 Max-NSgAt2=      16
 IPart= 1        13080 of        14484 points in      29 batches and       83 microbatches, Max-NSigAt=      16 Max-NSgAt2=      16
 IPart= 5        16049 of        18354 points in      38 batches and      116 microbatches, Max-NSigAt=      16 Max-NSgAt2=      16
 IPart= 0        12233 of        13592 points in      27 batches and       83 microbatches, Max-NSigAt=      16 Max-NSgAt2=      16
 IPart= 4        15024 of        17518 points in      37 batches and      110 microbatches, Max-NSigAt=      16 Max-NSgAt2=      16
 IPart= 7        13367 of        15144 points in      30 batches and       83 microbatches, Max-NSigAt=      16 Max-NSgAt2=      16
 IPart= 6        14280 of        16494 points in      37 batches and      110 microbatches, Max-NSigAt=      16 Max-NSgAt2=      16
 IPart= 2        14093 of        16186 points in      32 batches and       80 microbatches, Max-NSigAt=      16 Max-NSgAt2=      16
 Polarizability after L703:
                1             2             3
      1  0.701255D+02
      2  0.340159D+01  0.710142D+02
      3  0.360040D+01  0.448147D+01  0.509782D+02
 Dipole Derivatives after L703:
               1            2            3            4            5
      1-0.411692D+00 0.306305D-01 0.512813D-01 0.316154D+00-0.606245D-02
      2 0.121360D+00-0.125256D+00 0.114091D+00-0.121748D-01 0.172270D+00
      3 0.147025D+00 0.418768D-01-0.303684D+00-0.387106D-01-0.731403D-01
               6            7            8            9           10
      1-0.773400D-01-0.223773D+00-0.148794D-01 0.134206D+00 0.838354D+00
      2-0.480894D-01-0.692348D-01-0.320761D+00-0.192839D+00 0.470879D-01
      3 0.299237D+00 0.526447D-01 0.211203D-02-0.570313D+00 0.156510D+00
              11           12           13           14           15
      1 0.193364D+00-0.131372D+00-0.307283D-01-0.193238D-01 0.365915D-01
      2 0.599613D+00 0.303628D+00 0.407094D-01-0.444528D-01-0.483775D-02
      3 0.210021D+00 0.938627D+00-0.602995D-01 0.492894D-01 0.126998D-01
              16           17           18           19           20
      1-0.757503D+00-0.128900D+00-0.342053D-01 0.375059D+00-0.254025D-01
      2-0.104296D+00-0.507327D+00-0.200267D+00 0.284459D-01 0.211567D+00
      3-0.233774D+00-0.242839D+00-0.692517D+00 0.285721D-01 0.151188D-01
              21           22           23           24           25
      1 0.132671D-01-0.458739D-01-0.521433D-01 0.329084D-01 0.153087D-01
      2 0.655183D-01-0.923996D-01 0.458130D-01-0.959331D-01 0.434291D-01
      3 0.280917D+00 0.316884D-01 0.521802D-02 0.225273D-01 0.168029D-02
              26           27           28           29           30
      1 0.463925D-01 0.503935D-02-0.442772D-01-0.712002D-01-0.182632D-01
      2 0.851518D-01-0.372378D-01-0.105612D+00-0.339673D+00 0.150798D+00
      3-0.336200D-01-0.112289D-01-0.522286D-01 0.142262D+00-0.121847D+00
              31           32           33           34           35
      1-0.490345D-01 0.540833D-01 0.868839D-02 0.721665D-01 0.366149D-01
      2 0.361832D-01 0.103369D+00-0.455272D-01 0.205774D-01 0.132263D+00
      3-0.854096D-02-0.322966D-01 0.806087D-01 0.316549D-01-0.593846D-01
              36           37           38           39           40
      1-0.522195D-02-0.793975D-01 0.479806D-01 0.147778D-01-0.199022D-01
      2-0.632798D-01 0.658962D-01-0.119994D+00 0.944334D-01 0.205184D-01
      3 0.503761D-01-0.611125D-02 0.837129D-01-0.630845D-01-0.248666D-01
              41           42           43           44           45
      1 0.352717D-02-0.349716D-01 0.181530D-01-0.434835D-01 0.362001D-01
      2 0.133304D-01 0.179556D-01-0.703841D-02 0.623990D-01-0.288963D-01
      3-0.212754D-02 0.548411D-01 0.273200D-01-0.378676D-01 0.361412D-01
              46           47           48
      1 0.269855D-01-0.511977D-01-0.315859D-01
      2-0.334522D-01 0.316867D-01-0.295159D-01
      3-0.525645D-01-0.683358D-01-0.133009D-01
 Hessian after L703:
                1             2             3             4             5
      1  0.459634D+00
      2  0.640550D-01  0.344312D+00
      3  0.133328D+00  0.178243D+00  0.176316D+00
      4 -0.227256D+00 -0.160308D+00 -0.135197D+00  0.268743D+00
      5 -0.208847D+00 -0.227079D+00 -0.161392D+00  0.169954D+00  0.218330D+00
      6 -0.160962D+00 -0.148119D+00 -0.118211D+00  0.151087D+00  0.146614D+00
      7 -0.200062D+00  0.844709D-01 -0.434647D-01 -0.379184D-01  0.383593D-01
      8  0.123369D+00 -0.114623D+00  0.173024D-01 -0.755278D-02  0.102837D-01
      9  0.257814D-01 -0.222642D-01 -0.527036D-01 -0.147111D-01  0.122670D-01
     10 -0.396849D-01  0.138733D-01  0.375723D-01 -0.548833D-02  0.253714D-02
     11  0.214379D-01 -0.837021D-02 -0.283002D-01 -0.230022D-02  0.340971D-02
     12 -0.837475D-03 -0.832125D-02 -0.620778D-02 -0.128535D-02  0.457384D-02
     13  0.211327D-02 -0.274112D-02 -0.246124D-03 -0.140817D-03 -0.181673D-03
     14 -0.676818D-03  0.214131D-02 -0.273648D-02  0.158288D-04 -0.449218D-03
     15 -0.394883D-02 -0.471740D-03  0.406124D-02  0.223191D-03 -0.344036D-03
     16  0.619694D-02  0.141269D-02  0.388806D-02  0.164410D-02 -0.318952D-02
     17 -0.141709D-02  0.147252D-02 -0.108136D-02 -0.675509D-03 -0.324172D-02
     18 -0.265521D-02  0.248710D-02  0.237474D-02 -0.551367D-03  0.507883D-03
     19 -0.106603D-02  0.327914D-03  0.837032D-03  0.113426D-03  0.144121D-02
     20 -0.117978D-03 -0.409678D-03  0.200724D-03  0.598009D-03 -0.618775D-03
     21  0.286406D-03  0.484546D-04 -0.862002D-03  0.227888D-03 -0.100244D-02
     22  0.249594D-02 -0.177109D-02  0.854074D-03 -0.107524D-03 -0.412749D-03
     23  0.192262D-02  0.197687D-02 -0.170249D-02  0.336387D-03 -0.457842D-03
     24  0.903495D-02 -0.166275D-02 -0.593134D-02  0.632141D-04 -0.106411D-02
     25 -0.264643D-02  0.480233D-03  0.162490D-02  0.698413D-04  0.352107D-03
     26  0.235466D-03  0.367397D-03 -0.359568D-03 -0.290133D-04 -0.439460D-04
     27 -0.350679D-03  0.178545D-03  0.307797D-03  0.323240D-04 -0.775969D-04
     28  0.418210D-03 -0.463129D-03  0.100383D-03  0.617742D-04  0.176169D-04
     29  0.269534D-03  0.604593D-04 -0.440874D-03 -0.147829D-03 -0.695291D-04
     30  0.285686D-03 -0.319007D-03 -0.712624D-04 -0.524860D-04  0.116403D-03
     31 -0.106248D-03 -0.544971D-04  0.416526D-04  0.484784D-04  0.362323D-04
     32  0.165838D-04 -0.159014D-03  0.121003D-03  0.216922D-04  0.753024D-05
     33 -0.117863D-03  0.450891D-03  0.427771D-03  0.125439D-03 -0.114353D-03
     34  0.218011D-03  0.268412D-03  0.454683D-03  0.767423D-04 -0.142067D-03
     35  0.195737D-03  0.265791D-03  0.490114D-03  0.965770D-04 -0.126025D-03
     36 -0.951868D-05  0.235069D-03  0.289805D-03  0.613066D-04 -0.102021D-03
     37 -0.111159D-03  0.751868D-04  0.542315D-03  0.165817D-03 -0.851780D-04
     38 -0.568248D-03 -0.217332D-03  0.107477D-03 -0.213142D-03  0.160889D-03
     39  0.964479D-04  0.834539D-04 -0.147710D-03  0.110844D-03 -0.116479D-03
     40  0.986119D-04  0.859573D-04 -0.135976D-03  0.232128D-04 -0.769846D-04
     41  0.981258D-04 -0.109684D-03 -0.953035D-04 -0.498300D-04 -0.595636D-05
     42  0.119450D-04 -0.162567D-03  0.148516D-03 -0.449379D-05  0.417793D-04
     43 -0.213122D-03  0.198520D-03 -0.857781D-04 -0.446016D-04  0.205365D-03
     44 -0.828482D-04  0.477404D-03 -0.519322D-03  0.177787D-03 -0.752495D-05
     45  0.155008D-04 -0.275043D-03  0.537317D-04 -0.129566D-03  0.123728D-03
     46 -0.288489D-04  0.894265D-04 -0.114040D-03  0.944588D-05  0.320271D-04
     47  0.109866D-03 -0.105899D-03  0.162564D-03  0.758880D-04 -0.920783D-04
     48  0.410648D-04 -0.130825D-03  0.154824D-03  0.000000D+00 -0.318953D-04
                6             7             8             9            10
      6  0.116497D+00
      7  0.589468D-02  0.346541D+00
      8  0.386371D-03 -0.133262D+00  0.180898D+00
      9 -0.246003D-02 -0.251605D-01 -0.150544D-01  0.348802D+00
     10  0.766237D-02 -0.854089D-01  0.634479D-02  0.600552D-02  0.534112D+00
     11  0.240396D-02 -0.327362D-02 -0.821204D-01  0.496680D-01 -0.146853D-01
     12  0.690731D-02  0.460329D-01  0.172523D-01 -0.188365D+00  0.148596D-01
     13  0.160630D-03 -0.287864D-03 -0.854389D-02  0.147687D-01 -0.510840D-01
     14  0.420064D-03  0.251253D-02  0.345473D-02  0.303958D-02  0.182503D-02
     15 -0.466300D-03  0.797399D-02  0.336121D-01 -0.382472D-01  0.315328D-02
     16 -0.323484D-02  0.817870D-02  0.171179D-02 -0.150339D-01 -0.153402D+00
     17 -0.664709D-03  0.149973D-02  0.476157D-02 -0.293573D-01 -0.676569D-01
     18 -0.800394D-03 -0.268700D-01 -0.364546D-01 -0.670182D-01 -0.620081D-01
     19 -0.495433D-04  0.336093D-03  0.123929D-02 -0.137679D-02  0.170043D-02
     20 -0.695457D-03  0.190526D-02  0.291114D-02  0.240681D-02 -0.253323D-02
     21  0.235381D-03  0.105416D-02  0.727789D-03 -0.333799D-03  0.216763D-03
     22 -0.248362D-03 -0.212587D-01  0.127198D-01  0.131666D-01 -0.176457D+00
     23 -0.553622D-03  0.557203D-02 -0.359423D-02 -0.135681D-02  0.551577D-01
     24 -0.146559D-02  0.332526D-01 -0.166779D-01 -0.179448D-03  0.389370D-02
     25  0.354176D-03 -0.393683D-02  0.269433D-02 -0.226165D-02 -0.471090D-02
     26 -0.540464D-04  0.130540D-02 -0.896927D-03  0.132209D-02  0.975464D-03
     27 -0.744815D-04 -0.266212D-03 -0.222764D-03  0.264783D-03 -0.370977D-02
     28 -0.278380D-03 -0.301893D-02 -0.225521D-04 -0.159214D-02 -0.211224D-01
     29  0.215539D-03 -0.297152D-03  0.723681D-03 -0.146350D-02  0.393320D-02
     30  0.375146D-04 -0.564477D-03 -0.713599D-03 -0.886684D-03 -0.761224D-02
     31 -0.668163D-04  0.151058D-03  0.000000D+00 -0.105207D-03  0.185315D-02
     32 -0.619469D-04  0.996459D-03  0.222566D-04  0.378838D-03  0.218640D-02
     33 -0.595399D-04  0.246348D-03  0.249444D-03  0.194503D-03 -0.192153D-02
     34 -0.902342D-04 -0.291934D-02 -0.880252D-04 -0.118318D-03  0.435154D-03
     35 -0.367275D-04 -0.420425D-03 -0.110491D-03 -0.303658D-04 -0.135691D-02
     36 -0.183341D-04  0.138559D-02  0.506366D-03  0.525974D-03  0.223945D-02
     37 -0.216548D-03 -0.696142D-04  0.521745D-03  0.586257D-03 -0.224956D-03
     38  0.165016D-03  0.000000D+00 -0.116366D-02  0.156162D-03  0.273696D-02
     39  0.583720D-04  0.224473D-03  0.865684D-03  0.169132D-03 -0.738180D-03
     40  0.301514D-04  0.644077D-04  0.385880D-03  0.588556D-04 -0.103158D-02
     41  0.802290D-05  0.973219D-04 -0.141917D-03  0.832304D-04 -0.685327D-03
     42 -0.119891D-03  0.644554D-04 -0.421457D-03  0.272126D-03 -0.126190D-03
     43 -0.903143D-04 -0.333810D-03  0.307261D-03  0.145182D-03  0.491130D-03
     44  0.136288D-03  0.355392D-03 -0.576849D-03 -0.358970D-03 -0.132155D-02
     45  0.347425D-04  0.149779D-03 -0.118028D-02 -0.284538D-03  0.897550D-03
     46  0.488175D-04 -0.574289D-04  0.174385D-03 -0.153079D-03  0.234426D-04
     47 -0.163674D-03  0.178130D-03  0.171677D-03  0.563840D-03 -0.133068D-02
     48 -0.949781D-04  0.470036D-04 -0.177420D-03  0.250227D-03 -0.384614D-03
               11            12            13            14            15
     11  0.642763D+00
     12 -0.638855D-01  0.455574D+00
     13  0.196157D-01 -0.662105D-02  0.612082D-01
     14 -0.276400D+00  0.904559D-01  0.214102D-02  0.304214D+00
     15  0.880947D-01 -0.779995D-01  0.412837D-02 -0.921652D-01  0.104947D+00
     16 -0.301489D-01 -0.543056D-01 -0.321237D-02 -0.644304D-02 -0.615229D-02
     17 -0.148271D+00 -0.359915D-01 -0.324672D-01 -0.263838D-01 -0.257384D-01
     18 -0.169402D-01 -0.108316D+00  0.128040D-02 -0.881724D-03  0.415888D-02
     19 -0.355600D-01  0.669402D-02 -0.292080D-02 -0.364810D-02 -0.394826D-02
     20 -0.328476D-01  0.251085D-02 -0.283476D-02 -0.786642D-05 -0.307571D-02
     21 -0.289017D-01  0.550697D-02 -0.275373D-02 -0.141679D-02  0.609365D-04
     22  0.488509D-01 -0.100743D-01 -0.459317D-02  0.498779D-02 -0.103763D-02
     23 -0.916642D-01 -0.126753D-01  0.230267D-01 -0.585134D-02  0.535914D-03
     24 -0.374829D-04 -0.902776D-01 -0.125427D-01  0.478718D-02  0.338466D-02
     25  0.880040D-02  0.267834D-01 -0.117120D-03  0.313384D-03 -0.537139D-03
     26 -0.228478D-02 -0.107497D-01 -0.694860D-04 -0.314895D-03  0.499256D-03
     27  0.159482D-03  0.106521D-02  0.694060D-03 -0.299252D-04 -0.218643D-03
     28 -0.118022D-01 -0.155189D-01 -0.174179D-03 -0.124910D-02 -0.113733D-04
     29  0.344174D-02  0.123511D-01  0.161456D-02  0.322535D-03 -0.473474D-03
     30  0.158068D-02  0.772593D-02  0.135298D-02 -0.180782D-02  0.288936D-03
     31 -0.132449D-02 -0.207382D-02 -0.150044D-03  0.243761D-03  0.577846D-04
     32  0.621876D-02 -0.546789D-02 -0.127199D-02  0.451728D-03  0.264629D-03
     33 -0.710251D-02 -0.258488D-03  0.660673D-03 -0.164574D-03 -0.133870D-03
     34 -0.117404D-02 -0.105333D-02  0.114536D-04 -0.515448D-04  0.417269D-04
     35 -0.428146D-02  0.211219D-02  0.808023D-03 -0.509267D-03 -0.217177D-04
     36  0.155440D-02 -0.207223D-02 -0.732532D-03  0.358791D-03 -0.822416D-04
     37  0.276838D-02 -0.356871D-02 -0.992344D-03  0.634555D-05  0.590251D-04
     38 -0.839384D-02  0.807812D-02  0.451858D-03 -0.956980D-03 -0.516406D-03
     39  0.132568D-02 -0.124267D-02 -0.225934D-03  0.213931D-03  0.794027D-04
     40 -0.972722D-03  0.371907D-03  0.350407D-03  0.395650D-04  0.186889D-04
     41 -0.571296D-03  0.299555D-03  0.366840D-03  0.356141D-04  0.640093D-04
     42 -0.104170D-03 -0.115955D-02 -0.404710D-04 -0.233070D-04  0.431331D-04
     43 -0.265937D-03  0.487136D-04 -0.115401D-04 -0.139562D-04  0.537929D-04
     44  0.849463D-03  0.100086D-02 -0.774936D-04  0.181993D-03 -0.285251D-03
     45  0.809684D-03 -0.237948D-03 -0.549648D-04 -0.948113D-04 -0.155348D-04
     46  0.341181D-04  0.548013D-03  0.000000D+00 -0.270250D-05 -0.743223D-04
     47 -0.147791D-02 -0.154376D-02  0.162881D-03  0.715431D-04  0.213771D-04
     48 -0.324984D-03 -0.642712D-03  0.171702D-03  0.451764D-04  0.139132D-03
               16            17            18            19            20
     16  0.217781D+00
     17  0.114795D-01  0.658246D+00
     18  0.140656D+00 -0.365241D-01  0.222831D+00
     19 -0.381305D-01  0.825590D-01 -0.364826D-01  0.385448D-01
     20  0.464302D-01 -0.493298D+00  0.918162D-01 -0.466659D-01  0.524895D+00
     21 -0.318842D-01  0.125610D+00 -0.511822D-01  0.324602D-01 -0.963147D-01
     22 -0.310962D-01  0.633535D-02 -0.886076D-02  0.315254D-02  0.174557D-04
     23 -0.242523D-01  0.860235D-02 -0.562009D-02  0.975377D-03  0.234976D-02
     24 -0.330357D-01  0.918561D-03 -0.483767D-02  0.163151D-02  0.146367D-02
     25  0.296165D-02 -0.120434D-02 -0.129686D-02 -0.116501D-02 -0.408478D-03
     26 -0.628479D-03 -0.192767D-03  0.681211D-03 -0.694302D-03  0.150043D-03
     27 -0.300385D-03  0.131817D-02  0.114419D-02  0.663188D-03 -0.126703D-03
     28 -0.791237D-02 -0.228341D-02 -0.240013D-02 -0.133679D-02  0.105678D-02
     29  0.398644D-02  0.909798D-03  0.627160D-03 -0.290241D-04 -0.629479D-03
     30  0.283778D-02 -0.158739D-02  0.209489D-02 -0.129230D-02  0.106902D-03
     31 -0.147349D-02 -0.273748D-03 -0.448523D-03  0.378253D-04  0.247994D-03
     32 -0.269747D-04 -0.481485D-03  0.120203D-03  0.570937D-04 -0.225867D-04
     33 -0.232856D-02  0.283467D-03 -0.566397D-03  0.776879D-04  0.293454D-03
     34  0.214514D-03  0.425397D-03  0.889708D-03  0.211678D-03 -0.750134D-04
     35 -0.575761D-03  0.484525D-04  0.117566D-03 -0.126767D-03  0.184469D-03
     36  0.702118D-04  0.353557D-03  0.327833D-03  0.255066D-03 -0.526513D-04
     37 -0.145216D-02  0.415081D-02 -0.131292D-02  0.780870D-03  0.427125D-04
     38 -0.840408D-03 -0.478731D-02 -0.590251D-03 -0.301341D-02  0.114386D-02
     39 -0.138105D-03  0.207055D-02 -0.127753D-02 -0.130852D-03  0.153902D-02
     40  0.480956D-03 -0.420774D-03  0.269354D-04 -0.184169D-03  0.335960D-03
     41  0.520493D-03 -0.833404D-03  0.552739D-03 -0.389915D-03  0.398164D-05
     42 -0.417689D-03  0.103896D-02  0.316960D-03  0.958867D-03 -0.909163D-03
     43 -0.327905D-03 -0.957234D-04  0.936233D-04  0.290117D-03  0.123766D-03
     44  0.413455D-03  0.818770D-03 -0.568280D-03  0.591253D-03 -0.483544D-03
     45 -0.434812D-03 -0.586477D-03  0.688967D-03  0.582666D-04  0.177376D-03
     46 -0.450857D-03  0.448413D-04 -0.604459D-04 -0.364444D-03  0.187729D-02
     47  0.150729D-03  0.263004D-02  0.669184D-03  0.293635D-02 -0.332076D-02
     48 -0.186346D-03 -0.623995D-04  0.601119D-04 -0.355500D-03  0.659421D-03
               21            22            23            24            25
     21  0.476836D-01
     22  0.702428D-03  0.545354D+00
     23  0.158417D-02 -0.116649D+00  0.139286D+00
     24  0.437669D-03  0.942410D-01  0.202910D+00  0.638427D+00
     25  0.668724D-03 -0.791939D-01  0.422837D-01  0.723076D-01  0.817575D-01
     26  0.636818D-04  0.492623D-01 -0.645285D-01 -0.963113D-01 -0.391216D-01
     27  0.771397D-04  0.679193D-01 -0.113372D+00 -0.266996D+00 -0.744964D-01
     28 -0.747272D-03 -0.232998D+00 -0.207849D-02 -0.157302D+00  0.926701D-02
     29 -0.309367D-04 -0.430473D-01 -0.626379D-01 -0.978034D-01 -0.113988D-01
     30 -0.103813D-02 -0.130372D+00 -0.483268D-01 -0.250108D+00 -0.222584D-01
     31 -0.901059D-04 -0.165859D-01  0.759153D-02  0.369578D-02  0.876166D-03
     32 -0.165031D-03 -0.133349D-01  0.716137D-02 -0.649790D-03 -0.640277D-03
     33  0.280457D-04 -0.214362D-01  0.709180D-02  0.546825D-02  0.841619D-03
     34 -0.119500D-03  0.112221D-01 -0.112085D-01 -0.194563D-01 -0.269100D-02
[...]
    Y7       -2.62017   0.00001   0.00000   0.00000   0.00003  -2.62014
    Z7       -0.99268   0.00000   0.00000   0.00074   0.00049  -0.99219
    X8        2.98853   0.00000   0.00000   0.00002   0.00003   2.98856
    Y8       -0.56027   0.00000   0.00000   0.00022   0.00030  -0.55997
    Z8        0.16543   0.00000   0.00000   0.00031   0.00039   0.16582
    X9        3.58894  -0.00001   0.00000   0.00001   0.00018   3.58913
    Y9       -1.36877   0.00000   0.00000   0.00029   0.00038  -1.36839
    Z9       -1.62438  -0.00001   0.00000   0.00027   0.00040  -1.62398
   X10        4.73141   0.00001   0.00000   0.00004  -0.00009   4.73132
   Y10        0.25961  -0.00002   0.00000  -0.00016  -0.00006   0.25955
   Z10        1.86574  -0.00001   0.00000   0.00042   0.00064   1.86638
   X11        6.70828   0.00000   0.00000  -0.00004  -0.00015   6.70813
   Y11       -0.24934  -0.00002   0.00000  -0.00048  -0.00035  -0.24969
   Z11        1.67604  -0.00001   0.00000   0.00025   0.00063   1.67666
   X12        4.16108   0.00001   0.00000   0.00029   0.00001   4.16109
   Y12        1.32220  -0.00002   0.00000  -0.00046  -0.00037   1.32183
   Z12        3.52323   0.00000   0.00000   0.00069   0.00086   3.52409
   X13        2.04553  -0.00001   0.00000   0.00036   0.00032   2.04585
   Y13       -4.64395  -0.00001   0.00000  -0.00012  -0.00005  -4.64400
   Z13        1.48557  -0.00001   0.00000  -0.00001   0.00000   1.48557
   X14        3.92513  -0.00001   0.00000   0.00133   0.00125   3.92638
   Y14       -5.18084  -0.00001   0.00000  -0.00141  -0.00132  -5.18217
   Z14        2.09655  -0.00002   0.00000  -0.00416  -0.00401   2.09255
   X15        0.70488  -0.00001   0.00000   0.00351   0.00335   0.70822
   Y15       -4.18211   0.00000   0.00000  -0.00019  -0.00014  -4.18225
   Z15        2.96601  -0.00001   0.00000   0.00285   0.00275   2.96876
   X16        1.34430  -0.00002   0.00000  -0.00353  -0.00342   1.34088
   Y16       -5.64513   0.00000   0.00000   0.00093   0.00099  -5.64414
   Z16       -0.16949  -0.00001   0.00000   0.00098   0.00093  -0.16855
         Item               Value     Threshold  Converged?
 Maximum Force            0.000022     0.000450     YES
 RMS     Force            0.000011     0.000300     YES
 Maximum Displacement     0.004005     0.001800     NO 
 RMS     Displacement     0.001106     0.001200     YES
 Predicted change in Energy=-2.043724D-08
 GradGradGradGradGradGradGradGradGradGradGradGradGradGradGradGradGradGrad


 Test job not archived.
 1\1\GINC-NODE63\Freq\UBMK\CBSB7\C4H9O3(2)\NYEE\15-Jul-2014\0\\# freq n
 osymm bmk/cbsb7 iop(7/33=1)\\Title Card Required\\0,2\O,-1.451672,1.11
 3945,1.435058\H,-2.092643,0.547368,0.985461\O,-0.277741,0.313875,1.399
 074\C,0.167653,0.265666,0.06735\H,0.161559,1.283116,-0.338005\O,-0.718
 783,-0.454352,-0.730319\H,-0.605246,-1.386533,-0.525302\C,1.58146,-0.2
 96483,0.087543\H,1.899187,-0.724324,-0.859583\C,2.503753,0.137378,0.98
 7305\H,3.54987,-0.131946,0.88692\H,2.201949,0.699677,1.864411\C,1.0824
 47,-2.457471,0.786132\H,2.077087,-2.741585,1.109449\H,0.373005,-2.2130
 75,1.569545\H,0.711372,-2.987275,-0.089689\\Version=AM64L-G03RevD.01\H
 F=-383.1783527\S2=0.788537\S2-1=0.\S2A=0.750272\RMSD=9.814e-09\RMSF=1.
 123e-05\ZeroPoint=0.1284248\Thermal=0.137335\Dipole=0.3127326,-0.72879
 84,-0.41637\DipoleDeriv=-0.4116919,0.12136,0.1470251,0.0306305,-0.1252
 563,0.0418768,0.0512813,0.1140911,-0.3036845,0.3161542,-0.0121748,-0.0
 387106,-0.0060625,0.1722704,-0.0731403,-0.07734,-0.0480894,0.299237,-0
 .2237729,-0.0692348,0.0526447,-0.0148794,-0.3207611,0.002112,0.1342059
 ,-0.1928395,-0.5703131,0.8383538,0.0470879,0.1565098,0.193364,0.599612
 6,0.2100212,-0.1313718,0.3036277,0.9386268,-0.0307283,0.0407094,-0.060
 2995,-0.0193238,-0.0444528,0.0492894,0.0365915,-0.0048377,0.0126998,-0
 .7575026,-0.1042961,-0.2337735,-0.1289001,-0.5073271,-0.2428389,-0.034
 2053,-0.2002671,-0.6925165,0.3750595,0.0284459,0.0285721,-0.0254025,0.
 2115671,0.0151188,0.0132671,0.0655183,0.2809173,-0.0458739,-0.0923996,
 0.0316884,-0.0521433,0.045813,0.005218,0.0329084,-0.0959331,0.0225273,
 0.0153087,0.0434291,0.0016803,0.0463925,0.0851518,-0.03362,0.0050394,-
 0.0372378,-0.0112289,-0.0442772,-0.1056117,-0.0522286,-0.0712002,-0.33
 96729,0.1422623,-0.0182632,0.1507976,-0.1218469,-0.0490345,0.0361832,-
 0.008541,0.0540833,0.1033694,-0.0322966,0.0086884,-0.0455272,0.0806087
 ,0.0721665,0.0205774,0.0316549,0.0366149,0.1322633,-0.0593846,-0.00522
 2,-0.0632798,0.0503761,-0.0793975,0.0658962,-0.0061113,0.0479806,-0.11
 99936,0.0837129,0.0147778,0.0944334,-0.0630845,-0.0199022,0.0205184,-0
 .0248666,0.0035272,0.0133304,-0.0021275,-0.0349716,0.0179556,0.0548411
 ,0.018153,-0.0070384,0.02732,-0.0434835,0.062399,-0.0378676,0.0362001,
 -0.0288963,0.0361412,0.0269855,-0.0334522,-0.0525645,-0.0511977,0.0316
 867,-0.0683358,-0.0315859,-0.0295159,-0.0133009\Polar=70.1254798,3.401
 5876,71.014186,3.6004002,4.4814695,50.9781962\PG=C01 [X(C4H9O3)]\NImag
 =1\\0.45963389,0.06405502,0.34431160,0.13332847,0.17824326,0.17631591,
 -0.22725618,-0.16030773,-0.13519725,0.26874301,-0.20884675,-0.22707896
 ,-0.16139200,0.16995389,0.21832970,-0.16096234,-0.14811942,-0.11821064
 ,0.15108656,0.14661434,0.11649686,-0.20006193,0.08447093,-0.04346473,-
 0.03791839,0.03835934,0.00589468,0.34654148,0.12336889,-0.11462257,0.0
 1730241,-0.00755278,0.01028375,0.00038637,-0.13326154,0.18089823,0.025
 78145,-0.02226416,-0.05270361,-0.01471105,0.01226696,-0.00246003,-0.02
 516047,-0.01505439,0.34880164,-0.03968493,0.01387327,0.03757234,-0.005
 48833,0.00253714,0.00766237,-0.08540893,0.00634479,0.00600552,0.534111
 96,0.02143790,-0.00837021,-0.02830015,-0.00230022,0.00340971,0.0024039
 6,-0.00327362,-0.08212039,0.04966801,-0.01468529,0.64276315,-0.0008374
 8,-0.00832125,-0.00620778,-0.00128535,0.00457384,0.00690731,0.04603290
 ,0.01725229,-0.18836497,0.01485965,-0.06388547,0.45557358,0.00211327,-
 0.00274112,-0.00024612,-0.00014082,-0.00018167,0.00016063,-0.00028786,
 -0.00854389,0.01476875,-0.05108396,0.01961568,-0.00662105,0.06120818,-
 0.00067682,0.00214131,-0.00273648,0.00001583,-0.00044922,0.00042006,0.
 00251253,0.00345473,0.00303958,0.00182503,-0.27640000,0.09045593,0.002
 14102,0.30421393,-0.00394883,-0.00047174,0.00406124,0.00022319,-0.0003
 4404,-0.00046630,0.00797399,0.03361211,-0.03824715,0.00315328,0.088094
 68,-0.07799953,0.00412837,-0.09216522,0.10494695,0.00619694,0.00141269
 ,0.00388806,0.00164410,-0.00318952,-0.00323484,0.00817870,0.00171179,-
 0.01503388,-0.15340220,-0.03014887,-0.05430564,-0.00321237,-0.00644304
 ,-0.00615229,0.21778120,-0.00141709,0.00147252,-0.00108136,-0.00067551
 ,-0.00324172,-0.00066471,0.00149973,0.00476157,-0.02935731,-0.06765692
 ,-0.14827118,-0.03599146,-0.03246716,-0.02638381,-0.02573843,0.0114795
 5,0.65824587,-0.00265521,0.00248710,0.00237474,-0.00055137,0.00050788,
 -0.00080039,-0.02687005,-0.03645463,-0.06701816,-0.06200810,-0.0169401
 6,-0.10831553,0.00128040,-0.00088172,0.00415888,0.14065635,-0.03652407
 ,0.22283132,-0.00106603,0.00032791,0.00083703,0.00011343,0.00144121,-0
 .00004954,0.00033609,0.00123929,-0.00137679,0.00170043,-0.03556002,0.0
 0669402,-0.00292080,-0.00364810,-0.00394826,-0.03813055,0.08255899,-0.
 03648264,0.03854481,-0.00011798,-0.00040968,0.00020072,0.00059801,-0.0
 0061877,-0.00069546,0.00190526,0.00291114,0.00240681,-0.00253323,-0.03
 284760,0.00251085,-0.00283476,-0.00000787,-0.00307571,0.04643017,-0.49
 329769,0.09181616,-0.04666594,0.52489472,0.00028641,0.00004845,-0.0008
 6200,0.00022789,-0.00100244,0.00023538,0.00105416,0.00072779,-0.000333
 80,0.00021676,-0.02890166,0.00550697,-0.00275373,-0.00141679,0.0000609
 4,-0.03188419,0.12561033,-0.05118221,0.03246025,-0.09631470,0.04768357
 ,0.00249594,-0.00177109,0.00085407,-0.00010752,-0.00041275,-0.00024836
 ,-0.02125867,0.01271983,0.01316659,-0.17645709,0.04885094,-0.01007428,
 -0.00459317,0.00498779,-0.00103763,-0.03109616,0.00633535,-0.00886076,
 0.00315254,0.00001746,0.00070243,0.54535441,0.00192262,0.00197687,-0.0
 0170249,0.00033639,-0.00045784,-0.00055362,0.00557203,-0.00359423,-0.0
 0135681,0.05515768,-0.09166416,-0.01267525,0.02302670,-0.00585134,0.00
 053591,-0.02425226,0.00860235,-0.00562009,0.00097538,0.00234976,0.0015
 8417,-0.11664868,0.13928580,0.00903495,-0.00166275,-0.00593134,0.00006
 321,-0.00106411,-0.00146559,0.03325256,-0.01667793,-0.00017945,0.00389
 370,-0.00003748,-0.09027759,-0.01254275,0.00478718,0.00338466,-0.03303
 567,0.00091856,-0.00483767,0.00163151,0.00146367,0.00043767,0.09424097
 ,0.20291038,0.63842727,-0.00264643,0.00048023,0.00162490,0.00006984,0.
 00035211,0.00035418,-0.00393683,0.00269433,-0.00226165,-0.00471090,0.0
 0880040,0.02678337,-0.00011712,0.00031338,-0.00053714,0.00296165,-0.00
 120434,-0.00129686,-0.00116501,-0.00040848,0.00066872,-0.07919389,0.04
 228374,0.07230759,0.08175746,0.00023547,0.00036740,-0.00035957,-0.0000
 2901,-0.00004395,-0.00005405,0.00130540,-0.00089693,0.00132209,0.00097
 546,-0.00228478,-0.01074969,-0.00006949,-0.00031489,0.00049926,-0.0006
 2848,-0.00019277,0.00068121,-0.00069430,0.00015004,0.00006368,0.049262
 34,-0.06452850,-0.09631126,-0.03912159,0.08345117,-0.00035068,0.000178
 55,0.00030780,0.00003232,-0.00007760,-0.00007448,-0.00026621,-0.000222
 76,0.00026478,-0.00370977,0.00015948,0.00106521,0.00069406,-0.00002993
 ,-0.00021864,-0.00030038,0.00131817,0.00114419,0.00066319,-0.00012670,
 0.00007714,0.06791935,-0.11337190,-0.26699630,-0.07449639,0.11435875,0
 .27731430,0.00041821,-0.00046313,0.00010038,0.00006177,0.00001762,-0.0
 0027838,-0.00301893,-0.00002255,-0.00159214,-0.02112239,-0.01180219,-0
 .01551891,-0.00017418,-0.00124910,-0.00001137,-0.00791237,-0.00228341,
 -0.00240013,-0.00133679,0.00105678,-0.00074727,-0.23299776,-0.00207849
 ,-0.15730172,0.00926701,-0.00439790,0.01086124,0.66739745,0.00026953,0
 .00006046,-0.00044087,-0.00014783,-0.00006953,0.00021554,-0.00029715,0
 .00072368,-0.00146350,0.00393320,0.00344174,0.01235115,0.00161456,0.00
 032253,-0.00047347,0.00398644,0.00090980,0.00062716,-0.00002902,-0.000
 62948,-0.00003094,-0.04304733,-0.06263792,-0.09780335,-0.01139882,-0.0
 0563211,-0.00681865,-0.06298853,0.26586360,0.00028569,-0.00031901,-0.0
 0007126,-0.00005249,0.00011640,0.00003751,-0.00056448,-0.00071360,-0.0
 0088668,-0.00761224,0.00158068,0.00772593,0.00135298,-0.00180782,0.000
 28894,0.00283778,-0.00158739,0.00209489,-0.00129230,0.00010690,-0.0010
 3813,-0.13037225,-0.04832684,-0.25010765,-0.02225843,-0.01704499,-0.01
 044053,0.07117040,0.24523055,0.53181923,-0.00010625,-0.00005450,0.0000
 4165,0.00004848,0.00003623,-0.00006682,0.00015106,0.00000061,-0.000105
 21,0.00185315,-0.00132449,-0.00207382,-0.00015004,0.00024376,0.0000577
 8,-0.00147349,-0.00027375,-0.00044852,0.00003783,0.00024799,-0.0000901
 1,-0.01658592,0.00759153,0.00369578,0.00087617,-0.00107987,0.00020960,
 -0.32037412,0.07259260,0.02584936,0.33835594,0.00001658,-0.00015901,0.
 00012100,0.00002169,0.00000753,-0.00006195,0.00099646,0.00002226,0.000
 37884,0.00218640,0.00621876,-0.00546789,-0.00127199,0.00045173,0.00026
 463,-0.00002697,-0.00048148,0.00012020,0.00005709,-0.00002259,-0.00016
 503,-0.01333488,0.00716137,-0.00064979,-0.00064028,-0.00463122,0.00221
 194,0.07682444,-0.05722158,-0.01893256,-0.07836905,0.04874946,-0.00011
 786,0.00045089,0.00042777,0.00012544,-0.00011435,-0.00005954,0.0002463
 5,0.00024944,0.00019450,-0.00192153,-0.00710251,-0.00025849,0.00066067
 ,-0.00016457,-0.00013387,-0.00232856,0.00028347,-0.00056640,0.00007769
 ,0.00029345,0.00002805,-0.02143620,0.00709180,0.00546825,0.00084162,0.
 00349465,-0.00019569,0.02786991,-0.02077552,-0.05387294,-0.02501444,0.
 02165379,0.04649452,0.00021801,0.00026841,0.00045468,0.00007674,-0.000
 14207,-0.00009023,-0.00291934,-0.00008803,-0.00011832,0.00043515,-0.00
 117404,-0.00105333,0.00001145,-0.00005154,0.00004173,0.00021451,0.0004
 2540,0.00088971,0.00021168,-0.00007501,-0.00011950,0.01122210,-0.01120
 853,-0.01945628,-0.00269100,-0.00032126,-0.00315687,-0.08049364,0.0476
 1619,0.06712050,-0.00294532,0.01344311,0.02115721,0.07686015,0.0001957
 4,0.00026579,0.00049011,0.00009658,-0.00012602,-0.00003673,-0.00042043
 ,-0.00011049,-0.00003037,-0.00135691,-0.00428146,0.00211219,0.00080802
 ,-0.00050927,-0.00002172,-0.00057576,0.00004845,0.00011757,-0.00012677
 ,0.00018447,-0.00007769,0.00383543,-0.00085331,-0.01010175,-0.00021109
 ,0.00713083,-0.00306938,0.04556053,-0.11553129,-0.12865601,0.00011555,
 0.00029813,-0.00488622,-0.04809726,0.11283548,-0.00000952,0.00023507,0
 .00028980,0.00006131,-0.00010202,-0.00001833,0.00138559,0.00050637,0.0
 0052597,0.00223945,0.00155440,-0.00207223,-0.00073253,0.00035879,-0.00
 008224,0.00007021,0.00035356,0.00032783,0.00025507,-0.00005265,-0.0000
 8495,0.00712907,-0.01052272,-0.01266712,-0.00332382,-0.00494856,0.0008
 6563,0.06092374,-0.13180065,-0.23574562,-0.00209038,0.00033742,0.00237
 113,-0.06590712,0.14409616,0.24631082,-0.00011116,0.00007519,0.0005423
 1,0.00016582,-0.00008518,-0.00021655,-0.00006961,0.00052175,0.00058626
 ,-0.00022496,0.00276838,-0.00356871,-0.00099234,0.00000635,0.00005903,
 -0.00145216,0.00415081,-0.00131292,0.00078087,0.00004271,0.00075649,-0
 .00012172,0.02106335,0.00427176,-0.00057522,-0.00550605,0.00203707,-0.
 01064830,-0.01132842,-0.00776420,0.00014085,0.00000891,-0.00004028,-0.
 00012314,0.00033132,0.00000318,0.58033959,-0.00056825,-0.00021733,0.00
 010748,-0.00021314,0.00016089,0.00016502,0.00000022,-0.00116366,0.0001
 5616,0.00273696,-0.00839384,0.00807812,0.00045186,-0.00095698,-0.00051
 641,-0.00084041,-0.00478731,-0.00059025,-0.00301341,0.00114386,-0.0010
 3137,0.05887846,0.08889128,0.01497487,-0.00194184,-0.01287525,0.005676
 47,-0.04325293,-0.02935738,-0.03580673,0.00054269,-0.00014186,-0.00056
 391,-0.00040651,0.00054354,0.00003905,-0.09709911,0.13585710,0.0000964
 5,0.00008345,-0.00014771,0.00011084,-0.00011648,0.00005837,0.00022447,
 0.00086568,0.00016913,-0.00073818,0.00132568,-0.00124267,-0.00022593,0
 .00021393,0.00007940,-0.00013810,0.00207055,-0.00127753,-0.00013085,0.
 00153902,0.00143107,-0.01712775,-0.02602443,-0.01598346,0.00204067,0.0
 0918066,-0.00365199,0.00974865,0.00176851,0.01212184,-0.00008879,0.000
 04838,0.00004687,0.00007480,0.00020632,-0.00014405,0.02932414,0.181918
 04,0.51658714,0.00009861,0.00008596,-0.00013598,0.00002321,-0.00007698
 ,0.00003015,0.00006441,0.00038588,0.00005886,-0.00103158,-0.00097272,0
 .00037191,0.00035041,0.00003956,0.00001869,0.00048096,-0.00042077,0.00
 002694,-0.00018417,0.00033596,0.00026944,0.00073106,-0.00349219,0.0004
 0004,0.00016893,0.00037876,-0.00017295,0.00147913,-0.00027206,0.001049
 67,-0.00001880,0.00000522,-0.00006256,-0.00008055,-0.00002554,-0.00000
 694,-0.30116196,0.07537606,-0.08149692,0.31518180,0.00009813,-0.000109
 68,-0.00009530,-0.00004983,-0.00000596,0.00000802,0.00009732,-0.000141
 92,0.00008323,-0.00068533,-0.00057130,0.00029956,0.00036684,0.00003561
 ,0.00006401,0.00052049,-0.00083340,0.00055274,-0.00038991,0.00000398,-
 0.00063806,0.00101934,-0.00851885,0.00068167,0.00013916,0.00068021,-0.
 00013602,0.00242704,0.00063884,0.00184182,-0.00036659,-0.00014766,0.00
 000203,-0.00006315,-0.00010625,0.00003072,0.08677918,-0.04277936,0.014
 61271,-0.07940261,0.04430607,0.00001195,-0.00016257,0.00014852,-0.0000
 0449,0.00004178,-0.00011989,0.00006446,-0.00042146,0.00027213,-0.00012
 619,-0.00010417,-0.00115955,-0.00004047,-0.00002331,0.00004313,-0.0004
 1769,0.00103896,0.00031696,0.00095887,-0.00090916,-0.00026260,0.000400
 72,0.00300438,-0.00005760,-0.00023984,-0.00008103,-0.00018948,-0.00110
 453,-0.00068389,-0.00087013,0.00008944,0.00003548,0.00014136,0.0000798
 7,-0.00007077,0.00000193,-0.08747785,0.01077342,-0.07397459,0.08888984
 ,-0.01391656,0.07003700,-0.00021312,0.00019852,-0.00008578,-0.00004460
 ,0.00020537,-0.00009031,-0.00033381,0.00030726,0.00014518,0.00049113,-
 0.00026594,0.00004871,-0.00001154,-0.00001396,0.00005379,-0.00032790,-
 0.00009572,0.00009362,0.00029012,0.00012377,-0.00052267,-0.00011305,-0
 .00012565,0.00033844,-0.00003207,-0.00003371,-0.00011366,-0.00021254,0
 .00014317,-0.00017993,0.00005524,0.00000847,0.00002971,0.00000283,-0.0
 0017501,-0.00000379,-0.18027388,0.04967994,0.13897037,-0.01158912,0.00
 409321,0.02045940,0.18216221,-0.00008285,0.00047740,-0.00051932,0.0001
 7779,-0.00000752,0.00013629,0.00035539,-0.00057685,-0.00035897,-0.0013
 2155,0.00084946,0.00100086,-0.00007749,0.00018199,-0.00028525,0.000413
 45,0.00081877,-0.00056828,0.00059125,-0.00048354,0.00103415,-0.0083196
 6,-0.00790360,0.00241431,0.00003391,-0.00054469,0.00013199,0.00293050,
 0.00135547,0.00284793,0.00005764,-0.00006210,0.00005031,-0.00014477,-0
 .00005349,-0.00009086,0.04269996,-0.03139707,-0.05329121,0.00394151,0.
 00070081,-0.00629393,-0.05101397,0.03646367,0.00001550,-0.00027504,0.0
 0005373,-0.00012957,0.00012373,0.00003474,0.00014978,-0.00118028,-0.00
 028454,0.00089755,0.00080968,-0.00023795,-0.00005496,-0.00009481,-0.00
 001553,-0.00043481,-0.00058648,0.00068897,0.00005827,0.00017738,-0.001
 95259,0.00204995,0.00208456,-0.00122324,-0.00012044,0.00015322,0.00010
 616,-0.00103786,-0.00002854,-0.00028898,-0.00000920,-0.00003223,-0.000
 00054,0.00007305,-0.00001800,0.00005134,0.14062946,-0.06478922,-0.2057
 3333,-0.00917804,0.00259604,0.00994859,-0.14808368,0.06254780,0.209096
 89,-0.00002885,0.00008943,-0.00011404,0.00000945,0.00003203,0.00004882
 ,-0.00005743,0.00017438,-0.00015308,0.00002344,0.00003412,0.00054801,0
 .00000090,-0.00000270,-0.00007432,-0.00045086,0.00004484,-0.00006045,-
 0.00036444,0.00187729,-0.00052508,-0.00043109,-0.00012360,-0.00079411,
 -0.00003259,-0.00027576,0.00015008,-0.00033256,-0.00064654,0.00042993,
 0.00013524,0.00007480,-0.00008716,0.00000035,0.00004558,0.00000649,-0.
 08567268,-0.04033058,-0.08064387,-0.00451234,-0.01458330,-0.02154347,0
 .01015011,0.00975889,0.01517500,0.08156334,0.00010987,-0.00010590,0.00
 016256,0.00007589,-0.00009208,-0.00016367,0.00017813,0.00017168,0.0005
 6384,-0.00133068,-0.00147791,-0.00154376,0.00016288,0.00007154,0.00002
 138,0.00015073,0.00263004,0.00066918,0.00293635,-0.00332076,0.00051009
 ,-0.00237255,-0.00225770,-0.00384221,-0.00017083,0.00016544,-0.0001824
 0,-0.00027869,-0.00223683,0.00147065,0.00003965,-0.00004174,0.00003726
 ,0.00001905,0.00026489,0.00000595,-0.04442914,-0.09452662,-0.13440082,
 0.00411396,0.00684886,0.00777281,-0.00303575,0.00018128,-0.00148782,0.
 04383113,0.09372581,0.00004106,-0.00013083,0.00015482,0.00000081,-0.00
 003190,-0.00009498,0.00004700,-0.00017742,0.00025023,-0.00038461,-0.00
 032498,-0.00064271,0.00017170,0.00004518,0.00013913,-0.00018635,-0.000
 06240,0.00006011,-0.00035550,0.00065942,0.00025550,0.00269409,0.002942
 96,0.00200915,-0.00008647,-0.00020437,0.00062192,-0.00068199,0.0001265
 0,-0.00076640,0.00004367,0.00013777,-0.00008497,0.00001010,-0.00005371
 ,0.00007008,-0.07782921,-0.11859076,-0.22833850,-0.00006215,-0.0059866
 0,-0.00427578,-0.01105940,-0.00875581,-0.01024372,0.08763724,0.1304069
 5,0.24088612\\-0.00001562,-0.00001013,-0.00002193,-0.00000946,-0.00001
 447,-0.00001956,-0.00000930,-0.00000088,-0.00000854,-0.00000339,-0.000
 00572,-0.00000796,-0.00000783,-0.00000830,-0.00001372,0.00000641,-0.00
 002002,-0.00000739,0.00000828,-0.00001076,-0.00000355,-0.00000181,0.00
 000035,0.00000213,0.00000787,0.00000005,0.00000718,-0.00000504,0.00001
 529,0.00000634,-0.00000474,0.00002074,0.00001181,-0.00001477,0.0000174
 7,-0.00000002,0.00001410,0.00000569,0.00001306,0.00001073,0.00001100,0
 .00001982,0.00000534,0.00000367,0.00000784,0.00001924,-0.00000397,0.00
 001449\\\@


 SCIENCE IS A VERY HUMAN FORM OF KNOWLEDGE.
 WE ARE ALWAYS AT THE BRINK OF THE KNOWN,
 WE ALWAYS FEEL FORWARD FOR WHAT IS HOPED.
 EVERY JUDGEMENT IN SCIENCE STANDS ON THE EDGE OF ERROR, AND IS PERSONAL.
 SCIENCE IS A TRIBUTE TO WHAT WE CAN KNOW ALTHOUGH WE ARE FALLIBLE.

                     -- J. BRONOWSKI
 Job cpu time:  0 days  1 hours 46 minutes  6.9 seconds.
 File lengths (MBytes):  RWF=    125 Int=      0 D2E=      0 Chk=      8 Scr=      1
 Normal termination of Gaussian 03 at Tue Jul 15 16:39:38 2014.
