 Entering Gaussian System, Link 0=g03
 Input=g-cyclo2-freq.gjf
 Output=g-cyclo2-freq.log
 Initial command:
 /opt/g03/l1.exe /scratch/shamel/Gau-3104.inp -scrdir=/scratch/shamel/
 Entering Link 1 = /opt/g03/l1.exe PID=      3106.
  
 Copyright (c) 1988,1990,1992,1993,1995,1998,2003,2004, Gaussian, Inc.
                  All Rights Reserved.
  
 This is the Gaussian(R) 03 program.  It is based on the
 the Gaussian(R) 98 system (copyright 1998, Gaussian, Inc.),
 the Gaussian(R) 94 system (copyright 1995, Gaussian, Inc.),
 the Gaussian 92(TM) system (copyright 1992, Gaussian, Inc.),
 the Gaussian 90(TM) system (copyright 1990, Gaussian, Inc.),
 the Gaussian 88(TM) system (copyright 1988, Gaussian, Inc.),
 the Gaussian 86(TM) system (copyright 1986, Carnegie Mellon
 University), and the Gaussian 82(TM) system (copyright 1983,
 Carnegie Mellon University). Gaussian is a federally registered
 trademark of Gaussian, Inc.
  
 This software contains proprietary and confidential information,
 including trade secrets, belonging to Gaussian, Inc.
  
 This software is provided under written license and may be
 used, copied, transmitted, or stored only in accord with that
 written license.
  
 The following legend is applicable only to US Government
 contracts under FAR:
  
                    RESTRICTED RIGHTS LEGEND
  
 Use, reproduction and disclosure by the US Government is
 subject to restrictions as set forth in subparagraphs (a)
 and (c) of the Commercial Computer Software - Restricted
 Rights clause in FAR 52.227-19.
  
 Gaussian, Inc.
 340 Quinnipiac St., Bldg. 40, Wallingford CT 06492
  
  
 ---------------------------------------------------------------
 Warning -- This program may not be used in any manner that
 competes with the business of Gaussian, Inc. or will provide
 assistance to any competitor of Gaussian, Inc.  The licensee
 of this program is prohibited from giving any competitor of
 Gaussian, Inc. access to this program.  By using this program,
 the user acknowledges that Gaussian, Inc. is engaged in the
 business of creating and licensing software in the field of
 computational chemistry and represents and warrants to the
 licensee that it is not a competitor of Gaussian, Inc. and that
 it will not use this program in any manner prohibited above.
 ---------------------------------------------------------------
  

 Cite this work as:
 Gaussian 03, Revision D.01,
 M. J. Frisch, G. W. Trucks, H. B. Schlegel, G. E. Scuseria, 
 M. A. Robb, J. R. Cheeseman, J. A. Montgomery, Jr., T. Vreven, 
 K. N. Kudin, J. C. Burant, J. M. Millam, S. S. Iyengar, J. Tomasi, 
 V. Barone, B. Mennucci, M. Cossi, G. Scalmani, N. Rega, 
 G. A. Petersson, H. Nakatsuji, M. Hada, M. Ehara, K. Toyota, 
 R. Fukuda, J. Hasegawa, M. Ishida, T. Nakajima, Y. Honda, O. Kitao, 
 H. Nakai, M. Klene, X. Li, J. E. Knox, H. P. Hratchian, J. B. Cross, 
 V. Bakken, C. Adamo, J. Jaramillo, R. Gomperts, R. E. Stratmann, 
 O. Yazyev, A. J. Austin, R. Cammi, C. Pomelli, J. W. Ochterski, 
 P. Y. Ayala, K. Morokuma, G. A. Voth, P. Salvador, J. J. Dannenberg, 
 V. G. Zakrzewski, S. Dapprich, A. D. Daniels, M. C. Strain, 
 O. Farkas, D. K. Malick, A. D. Rabuck, K. Raghavachari, 
 J. B. Foresman, J. V. Ortiz, Q. Cui, A. G. Baboul, S. Clifford, 
 J. Cioslowski, B. B. Stefanov, G. Liu, A. Liashenko, P. Piskorz, 
 I. Komaromi, R. L. Martin, D. J. Fox, T. Keith, M. A. Al-Laham, 
 C. Y. Peng, A. Nanayakkara, M. Challacombe, P. M. W. Gill, 
 B. Johnson, W. Chen, M. W. Wong, C. Gonzalez, and J. A. Pople, 
 Gaussian, Inc., Wallingford CT, 2004.
 
 ******************************************
 Gaussian 03:  AM64L-G03RevD.01 13-Oct-2005
                18-Jun-2013 
 ******************************************
 %chk=g-cyclo2-freq.chk
 %mem=1000mb
 %nproc=8
 Will use up to    8 processors via shared memory.
 -------------------------------------
 # freq nosymm b3lyp/cbsb7 iop(7/33=1)
 -------------------------------------
 1/10=4,30=1,38=1/1,3;
 2/15=1,17=6,18=5,40=1/2;
 3/5=4,6=6,7=700,11=2,16=1,25=1,30=1,74=-5/1,2,3;
 4//1;
 5/5=2,38=5/2;
 8/6=4,10=90,11=11/1;
 11/6=1,8=1,9=11,15=111,16=1,31=1/1,2,10;
 10/6=1,31=1/2;
 6/7=2,8=2,9=2,10=2,18=1,28=1/1;
 7/8=1,10=1,25=1,30=1,33=1/1,2,3,16;
 1/10=4,30=1/3;
 99//99;
 -------------------
 Title Card Required
 -------------------
 Symbolic Z-matrix:
 Charge =  0 Multiplicity = 1
 C                    -0.11218  -0.35038   0.26273 
 C                     1.35619  -0.17222  -0.18366 
 C                    -0.24089   1.15178  -0.07348 
 H                    -0.21212  -0.57589   1.32749 
 H                     1.65688  -0.7314   -1.08081 
 H                     2.11238  -0.32932   0.59242 
 H                    -0.90652   1.37458  -0.91122 
 H                    -0.45803   1.81454   0.7697 
 O                     1.15331   1.22644  -0.46795 
 C                    -0.98195  -1.31659  -0.53419 
 H                    -0.64438  -2.34819  -0.35526 
 H                    -2.01665  -1.24953  -0.18765 
 O                    -1.03004  -1.02743  -1.92607 
 H                    -0.15436  -1.17004  -2.29847 
 

 GradGradGradGradGradGradGradGradGradGradGradGradGradGradGradGradGradGrad
 Berny optimization.
 Initialization pass.
 Trust Radius=3.00D-01 FncErr=1.00D-07 GrdErr=1.00D-07
 Number of steps in this run=   2 maximum allowed number of steps=   2.
 GradGradGradGradGradGradGradGradGradGradGradGradGradGradGradGradGradGrad

                          Input orientation:                          
 ---------------------------------------------------------------------
 Center     Atomic     Atomic              Coordinates (Angstroms)
 Number     Number      Type              X           Y           Z
 ---------------------------------------------------------------------
    1          6             0       -0.112176   -0.350375    0.262733
    2          6             0        1.356191   -0.172217   -0.183656
    3          6             0       -0.240894    1.151778   -0.073484
    4          1             0       -0.212116   -0.575886    1.327492
    5          1             0        1.656880   -0.731399   -1.080809
    6          1             0        2.112382   -0.329317    0.592416
    7          1             0       -0.906518    1.374576   -0.911219
    8          1             0       -0.458031    1.814540    0.769697
    9          8             0        1.153313    1.226443   -0.467950
   10          6             0       -0.981948   -1.316593   -0.534185
   11          1             0       -0.644377   -2.348190   -0.355260
   12          1             0       -2.016650   -1.249529   -0.187651
   13          8             0       -1.030042   -1.027434   -1.926067
   14          1             0       -0.154358   -1.170038   -2.298474
 ---------------------------------------------------------------------
                    Distance matrix (angstroms):
                    1          2          3          4          5
     1  C    0.000000
     2  C    1.545026   0.000000
     3  C    1.544692   2.077446   0.000000
     4  H    1.092957   2.214973   2.224497   0.000000
     5  H    2.253851   1.099082   2.857027   3.052416   0.000000
     6  H    2.248954   1.094894   2.859191   2.450393   1.780122
     7  H    2.232621   2.835801   1.092929   3.049315   3.321882
     8  H    2.250219   2.854380   1.094238   2.466930   3.791969
     9  O    2.149817   1.441608   1.450859   2.887282   2.112421
    10  C    1.524847   2.626663   2.618065   2.146422   2.757655
    11  H    2.157873   2.960841   3.534398   2.481847   2.904517
    12  H    2.153682   3.540717   2.988749   2.450673   3.815889
    13  O    2.468143   3.075955   2.967117   3.385047   2.832251
    14  H    2.689500   2.783857   3.216970   3.674776   2.226139
                    6          7          8          9         10
     6  H    0.000000
     7  H    3.778614   0.000000
     8  H    3.351802   1.794488   0.000000
     9  O    2.112955   2.112187   2.115197   0.000000
    10  C    3.437851   2.718499   3.431995   3.321259   0.000000
    11  H    3.545935   3.773168   4.316083   4.002798   1.100073
    12  H    4.301651   2.939706   3.568519   4.032080   1.093248
    13  O    4.087169   2.610522   3.958681   3.460218   1.422414
    14  H    3.768576   2.994208   4.291107   3.286935   1.954252
                   11         12         13         14
    11  H    0.000000
    12  H    1.765866   0.000000
    13  O    2.088197   2.011172   0.000000
    14  H    2.324702   2.816030   0.962209   0.000000
 Symmetry turned off by external request.
 Stoichiometry    C4H8O2
 Framework group  C1[X(C4H8O2)]
 Deg. of freedom    36
 Full point group                 C1
 Rotational constants (GHZ):      6.5734691      2.6304293      2.5934056
 Standard basis: CBSB7 (5D, 7F)
 Integral buffers will be    131072 words long.
 Raffenetti 2 integral format.
 Two-electron integral symmetry is turned off.
   156 basis functions,   256 primitive gaussians,   162 cartesian basis functions
    24 alpha electrons       24 beta electrons
       nuclear repulsion energy       253.9109304923 Hartrees.
 NAtoms=   14 NActive=   14 NUniq=   14 SFac= 7.50D-01 NAtFMM=   80 NAOKFM=F Big=F
 One-electron integrals computed using PRISM.
 NBasis=   156 RedAO= T  NBF=   156
 NBsUse=   156 1.00D-06 NBFU=   156
 Harris functional with IExCor=  402 diagonalized for initial guess.
 ExpMin= 1.03D-01 ExpMax= 8.59D+03 ExpMxC= 1.30D+03 IAcc=1 IRadAn=         1 AccDes= 1.00D-06
 HarFok:  IExCor= 402 AccDes= 1.00D-06 IRadAn=         1 IDoV=1
 ScaDFX=  1.000000  1.000000  1.000000  1.000000
 Requested convergence on RMS density matrix=1.00D-08 within 128 cycles.
 Requested convergence on MAX density matrix=1.00D-06.
 Requested convergence on             energy=1.00D-06.
 No special actions if energy rises.
 Keep R1 integrals in memory in canonical form, NReq=    90380182.
 Integral accuracy reduced to 1.0D-05 until final iterations.
 Initial convergence to 1.0D-05 achieved.  Increase integral accuracy.
 SCF Done:  E(RB+HF-LYP) =  -307.718710704     A.U. after   13 cycles
             Convg  =    0.8301D-08             -V/T =  2.0035
             S**2   =   0.0000
 Range of M.O.s used for correlation:     1   156
 NBasis=   156 NAE=    24 NBE=    24 NFC=     0 NFV=     0
 NROrb=    156 NOA=    24 NOB=    24 NVA=   132 NVB=   132
 Symmetrizing basis deriv contribution to polar:
 IMax=3 JMax=2 DiffMx= 0.00D+00
 G2DrvN: will do   15 centers at a time, making    1 passes doing MaxLOS=2.
 FoFDir/FoFCou used for L=0 through L=2.
 DoAtom=TTTTTTTTTTTTTT
          Differentiating once with respect to electric field.
                with respect to dipole field.
          Differentiating once with respect to nuclear coordinates.
          Store integrals in memory, NReq=    87990479.
          There are  45 degrees of freedom in the 1st order CPHF.
    42 vectors were produced by pass  0.
 AX will form  42 AO Fock derivatives at one time.
    42 vectors were produced by pass  1.
    42 vectors were produced by pass  2.
    42 vectors were produced by pass  3.
    42 vectors were produced by pass  4.
    27 vectors were produced by pass  5.
     3 vectors were produced by pass  6.
     1 vectors were produced by pass  7.
 Inv2:  IOpt= 1 Iter= 1 AM= 3.42D-15 Conv= 1.00D-12.
 Inverted reduced A of dimension  241 with in-core refinement.
 Isotropic polarizability for W=    0.000000       50.06 Bohr**3.
 End of Minotr Frequency-dependent properties file   721 does not exist.

 **********************************************************************

            Population analysis using the SCF density.

 **********************************************************************

 Alpha  occ. eigenvalues --  -19.12133 -19.11008 -10.22530 -10.22308 -10.21480
 Alpha  occ. eigenvalues --  -10.18636  -1.04195  -1.02655  -0.77664  -0.69663
 Alpha  occ. eigenvalues --   -0.66986  -0.56101  -0.52021  -0.51202  -0.47853
 Alpha  occ. eigenvalues --   -0.44872  -0.42845  -0.40988  -0.40006  -0.35396
 Alpha  occ. eigenvalues --   -0.32174  -0.31228  -0.28203  -0.25299
 Alpha virt. eigenvalues --    0.02419   0.04267   0.05969   0.07883   0.09480
 Alpha virt. eigenvalues --    0.09927   0.11328   0.12919   0.13702   0.16070
 Alpha virt. eigenvalues --    0.18380   0.21095   0.22421   0.28492   0.32410
 Alpha virt. eigenvalues --    0.34368   0.36546   0.37738   0.39031   0.42230
 Alpha virt. eigenvalues --    0.45503   0.47321   0.47969   0.48959   0.50783
 Alpha virt. eigenvalues --    0.51917   0.52514   0.55455   0.56056   0.57697
 Alpha virt. eigenvalues --    0.58873   0.61374   0.63149   0.64904   0.66367
 Alpha virt. eigenvalues --    0.79073   0.83275   0.84723   0.87110   0.90657
 Alpha virt. eigenvalues --    0.91189   0.95764   1.05281   1.08190   1.09879
 Alpha virt. eigenvalues --    1.11525   1.16988   1.20987   1.30402   1.32666
 Alpha virt. eigenvalues --    1.36730   1.42033   1.43860   1.46316   1.47455
 Alpha virt. eigenvalues --    1.51227   1.54352   1.55190   1.56688   1.57996
 Alpha virt. eigenvalues --    1.60368   1.61808   1.62230   1.63384   1.65447
 Alpha virt. eigenvalues --    1.67667   1.69881   1.70470   1.73473   1.76103
 Alpha virt. eigenvalues --    1.83740   1.87129   1.91155   1.95971   1.98236
 Alpha virt. eigenvalues --    2.01802   2.06414   2.08965   2.14792   2.16563
 Alpha virt. eigenvalues --    2.22511   2.24187   2.25992   2.29808   2.36118
 Alpha virt. eigenvalues --    2.38053   2.39616   2.47485   2.52561   2.53255
 Alpha virt. eigenvalues --    2.56056   2.58252   2.61047   2.63028   2.65863
 Alpha virt. eigenvalues --    2.72857   2.75198   2.80522   2.82684   2.84713
 Alpha virt. eigenvalues --    2.89009   2.97913   3.10604   3.13276   3.14691
 Alpha virt. eigenvalues --    3.18125   3.22553   3.27963   3.32514   3.38074
 Alpha virt. eigenvalues --    3.63742   3.68110   3.77950   3.78705   3.87139
 Alpha virt. eigenvalues --    3.92540   3.97828   4.09526   4.11690   4.40690
 Alpha virt. eigenvalues --    4.89740   5.00614   5.24193   5.42741   5.50520
 Alpha virt. eigenvalues --    5.63718  23.75550  23.76554  23.81948  23.87700
 Alpha virt. eigenvalues --   49.87545  49.95724
          Condensed to atoms (all electrons):
              1          2          3          4          5          6
     1  C    5.369751   0.349837   0.338982   0.351324  -0.045456  -0.010727
     2  C    0.349837   4.830930  -0.217973  -0.024626   0.367097   0.363186
     3  C    0.338982  -0.217973   4.832775  -0.026898   0.007395   0.008345
     4  H    0.351324  -0.024626  -0.026898   0.596569   0.008676  -0.013577
     5  H   -0.045456   0.367097   0.007395   0.008676   0.694755  -0.065358
     6  H   -0.010727   0.363186   0.008345  -0.013577  -0.065358   0.648839
     7  H   -0.039092   0.007909   0.383620   0.007056   0.003814  -0.002507
     8  H   -0.017212   0.006425   0.364408  -0.013082  -0.002969   0.003404
     9  O   -0.076556   0.288260   0.281966   0.008486  -0.039197  -0.034140
    10  C    0.312854  -0.053244  -0.057051  -0.016997  -0.002767   0.004327
    11  H   -0.057282  -0.008829   0.011484  -0.000858   0.002096   0.000375
    12  H   -0.037561   0.009056  -0.008634  -0.002333   0.000717  -0.000447
    13  O   -0.078860   0.006317   0.005833   0.004347   0.001242   0.000399
    14  H   -0.002700   0.005740  -0.001386  -0.000440   0.004393  -0.000013
              7          8          9         10         11         12
     1  C   -0.039092  -0.017212  -0.076556   0.312854  -0.057282  -0.037561
     2  C    0.007909   0.006425   0.288260  -0.053244  -0.008829   0.009056
     3  C    0.383620   0.364408   0.281966  -0.057051   0.011484  -0.008634
     4  H    0.007056  -0.013082   0.008486  -0.016997  -0.000858  -0.002333
     5  H    0.003814  -0.002969  -0.039197  -0.002767   0.002096   0.000717
     6  H   -0.002507   0.003404  -0.034140   0.004327   0.000375  -0.000447
     7  H    0.614594  -0.055907  -0.035093  -0.009699   0.001730   0.000246
     8  H   -0.055907   0.650268  -0.034203   0.004770  -0.000420   0.000179
     9  O   -0.035093  -0.034203   8.004831   0.005763  -0.000659  -0.000523
    10  C   -0.009699   0.004770   0.005763   4.730336   0.402193   0.397490
    11  H    0.001730  -0.000420  -0.000659   0.402193   0.632068  -0.040952
    12  H    0.000246   0.000179  -0.000523   0.397490  -0.040952   0.591865
    13  O    0.017001   0.000418  -0.000128   0.298109  -0.031102  -0.032161
    14  H   -0.001550   0.000025   0.000575  -0.044984  -0.009615   0.009222
             13         14
     1  C   -0.078860  -0.002700
     2  C    0.006317   0.005740
     3  C    0.005833  -0.001386
     4  H    0.004347  -0.000440
     5  H    0.001242   0.004393
     6  H    0.000399  -0.000013
     7  H    0.017001  -0.001550
     8  H    0.000418   0.000025
     9  O   -0.000128   0.000575
    10  C    0.298109  -0.044984
    11  H   -0.031102  -0.009615
    12  H   -0.032161   0.009222
    13  O    7.879913   0.316309
    14  H    0.316309   0.487234
 Mulliken atomic charges:
              1
     1  C   -0.357301
     2  C    0.069914
     3  C    0.077134
     4  H    0.122352
     5  H    0.065562
     6  H    0.097893
     7  H    0.107876
     8  H    0.093896
     9  O   -0.369383
    10  C    0.028900
    11  H    0.099770
    12  H    0.113834
    13  O   -0.387637
    14  H    0.237190
 Sum of Mulliken charges=   0.00000
 Atomic charges with hydrogens summed into heavy atoms:
              1
     1  C   -0.234949
     2  C    0.233369
     3  C    0.278906
     4  H    0.000000
     5  H    0.000000
     6  H    0.000000
     7  H    0.000000
     8  H    0.000000
     9  O   -0.369383
    10  C    0.242504
    11  H    0.000000
    12  H    0.000000
    13  O   -0.150448
    14  H    0.000000
 Sum of Mulliken charges=   0.00000
 APT atomic charges:
              1
     1  C    0.018271
     2  C    0.420489
     3  C    0.400170
     4  H   -0.037346
     5  H   -0.081511
     6  H   -0.065546
     7  H   -0.029269
     8  H   -0.064546
     9  O   -0.609474
    10  C    0.496525
    11  H   -0.079957
    12  H   -0.035096
    13  O   -0.582534
    14  H    0.249825
 Sum of APT charges=   0.00000
 APT Atomic charges with hydrogens summed into heavy atoms:
              1
     1  C   -0.019075
     2  C    0.273432
     3  C    0.306354
     4  H    0.000000
     5  H    0.000000
     6  H    0.000000
     7  H    0.000000
     8  H    0.000000
     9  O   -0.609474
    10  C    0.381472
    11  H    0.000000
    12  H    0.000000
    13  O   -0.332709
    14  H    0.000000
 Sum of APT charges=   0.00000
 Electronic spatial extent (au):  <R**2>=   611.6528
 Charge=     0.0000 electrons
 Dipole moment (field-independent basis, Debye):
    X=     0.0740    Y=    -1.8514    Z=     1.4227  Tot=     2.3361
 Quadrupole moment (field-independent basis, Debye-Ang):
   XX=   -38.9650   YY=   -37.7373   ZZ=   -37.7264
   XY=    -4.6589   XZ=    -3.2129   YZ=     1.2128
 Traceless Quadrupole moment (field-independent basis, Debye-Ang):
   XX=    -0.8221   YY=     0.4056   ZZ=     0.4165
   XY=    -4.6589   XZ=    -3.2129   YZ=     1.2128
 Octapole moment (field-independent basis, Debye-Ang**2):
  XXX=    -1.1637  YYY=    10.3801  ZZZ=    51.1074  XYY=    -4.0166
  XXY=     1.7647  XXZ=    23.4297  XZZ=     9.1828  YZZ=     3.7575
  YYZ=    18.1875  XYZ=     6.4146
 Hexadecapole moment (field-independent basis, Debye-Ang**3):
 XXXX=  -254.8037 YYYY=  -281.3945 ZZZZ=  -206.4676 XXXY=   -58.5418
 XXXZ=   -32.2200 YYYX=   -62.2344 YYYZ=   -35.3228 ZZZX=   -49.7679
 ZZZY=   -34.7241 XXYY=   -99.0726 XXZZ=   -91.3301 YYZZ=   -82.3783
 XXYZ=   -16.7027 YYXZ=   -12.5876 ZZXY=   -30.4835
 N-N= 2.539109304923D+02 E-N=-1.228348680856D+03  KE= 3.066371973740D+02
  Exact polarizability:  51.821  -1.187  50.821  -0.055   1.599  47.541
 Approx polarizability:  70.505  -2.831  67.509  -1.413  -0.152  67.122
 Use density number 0.
 Entering OneElI...
 Calculate overlap and kinetic energy integrals
    NBasis = 162  MinDer = 2  MaxDer = 2
 Requested accuracy = 0.1000D-12
 PrsmSu:  NPrtUS=   1 ThrOK=F
 PRISM was handed   130831235 working-precision words and  1952 shell-pairs
 Entering OneElI...
 Calculate potential energy integrals
    NBasis = 162  MinDer = 2  MaxDer = 2
 Requested accuracy = 0.1000D-12
 PrsmSu:  NPrtUS=   8 ThrOK=T
 PRISM was handed    16317730 working-precision words and  1887 shell-pairs
 PRISM was handed    16317730 working-precision words and  1887 shell-pairs
 PRISM was handed    16317730 working-precision words and  1887 shell-pairs
 PRISM was handed    16317730 working-precision words and  1887 shell-pairs
 PRISM was handed    16317730 working-precision words and  1887 shell-pairs
 PRISM was handed    16317730 working-precision words and  1887 shell-pairs
 PRISM was handed    16317730 working-precision words and  1887 shell-pairs
 PRISM was handed    16317730 working-precision words and  1887 shell-pairs
 Polarizability after L701:
                1             2             3
      1  0.518214D+02
      2 -0.118676D+01  0.508214D+02
      3 -0.550141D-01  0.159940D+01  0.475409D+02
 Dipole Derivatives after L701:
               1            2            3            4            5
      1-0.150878D-01 0.176082D-01-0.288746D-02 0.291993D+00-0.286043D+00
      2 0.328547D-01-0.326286D-01-0.276499D-01-0.139040D+00 0.616339D+00
      3-0.376837D-01-0.519279D-01 0.102530D+00 0.515255D-01 0.351014D-01
               6            7            8            9           10
      1 0.809275D-01 0.625564D+00-0.367967D-01-0.946997D-01 0.255190D-01
      2-0.191435D-01-0.202344D+00 0.235022D+00 0.921684D-01-0.207751D-01
      3 0.353134D+00-0.619072D-01 0.753002D-01 0.339922D+00 0.111501D-01
              11           12           13           14           15
      1-0.212472D-01 0.314611D-01 0.823124D-02 0.668562D-01 0.882243D-01
      2 0.108996D-01 0.560241D-01 0.325712D-01-0.943769D-01-0.133773D+00
      3 0.342986D-01-0.148457D+00 0.238427D-01-0.990052D-01-0.158386D+00
              16           17           18           19           20
      1-0.112656D+00 0.340083D-01-0.149827D+00-0.730794D-01 0.252923D-01
      2 0.385775D-01-0.595723D-02 0.425634D-01 0.559007D-01 0.455899D-01
      3-0.910379D-01 0.919634D-02-0.780247D-01-0.529844D-01 0.154482D-01
              21           22           23           24           25
      1-0.916773D-01-0.105881D-01 0.400453D-01 0.709038D-01-0.757157D+00
      2 0.688298D-01 0.360146D-01-0.861996D-01-0.143962D+00 0.120943D+00
      3-0.603178D-01 0.271965D-01-0.967886D-01-0.968513D-01 0.690489D-01
              26           27           28           29           30
      1 0.125738D+00 0.852432D-01 0.317140D+00 0.317625D-01 0.757772D-01
      2-0.732716D+00 0.619221D-01 0.318815D-01 0.426743D+00-0.273878D-01
      3 0.214359D-01-0.338549D+00 0.251301D-01-0.260140D-01 0.745693D+00
              31           32           33           34           35
      1 0.153408D-01 0.269689D-01-0.204584D-01-0.146935D+00 0.223867D-01
      2 0.890205D-01-0.214665D+00 0.188780D-01-0.260055D-01 0.487997D-01
      3-0.357869D-01 0.569809D-01-0.405478D-01 0.588258D-01-0.973923D-02
              36           37           38           39           40
      1 0.304855D-01-0.288420D+00-0.104264D+00-0.119842D+00 0.120136D+00
      2-0.944520D-02-0.110351D+00-0.531802D+00-0.474216D-01 0.607522D-01
      3-0.715300D-02-0.478240D-01-0.169533D-01-0.927379D+00 0.605044D-01
              41           42
      1 0.576841D-01 0.163692D-01
      2 0.314952D+00 0.683972D-01
      3 0.526667D-01 0.314386D+00
 Hessian after L701:
                1             2             3             4             5
      1  0.146666D+02
      2 -0.289237D+01  0.139316D+02
      3 -0.347855D+00 -0.280080D+00  0.164446D+02
      4 -0.145095D+01  0.987817D+00 -0.126796D+01  0.136023D+02
      5  0.725699D+00 -0.559113D+01 -0.291378D+00  0.116067D+01  0.114661D+02
      6 -0.116928D+01 -0.308738D+00 -0.539227D+01  0.926114D-01  0.867917D+00
      7 -0.573903D+01 -0.177142D+00 -0.143071D-01  0.749773D+00 -0.453104D-01
      8  0.552472D-01 -0.104289D+01 -0.112885D+01  0.574420D-01  0.736748D+00
      9 -0.433912D-01 -0.996191D+00 -0.547643D+01  0.433196D-01 -0.967455D-02
     10 -0.410453D+01  0.409304D-01 -0.281270D+00 -0.653950D-01  0.148733D-01
     11  0.397619D-01 -0.400730D+01 -0.573598D+00 -0.214295D-02  0.487604D-01
     12 -0.273718D+00 -0.566558D+00 -0.172702D+01  0.298312D-01 -0.545852D-01
     13  0.578441D-01 -0.190115D-01  0.208074D+00 -0.399788D+01 -0.571400D+00
     14 -0.270875D-01  0.145091D+00 -0.757328D-02 -0.425023D+00 -0.319101D+01
     15  0.110757D+00  0.146864D-01 -0.738812D-01 -0.577174D+00  0.134038D+01
     16  0.589082D-01 -0.875471D-01 -0.879995D-01 -0.277393D+01 -0.385089D+00
     17 -0.824583D-01 -0.910685D-02 -0.114096D-01 -0.393046D+00 -0.388746D+01
     18 -0.965905D-02 -0.194027D-01 -0.122039D-01  0.130462D+01 -0.396330D+00
     19  0.118522D+00 -0.274696D-01 -0.462117D-01  0.945648D-01 -0.958336D-01
     20  0.315684D-02  0.657165D-01  0.171365D+00 -0.906058D-01 -0.244508D-01
     21 -0.111494D-01  0.675715D-01 -0.524188D-01  0.108827D+00 -0.685419D-01
     22  0.479492D-01 -0.910808D-01 -0.478709D-02 -0.567042D-02 -0.847612D-01
     23 -0.107749D+00  0.161619D-01 -0.878102D-01 -0.851806D-01  0.625940D-01
     24 -0.300536D-01 -0.221561D-01  0.344966D-02 -0.836173D-01  0.114024D+00
     25  0.148881D-01  0.265538D+00 -0.199684D-01 -0.660474D+01 -0.113761D+01
     26  0.272242D+00  0.107136D+00 -0.584874D-01 -0.139927D+01  0.684980D+00
     27 -0.977485D-01 -0.158624D+00  0.264037D+00 -0.655360D-01 -0.174961D+01
     28 -0.401731D+01  0.190462D+01  0.174143D+01  0.160314D+00  0.128543D+00
     29  0.192425D+01 -0.380726D+01  0.197656D+01 -0.278648D-01 -0.113586D-01
     30  0.169342D+01  0.193416D+01 -0.410012D+01  0.640618D-01  0.509629D-01
     31  0.174802D+00 -0.800347D-01 -0.417781D-02 -0.119368D-01 -0.300437D-01
     32 -0.294240D-01 -0.193936D+00 -0.110506D+00 -0.261873D-01 -0.173748D-01
     33  0.843539D-02 -0.873709D-01  0.154069D+00 -0.143314D-01 -0.167542D-01
     34 -0.206519D-01  0.133325D-01 -0.737510D-01  0.202605D+00  0.903705D-01
     35 -0.496537D-01  0.101144D+00 -0.138219D-01  0.748445D-01 -0.269178D-01
     36 -0.832447D-01 -0.153491D-01  0.705280D-01 -0.968839D-02 -0.883673D-02
     37  0.206199D+00  0.185089D+00  0.252160D+00  0.146361D+00  0.225311D+00
     38  0.173652D+00  0.271070D+00  0.383414D+00  0.129577D+00 -0.227714D+00
     39  0.272321D+00  0.397595D+00 -0.532745D-01  0.285048D+00  0.143020D+00
     40 -0.132641D-01 -0.226694D-01 -0.533726D-01 -0.454134D-01  0.457988D-02
     41 -0.526349D-02  0.137251D-01  0.321804D-01  0.389733D-01 -0.217772D-01
     42 -0.188393D-01  0.404566D-01 -0.490610D-01  0.899944D-01  0.794093D-01
                6             7             8             9            10
      6  0.171326D+02
      7 -0.159092D-02  0.112954D+02
      8  0.181059D-01  0.644809D+00  0.139221D+02
      9  0.692905D+00  0.115740D+01  0.892238D-01  0.167527D+02
     10  0.451133D-01  0.459940D-01  0.138322D-01 -0.234785D-01  0.425008D+01
     11 -0.307477D-01  0.334841D-01 -0.531932D-01  0.260592D-01 -0.135798D+00
     12  0.114384D+00 -0.399193D-01  0.130166D-01  0.128837D+00  0.373401D+00
     13 -0.818523D+00 -0.477901D-02 -0.863645D-01 -0.900991D-01  0.270047D-01
     14  0.139988D+01 -0.909651D-01  0.404514D-01  0.956389D-01 -0.132399D-01
     15 -0.229253D+01 -0.900439D-01  0.100004D+00  0.205803D-01 -0.767959D-01
     16  0.145785D+01  0.121424D+00 -0.901489D-01  0.105982D+00 -0.106795D+00
     17 -0.456384D+00 -0.883959D-01 -0.287419D-01 -0.476457D-01 -0.109435D-01
     18 -0.250693D+01  0.116850D+00 -0.584623D-01 -0.211331D-01  0.392527D-01
     19  0.100538D+00 -0.295368D+01 -0.294931D+00  0.158496D+01 -0.204571D-01
     20 -0.673600D-01 -0.477601D+00 -0.426942D+01 -0.578377D+00 -0.161409D-01
     21 -0.787901D-02  0.145448D+01 -0.329733D+00 -0.262264D+01  0.188623D-01
     22 -0.742638D-01 -0.382076D+01 -0.448447D+00 -0.634229D+00  0.353912D-01
     23  0.109092D+00 -0.435906D+00 -0.306146D+01  0.134460D+01  0.117681D-01
     24  0.146328D-01 -0.563842D+00  0.123193D+01 -0.232922D+01 -0.160949D-02
     25 -0.124991D+00  0.593088D+00  0.733431D-01 -0.229531D+01 -0.963695D-02
     26 -0.173776D+01  0.323787D+00 -0.661865D+01 -0.420373D+00  0.962674D-01
     27 -0.774943D+01 -0.228621D+01 -0.362083D+00 -0.718939D+01 -0.822467D-01
     28  0.557410D-01 -0.333818D-02 -0.697229D-01 -0.553391D-02 -0.232256D-02
     29  0.192120D-01  0.787594D-01  0.157431D+00  0.695533D-01  0.442877D-02
     30 -0.497460D-02  0.316133D-01  0.998908D-01  0.135542D-01 -0.354711D-01
     31 -0.997750D-02 -0.580565D-01  0.317209D-01 -0.415911D-03 -0.263730D-02
     32 -0.877706D-02  0.497513D-01  0.254931D+00  0.340184D-01 -0.139850D-02
     33 -0.831996D-03 -0.162248D-02  0.193134D-01 -0.616773D-01 -0.416736D-03
     34  0.842072D-02 -0.145897D-01 -0.298508D-01 -0.378647D-02 -0.420960D-02
     35 -0.933314D-03 -0.338583D-01 -0.170426D-01 -0.506365D-02 -0.397261D-02
     36 -0.559761D-01 -0.143396D-01 -0.132008D-01  0.207751D-02 -0.943335D-02
     37  0.411754D+00 -0.190358D+00  0.167129D+00  0.238709D+00 -0.416100D-01
     38  0.121100D+00  0.219037D+00 -0.296900D-01  0.379430D+00 -0.261205D-03
     39 -0.571855D-01  0.248698D+00  0.304405D+00  0.891984D-01  0.345992D-01
     40  0.265995D-01 -0.210592D-01 -0.240585D-01 -0.341193D-01 -0.884135D-03
     41  0.753938D-01 -0.449787D-03  0.940058D-02  0.188052D-01 -0.345227D-03
     42  0.113504D+00  0.283981D-02  0.164466D-01  0.618532D-03 -0.507315D-03
               11            12            13            14            15
     11  0.407999D+01
     12  0.758192D+00  0.102823D+01
     13  0.681625D-03 -0.953876D-01  0.347640D+01
     14 -0.337004D-01  0.208728D-01  0.534855D+00  0.311903D+01
     15 -0.782271D-03  0.900581D-01  0.888489D+00 -0.161922D+01  0.232566D+01
     16 -0.191667D-01  0.482577D-01  0.203549D+00 -0.539973D-01 -0.171879D+00
     17  0.370819D-01  0.521788D-02 -0.312630D-01  0.201487D+00 -0.108520D+00
     18  0.637205D-02  0.183968D-01 -0.108735D+00 -0.137089D+00 -0.292091D+00
     19 -0.293414D-01  0.408132D-01  0.390863D-01 -0.458314D-01 -0.139735D-01
     20  0.280645D-01 -0.789265D-01 -0.444978D-01  0.210620D-01  0.900678D-02
     21 -0.671588D-01  0.665727D-01  0.475545D-02 -0.612159D-02 -0.207049D-01
     22  0.185039D-01 -0.350934D-02 -0.110892D-01  0.225913D-01  0.132457D-01
     23 -0.108225D+00  0.365100D-01  0.224149D-01 -0.161398D-01 -0.149943D-01
     24  0.279075D-01  0.230576D-01  0.139823D-01 -0.159941D-01 -0.954799D-03
     25  0.998808D-01 -0.122201D+00  0.735211D-01  0.974625D-01 -0.555188D-01
     26  0.484419D-01 -0.160220D+00  0.127072D+00 -0.181392D+00  0.292732D+00
     27 -0.112162D+00  0.521468D-01 -0.818773D-01  0.275729D+00  0.351428D+00
     28  0.309856D-02 -0.154022D-01 -0.145641D-02  0.851853D-02 -0.684164D-02
     29  0.138564D-01 -0.567892D-02  0.169669D-01 -0.149933D-01  0.242881D-02
     30 -0.308427D-01  0.248157D-01  0.210339D-01  0.346264D-03 -0.311866D-01
     31 -0.121017D-02 -0.417750D-02  0.101089D-01  0.109892D-01 -0.794722D-02
     32 -0.231175D-02  0.162164D-01  0.250012D-01 -0.243022D-02 -0.154509D-01
     33 -0.205674D-02 -0.207108D-02 -0.930331D-02 -0.305241D-02 -0.492444D-02
     34 -0.507963D-02  0.961308D-02  0.234304D-01 -0.261011D-02 -0.138749D-01
     35  0.275336D-03 -0.330641D-02  0.314214D-02 -0.400857D-02 -0.743973D-03
     36 -0.299953D-02 -0.762443D-02 -0.779692D-02  0.106308D-02  0.312467D-03
     37 -0.311031D-02  0.658545D-01  0.850097D-01 -0.297819D-01 -0.347336D-01
     38 -0.505208D-01  0.164291D-01  0.684176D-03 -0.580324D-01 -0.802815D-02
     39  0.225501D-02  0.181000D+00  0.168827D-01 -0.107633D-01 -0.683377D-01
     40  0.438672D-03 -0.134562D-01  0.192497D-01  0.141202D-01  0.362904D-01
     41 -0.121587D-02  0.282017D-02  0.217194D-01 -0.254141D-01  0.850611D-02
     42 -0.437707D-03  0.921428D-02  0.585041D-01  0.628357D-02 -0.343417D-02
               16            17            18            19            20
     16  0.215408D+01
     17  0.540101D+00  0.401256D+01
     18 -0.162815D+01  0.631326D+00  0.247058D+01
     19 -0.215271D-01  0.183653D-01 -0.111430D-01  0.283882D+01
     20  0.182290D-01 -0.373740D-02  0.705566D-02  0.549135D+00  0.379887D+01
     21 -0.101105D-01  0.619254D-02  0.385364D-02 -0.179550D+01  0.540041D+00
     22  0.332598D-01 -0.331180D-01  0.443246D-02  0.174711D+00 -0.316070D-01
     23 -0.458139D-01  0.191715D-01 -0.660519D-02 -0.520176D-01  0.179812D+00
     24 -0.143627D-01  0.828457D-02 -0.182905D-01 -0.141811D+00 -0.969806D-01
     25  0.179933D+00  0.476731D-01  0.171656D+00 -0.140100D+00  0.382799D-01
     26  0.542572D-01 -0.295683D+00 -0.637704D-01  0.122954D-01  0.909517D-01
     27  0.196528D+00 -0.424478D-01  0.347425D+00  0.295264D+00 -0.425613D-01
     28  0.107636D+00  0.279523D-01  0.621895D-01  0.782167D-02  0.327790D-02
     29  0.412363D-01 -0.279641D-01  0.133097D-01  0.159689D-03 -0.516357D-01
     30  0.562671D-01  0.100833D-01 -0.114669D-01 -0.346089D-02  0.131032D-01
     31  0.590562D-02  0.604568D-02  0.384963D-02 -0.527918D-02 -0.377728D-02
     32  0.174880D-01  0.246399D-02  0.108319D-01 -0.109195D-01  0.387519D-01
     33  0.257750D-02  0.215389D-02 -0.272396D-02  0.165494D-02 -0.748758D-02
     34  0.223870D-02 -0.218947D-02  0.618314D-02 -0.848795D-02  0.130068D-01
     35 -0.235595D-02 -0.894369D-03  0.253863D-03  0.130880D-02  0.830769D-02
     36 -0.402563D-02 -0.188797D-03 -0.189383D-02  0.148123D-02 -0.714844D-02
     37  0.420299D-01  0.298638D-03  0.534549D-01 -0.132686D+00  0.464111D-01
     38  0.101158D-01 -0.175800D-01  0.923342D-02 -0.224014D-01  0.119666D+00
     39  0.413337D-01  0.296573D-02  0.189318D-01 -0.792588D-02  0.137825D+00
     40 -0.670970D-02  0.978845D-03 -0.480521D-02  0.869894D-02 -0.726654D-02
     41  0.269203D-02 -0.159830D-02  0.327704D-02 -0.251831D-02 -0.195924D-02
     42  0.773040D-02  0.373024D-03  0.755209D-02 -0.468414D-02  0.444488D-03
               21            22            23            24            25
     21  0.273399D+01
     22 -0.111214D+00  0.390552D+01
     23 -0.142693D+00  0.655775D+00  0.260480D+01
     24 -0.273267D+00  0.822812D+00 -0.152033D+01  0.219134D+01
     25  0.336566D+00 -0.300787D+00 -0.983172D-02 -0.301632D-01  0.606033D+01
     26 -0.181082D-01 -0.175957D-01  0.156813D+00  0.138730D+00 -0.222524D+00
     27  0.265151D+00 -0.173459D-01  0.166718D+00  0.363006D+00  0.193335D+01
     28  0.300554D-02 -0.360150D-01  0.251702D-01  0.832184D-02  0.701546D-01
     29 -0.104600D-01  0.108746D-01  0.109234D+00  0.727801D-01  0.363166D+00
     30 -0.584881D-03  0.346491D-02  0.660228D-01 -0.378769D-02  0.106172D-01
     31  0.208154D-02 -0.652066D-04 -0.300581D-02 -0.127822D-02 -0.119245D-01
     32 -0.141327D-01 -0.201156D-02  0.118183D-02  0.586743D-02  0.260095D-01
     33 -0.489665D-02  0.116288D-03 -0.251647D-02 -0.841178D-03 -0.466751D-02
     34 -0.116532D-01 -0.102521D-02  0.142869D-01  0.102143D-01  0.335903D-01
     35 -0.737478D-02  0.349716D-02  0.740685D-02  0.509843D-02  0.146997D-01
     36  0.282868D-03  0.119924D-02  0.406844D-04 -0.401012D-02 -0.118871D-01
     37  0.554471D-02 -0.218934D-01  0.168112D-01  0.192350D-01  0.830066D-01
     38  0.567323D-01 -0.154272D-02  0.257450D-01  0.457955D-01  0.315581D+00
     39 -0.821577D-01  0.171473D-02  0.453040D-01  0.285795D-01  0.183438D+00
     40  0.550898D-02  0.475437D-03 -0.672206D-02 -0.782750D-02 -0.413201D-01
     41 -0.621406D-02 -0.107871D-02  0.290856D-02  0.504631D-02  0.283283D-01
     42 -0.529944D-02 -0.163512D-02  0.666461D-02  0.630600D-02  0.290778D-01
               26            27            28            29            30
     26  0.566963D+01
     27  0.179410D+01  0.136841D+02
     28  0.365401D+00  0.384441D-02  0.168603D+02
     29  0.199070D+00  0.816541D-02 -0.151786D+01  0.164138D+02
     30  0.163321D-01 -0.238457D+00 -0.121535D+01  0.155602D+00  0.107956D+02
     31  0.323758D-02  0.144250D-02 -0.392625D+01 -0.699589D+00  0.138741D+00
     32  0.378447D-01 -0.131615D-03 -0.834386D+00 -0.152252D+01 -0.598451D+00
     33 -0.599014D-02 -0.126184D-01  0.167705D+00 -0.585907D+00 -0.399537D+01
     34  0.371446D-01 -0.294211D-02 -0.169154D+01 -0.159362D+00 -0.995885D+00
     35 -0.242617D-02  0.184743D-03 -0.180899D-01 -0.422706D+01 -0.227706D-02
     36 -0.115898D-01 -0.118135D-01 -0.101880D+01  0.584148D-01 -0.380491D+01
     37  0.365627D+00  0.215415D+00 -0.763269D+01 -0.221161D-01  0.251206D+00
     38  0.807207D-01  0.189121D+00 -0.188361D-01 -0.735397D+01 -0.170829D+01
     39  0.181912D+00 -0.132669D+00  0.896004D-01 -0.177369D+01  0.129841D+01
     40 -0.179416D-01 -0.119426D-01  0.104745D+00 -0.130449D-01 -0.202639D-01
     41  0.225687D-01  0.335970D-01 -0.768195D-02  0.123359D+00 -0.664406D-02
     42  0.524898D-01  0.704855D-02  0.130085D+00 -0.285736D-03  0.584421D-01
               31            32            33            34            35
     31  0.376565D+01
     32  0.705169D+00  0.104295D+01
     33 -0.178312D+00  0.684060D+00  0.403333D+01
     34 -0.537966D-01  0.164545D+00  0.199852D-01  0.122198D+01
     35  0.149679D+00  0.174993D-01 -0.213055D-01 -0.105190D+00  0.415911D+01
     36  0.187290D-01 -0.208411D-01  0.127406D+00  0.127013D+01 -0.664722D-01
     37  0.907466D-01 -0.838053D-01 -0.852090D-02  0.233510D+00 -0.376642D-01
     38 -0.756309D-01  0.344217D+00 -0.232033D-01 -0.252431D-01  0.220534D-01
     39  0.155443D-01 -0.385013D-01 -0.164516D+00 -0.988879D-01  0.121238D+00
     40  0.227389D-01  0.167805D-03  0.167000D-01  0.769400D-01  0.361353D-02
     41 -0.135503D-01 -0.126432D-02  0.501171D-01 -0.316148D-02 -0.374506D-01
     42  0.258978D-01  0.557978D-01 -0.643324D-01 -0.123770D+00 -0.547617D-02
               36            37            38            39            40
     36  0.385779D+01
     37 -0.232913D-01  0.943322D+01
     38  0.838832D-01 -0.166744D+00  0.132352D+02
     39 -0.249670D+00  0.919018D+00  0.217139D+00  0.436734D+01
     40 -0.109039D+00 -0.230084D+01 -0.537988D+00 -0.200138D+01  0.219665D+01
     41  0.322469D-02 -0.663456D+00 -0.636121D+01  0.269298D+00  0.605792D+00
     42  0.775024D-01 -0.236580D+01  0.237241D+00 -0.517565D+01  0.217111D+01
               41            42
     41  0.627992D+01
     42 -0.489407D+00  0.501759D+01
 ReadGW:  IGet=0 IStart=         102 Next=        6311 LGW=        6209.
 ICntrl=12127.
 Symmetry not used in FoFDir.
 MinBra= 0 MaxBra= 2 Meth= 1.
 IRaf=       0 NMat=   1 IRICut=       1 DoRegI=T DoRafI=F ISym2E= 0 JSym2E=0.
 PrsmSu:  NPrtUS=   8 ThrOK=T
 PRISM was handed    16310908 working-precision words and  1931 shell-pairs
 PRISM was handed    16310908 working-precision words and  1931 shell-pairs
 PRISM was handed    16310908 working-precision words and  1931 shell-pairs
 PRISM was handed    16310908 working-precision words and  1931 shell-pairs
 PRISM was handed    16310908 working-precision words and  1931 shell-pairs
 PRISM was handed    16310908 working-precision words and  1931 shell-pairs
 PRISM was handed    16310908 working-precision words and  1931 shell-pairs
 PRISM was handed    16310908 working-precision words and  1931 shell-pairs
 Pruned (  75, 302) grid will be used in CalDFT.
 CkSvGd:  ISavGI=        -1 IRadAn=       4 IRASav=       4 ISavGd=        -1.
 CalDSu:  NPrtUS=   8 ThrOK=T
 IPart= 0 IRanGd=          0 ScrnBf=T ScrnGd=T RCrit=4.00D+00 DoMicB=T.
 IPart= 6 IRanGd=          0 ScrnBf=T ScrnGd=T RCrit=4.00D+00 DoMicB=T.
 IPart= 5 IRanGd=          0 ScrnBf=T ScrnGd=T RCrit=4.00D+00 DoMicB=T.
 CutRad = 1000.00    CtRdIn =    0.00    XCrit =  15.00   ICut = 0
 IPart= 4 IRanGd=          0 ScrnBf=T ScrnGd=T RCrit=4.00D+00 DoMicB=T.
 IPart= 3 IRanGd=          0 ScrnBf=T ScrnGd=T RCrit=4.00D+00 DoMicB=T.
 IPart= 7 IRanGd=          0 ScrnBf=T ScrnGd=T RCrit=4.00D+00 DoMicB=T.
 CutRad = 1000.00    CtRdIn =    0.00    XCrit =  15.00   ICut = 0
 IPart= 2 IRanGd=          0 ScrnBf=T ScrnGd=T RCrit=4.00D+00 DoMicB=T.
 CutRad = 1000.00    CtRdIn =    0.00    XCrit =  15.00   ICut = 0
 CutRad = 1000.00    CtRdIn =    0.00    XCrit =  15.00   ICut = 0
 CutRad = 1000.00    CtRdIn =    0.00    XCrit =  15.00   ICut = 0
 IPart= 1 IRanGd=          0 ScrnBf=T ScrnGd=T RCrit=4.00D+00 DoMicB=T.
 CutRad = 1000.00    CtRdIn =    0.00    XCrit =  15.00   ICut = 0
 CutRad = 1000.00    CtRdIn =    0.00    XCrit =  15.00   ICut = 0
 CutRad = 1000.00    CtRdIn =    0.00    XCrit =  15.00   ICut = 0
 IPart= 6        12477 of        14146 points in      28 batches and       79 microbatches, Max-NSigAt=      14 Max-NSgAt2=      14
 IPart= 1        11644 of        13494 points in      29 batches and       88 microbatches, Max-NSigAt=      14 Max-NSgAt2=      14
 IPart= 2        12988 of        14696 points in      31 batches and      106 microbatches, Max-NSigAt=      14 Max-NSgAt2=      14
 IPart= 7        11796 of        13466 points in      28 batches and       78 microbatches, Max-NSigAt=      14 Max-NSgAt2=      14
 IPart= 4        12085 of        13712 points in      28 batches and       81 microbatches, Max-NSigAt=      14 Max-NSgAt2=      14
 IPart= 3        12396 of        13880 points in      28 batches and       86 microbatches, Max-NSigAt=      14 Max-NSgAt2=      14
 IPart= 0        13150 of        14692 points in      28 batches and       81 microbatches, Max-NSigAt=      14 Max-NSgAt2=      14
 IPart= 5        11922 of        13198 points in      26 batches and       83 microbatches, Max-NSigAt=      14 Max-NSgAt2=      14
 Polarizability after L703:
                1             2             3
      1  0.518214D+02
      2 -0.118676D+01  0.508214D+02
      3 -0.550141D-01  0.159940D+01  0.475409D+02
 Dipole Derivatives after L703:
               1            2            3            4            5
      1-0.150878D-01 0.176082D-01-0.288746D-02 0.291993D+00-0.286043D+00
      2 0.328547D-01-0.326286D-01-0.276499D-01-0.139040D+00 0.616339D+00
      3-0.376837D-01-0.519279D-01 0.102530D+00 0.515255D-01 0.351014D-01
               6            7            8            9           10
      1 0.809275D-01 0.625564D+00-0.367967D-01-0.946997D-01 0.255190D-01
      2-0.191435D-01-0.202344D+00 0.235022D+00 0.921684D-01-0.207751D-01
      3 0.353134D+00-0.619072D-01 0.753002D-01 0.339922D+00 0.111501D-01
              11           12           13           14           15
      1-0.212472D-01 0.314611D-01 0.823124D-02 0.668562D-01 0.882243D-01
      2 0.108996D-01 0.560241D-01 0.325712D-01-0.943769D-01-0.133773D+00
      3 0.342986D-01-0.148457D+00 0.238427D-01-0.990052D-01-0.158386D+00
              16           17           18           19           20
      1-0.112656D+00 0.340083D-01-0.149827D+00-0.730794D-01 0.252923D-01
      2 0.385775D-01-0.595723D-02 0.425634D-01 0.559007D-01 0.455899D-01
      3-0.910379D-01 0.919634D-02-0.780247D-01-0.529844D-01 0.154482D-01
              21           22           23           24           25
      1-0.916773D-01-0.105881D-01 0.400453D-01 0.709038D-01-0.757157D+00
      2 0.688298D-01 0.360146D-01-0.861996D-01-0.143962D+00 0.120943D+00
      3-0.603178D-01 0.271965D-01-0.967886D-01-0.968513D-01 0.690489D-01
              26           27           28           29           30
      1 0.125738D+00 0.852432D-01 0.317140D+00 0.317625D-01 0.757772D-01
      2-0.732716D+00 0.619221D-01 0.318815D-01 0.426743D+00-0.273878D-01
      3 0.214359D-01-0.338549D+00 0.251301D-01-0.260140D-01 0.745693D+00
              31           32           33           34           35
      1 0.153408D-01 0.269689D-01-0.204584D-01-0.146935D+00 0.223867D-01
      2 0.890205D-01-0.214665D+00 0.188780D-01-0.260055D-01 0.487997D-01
      3-0.357869D-01 0.569809D-01-0.405478D-01 0.588258D-01-0.973923D-02
              36           37           38           39           40
      1 0.304855D-01-0.288420D+00-0.104264D+00-0.119842D+00 0.120136D+00
      2-0.944520D-02-0.110351D+00-0.531802D+00-0.474216D-01 0.607522D-01
      3-0.715300D-02-0.478240D-01-0.169533D-01-0.927379D+00 0.605044D-01
              41           42
      1 0.576841D-01 0.163692D-01
      2 0.314952D+00 0.683972D-01
      3 0.526667D-01 0.314386D+00
 Hessian after L703:
                1             2             3             4             5
      1  0.439590D+00
      2  0.751090D-01  0.474443D+00
      3 -0.198222D-01 -0.474929D-01  0.593831D+00
      4 -0.155728D+00  0.723654D-03  0.256245D-01  0.533689D+00
      5 -0.265751D-01 -0.385628D-01 -0.452641D-02 -0.743827D-01  0.424255D+00
      6  0.263042D-01 -0.127086D-01 -0.940879D-01  0.408936D-01  0.554698D-01
      7 -0.410087D-01 -0.113910D-02 -0.141321D-01 -0.590422D-01  0.437140D-01
      8  0.267240D-01 -0.159325D+00  0.162377D-01  0.543299D-01 -0.409073D-01
      9 -0.201044D-01  0.206132D-01 -0.883736D-01  0.722588D-02 -0.478188D-03
     10 -0.496587D-01 -0.479419D-02  0.214542D-01 -0.487567D-03 -0.261603D-02
     11 -0.485988D-02 -0.588129D-01  0.498510D-01  0.463783D-03 -0.192167D-02
     12  0.216585D-01  0.496691D-01 -0.296680D+00 -0.118840D-02  0.402990D-03
     13 -0.401705D-02  0.114933D-01  0.221780D-01 -0.703251D-01  0.284465D-01
     14  0.163638D-03  0.551991D-02  0.746845D-02  0.247607D-01 -0.981294D-01
     15  0.207425D-02 -0.152801D-02 -0.542532D-02  0.504340D-01 -0.939258D-01
     16 -0.145901D-01  0.931213D-03 -0.186983D-01 -0.169849D+00  0.155368D-01
     17 -0.329144D-02  0.202768D-02 -0.700332D-02  0.127125D-01 -0.513681D-01
     18  0.877159D-02 -0.970505D-03  0.935922D-02 -0.124093D+00  0.162624D-01
     19  0.350147D-02  0.157589D-02  0.282078D-02 -0.274423D-02 -0.399608D-02
     20  0.154847D-01 -0.455704D-02  0.231989D-01 -0.391415D-03 -0.208943D-02
     21 -0.187811D-02  0.207695D-02 -0.398309D-02  0.111514D-02  0.874508D-03
     22  0.133484D-02  0.800175D-03 -0.277341D-02 -0.163171D-02 -0.254655D-02
     23  0.253504D-02 -0.133254D-01 -0.213925D-01  0.383684D-03 -0.184545D-02
     24 -0.188966D-02  0.697076D-02  0.897523D-02 -0.840123D-03  0.245024D-02
     25 -0.496213D-01 -0.318991D-01  0.240164D-01 -0.586449D-01  0.399565D-01
     26 -0.318701D-01 -0.651830D-01  0.262910D-01 -0.148759D-01 -0.186787D+00
     27  0.263708D-01  0.288540D-01  0.311145D-02  0.155687D-02  0.188870D-01
     28 -0.120453D+00 -0.379282D-01 -0.227371D-01 -0.193257D-01 -0.183662D-01
     29 -0.384701D-01 -0.129531D+00 -0.298541D-01 -0.305050D-02 -0.537789D-03
     30 -0.267936D-01 -0.316321D-01 -0.963550D-01 -0.358860D-02  0.767090D-02
     31  0.543708D-02 -0.211890D-01  0.127565D-02  0.174786D-02  0.376177D-03
     32  0.697691D-02 -0.226108D-01  0.103297D-02  0.651850D-03 -0.154362D-03
     33  0.622043D-02 -0.170118D-01  0.485931D-02 -0.144464D-03 -0.755469D-04
     34 -0.193314D-01  0.102448D-02  0.425053D-02  0.110927D-02 -0.442974D-03
     35 -0.238365D-01  0.916480D-03  0.541039D-02 -0.140637D-02 -0.127945D-02
     36 -0.176384D-01  0.188597D-02  0.633407D-02 -0.458738D-03 -0.202660D-02
     37  0.350600D-02  0.560081D-02 -0.212544D-01 -0.134803D-04  0.295800D-02
     38  0.414565D-03  0.872603D-02 -0.184109D-01  0.379431D-03 -0.950897D-03
     39 -0.407624D-02  0.206427D-02 -0.415763D-01  0.326974D-02  0.875602D-03
     40  0.103883D-02 -0.308976D-03 -0.220245D-02  0.124631D-02 -0.206241D-02
     41  0.149521D-02  0.274727D-03 -0.810198D-03 -0.298620D-03  0.279078D-03
     42  0.802747D-03 -0.790368D-03  0.107134D-04  0.193539D-03 -0.186088D-02
                6             7             8             9            10
      6  0.563821D+00
      7  0.755984D-02  0.463974D+00
      8 -0.117985D-02 -0.904466D-01  0.498323D+00
      9  0.932598D-02  0.637578D-01  0.572233D-01  0.576598D+00
     10  0.306627D-01 -0.215723D-02  0.571041D-03 -0.864830D-02  0.534655D-01
     11 -0.307188D-02  0.123709D-03 -0.224114D-02  0.295220D-01  0.805909D-02
     12 -0.580608D-02  0.353829D-03 -0.102405D-02 -0.251671D-02 -0.227469D-01
     13  0.523322D-01 -0.188232D-02  0.237513D-03 -0.217889D-03 -0.409511D-02
     14 -0.923472D-01 -0.431514D-02 -0.381669D-02 -0.107595D-02 -0.154890D-02
     15 -0.223997D+00 -0.444395D-03  0.849196D-03 -0.779183D-03  0.163369D-02
     16 -0.124329D+00 -0.105089D-02  0.397182D-03  0.657972D-03  0.184470D-02
     17  0.147733D-01 -0.245079D-02 -0.229379D-02  0.359385D-02  0.646366D-03
     18 -0.183763D+00  0.206333D-02 -0.391506D-03 -0.227893D-02 -0.663481D-03
     19 -0.889745D-03 -0.132206D+00  0.281870D-01 -0.114839D+00 -0.304102D-04
     20 -0.722342D-03  0.289989D-01 -0.637652D-01  0.397200D-01  0.179399D-02
     21 -0.656207D-03 -0.119760D+00  0.415049D-01 -0.216110D+00 -0.660233D-03
     22  0.298689D-02 -0.548978D-01  0.204035D-01  0.261932D-01  0.778151D-03
     23  0.131092D-02  0.239314D-01 -0.146559D+00 -0.119936D+00 -0.106711D-02
     24 -0.207915D-02  0.271372D-01 -0.119224D+00 -0.207272D+00  0.391467D-03
     25 -0.121004D-01 -0.174907D+00 -0.387282D-01  0.379865D-01 -0.958591D-03
     26  0.352610D-01  0.156335D-01 -0.582225D-01 -0.660193D-02 -0.428463D-02
     27 -0.699211D-01  0.271076D-01  0.847564D-02 -0.728255D-01 -0.402639D-03
     28 -0.190520D-01  0.407813D-02 -0.588049D-03  0.959260D-02  0.270582D-02
     29  0.573203D-02 -0.169519D-01 -0.217539D-01 -0.185265D-01  0.583767D-02
     30  0.111798D-01  0.740645D-02 -0.497928D-02  0.756132D-02 -0.175821D-01
     31  0.211630D-03 -0.149084D-02 -0.186087D-02 -0.331176D-02  0.589396D-03
     32  0.639148D-03 -0.847125D-03  0.977765D-03 -0.424040D-02 -0.229815D-03
     33  0.547392D-03 -0.192934D-02 -0.276901D-03 -0.242779D-02  0.643158D-03
     34 -0.373138D-02 -0.293223D-03 -0.462563D-04  0.583201D-03  0.330905D-03
     35 -0.380185D-02 -0.412485D-04  0.137225D-02  0.587001D-03  0.835125D-03
     36 -0.229721D-02  0.168324D-04 -0.235308D-04  0.584461D-03  0.380045D-03
     37  0.107488D-02  0.188634D-03  0.573023D-03  0.124899D-02 -0.175666D-02
     38  0.108430D-02  0.336644D-02 -0.119805D-02  0.417381D-03 -0.299626D-02
     39 -0.156641D-02  0.542428D-03  0.322036D-02 -0.120491D-02 -0.435649D-02
     40 -0.192303D-02  0.695063D-03  0.246870D-03 -0.124874D-03 -0.570145D-03
     41 -0.438729D-03  0.423984D-03 -0.590434D-03 -0.817467D-03 -0.206350D-03
     42 -0.699390D-03  0.320662D-03 -0.411703D-03 -0.280591D-03 -0.105067D-03
               11            12            13            14            15
     11  0.622117D-01
     12 -0.538308D-01  0.318611D+00
     13  0.108413D-02  0.838878D-03  0.697883D-01
     14  0.685093D-04  0.776764D-03 -0.368265D-01  0.118471D+00
     15 -0.527612D-03  0.225429D-03 -0.558611D-01  0.106653D+00  0.234185D+00
     16 -0.942210D-03  0.649429D-04  0.709719D-02 -0.239993D-03  0.608463D-02
     17  0.741998D-03 -0.267622D-03 -0.984171D-02  0.542795D-02 -0.115374D-01
     18  0.298544D-03  0.147140D-02 -0.193408D-01 -0.192362D-03 -0.200928D-01
     19 -0.825707D-03  0.528471D-03 -0.338252D-03  0.633325D-03  0.139886D-03
     20 -0.422702D-02  0.388415D-03  0.481406D-03 -0.209940D-03  0.479651D-05
     21  0.103519D-02  0.330429D-03  0.987646D-04 -0.220207D-04 -0.645571D-04
     22  0.323578D-03 -0.187323D-03 -0.841694D-04  0.208406D-02 -0.206448D-03
     23  0.183494D-02  0.207509D-03  0.853451D-03  0.364550D-03 -0.491164D-03
     24 -0.743844D-03  0.133501D-02 -0.272428D-03 -0.810734D-03  0.440612D-04
     25 -0.440950D-02  0.497507D-03  0.209015D-02  0.148657D-01 -0.218076D-02
     26 -0.250551D-02  0.892313D-03  0.516021D-02 -0.290356D-01  0.114280D-02
     27 -0.258755D-03  0.121134D-03  0.133228D-02 -0.201160D-01  0.154493D-01
     28  0.365592D-02  0.374769D-02  0.202623D-02  0.255593D-03 -0.114232D-02
     29  0.610536D-02  0.638100D-02 -0.134088D-03  0.983744D-03 -0.123857D-02
     30 -0.198505D-01 -0.164555D-01  0.209683D-02 -0.148200D-02 -0.221874D-02
     31  0.896446D-03  0.288447D-03 -0.719362D-04  0.434048D-03  0.356070D-03
     32  0.101890D-03 -0.853404D-03 -0.677166D-03  0.582790D-04  0.561584D-03
     33  0.816887D-03  0.447384D-03 -0.383703D-03  0.210711D-03  0.507742D-04
     34 -0.208433D-05 -0.693102D-03  0.489803D-03  0.115349D-03  0.547168D-04
     35  0.844176D-03  0.255535D-03  0.892487D-04  0.321102D-05  0.276397D-03
     36  0.646232D-03  0.586932D-03  0.655156D-04  0.229250D-03  0.132902D-03
     37 -0.330782D-02 -0.298678D-02  0.753366D-03 -0.101766D-02 -0.156450D-02
     38 -0.213262D-02 -0.326000D-02  0.244512D-03 -0.192258D-03  0.843643D-04
     39 -0.420762D-02 -0.227932D-02 -0.128907D-02  0.384669D-03  0.169685D-02
     40 -0.259466D-03 -0.175804D-03 -0.143114D-02  0.635672D-03  0.622263D-03
     41 -0.677488D-04  0.262215D-03 -0.610889D-03  0.486288D-03 -0.323299D-03
     42  0.321200D-03  0.608204D-03 -0.157757D-02  0.323680D-03  0.793500D-03
               16            17            18            19            20
     16  0.178951D+00
     17 -0.254902D-01  0.608696D-01
     18  0.135554D+00 -0.232055D-01  0.192549D+00
     19 -0.206201D-03  0.192017D-02 -0.551480D-03  0.155721D+00
     20  0.745733D-03  0.455385D-03 -0.382085D-03 -0.347684D-01  0.613132D-01
     21 -0.297397D-03 -0.657223D-03  0.135807D-03  0.127092D+00 -0.434648D-01
     22 -0.486583D-03  0.546017D-03 -0.100317D-03  0.731097D-02 -0.104573D-01
     23  0.366013D-03 -0.287056D-03 -0.173135D-03 -0.507039D-03  0.573383D-02
     24 -0.659028D-04 -0.219989D-03  0.104361D-03  0.289542D-02 -0.165539D-01
     25  0.214704D-02  0.269672D-01 -0.316177D-02 -0.314177D-01 -0.969446D-03
     26  0.758109D-02 -0.156529D-01  0.895640D-02  0.881653D-02  0.459406D-02
     27 -0.563856D-03  0.239302D-01  0.248985D-02 -0.161759D-01 -0.311955D-02
     28 -0.341476D-02 -0.130857D-02  0.142824D-02  0.810296D-03 -0.173818D-03
     29  0.208015D-02  0.289901D-03 -0.579667D-03  0.145983D-03  0.131134D-02
     30  0.230994D-02 -0.225746D-03 -0.149800D-02 -0.182300D-02  0.281762D-02
     31  0.717734D-04  0.751396D-05 -0.542763D-04  0.122698D-04 -0.393084D-04
     32 -0.215220D-03 -0.357528D-04 -0.251133D-05 -0.115631D-04  0.598152D-03
     33 -0.280918D-04  0.127512D-03  0.456498D-04  0.191515D-03 -0.150845D-03
     34 -0.814918D-03 -0.304718D-03  0.264786D-03  0.120019D-03 -0.543450D-03
     35 -0.816677D-03 -0.324989D-03  0.399236D-03  0.376758D-03 -0.219403D-03
     36 -0.654584D-03 -0.152195D-03  0.174735D-03  0.261253D-03 -0.230997D-03
     37  0.321261D-03 -0.552574D-03 -0.704401D-03 -0.411548D-03 -0.381968D-03
     38 -0.460043D-04 -0.102359D-03 -0.348107D-03 -0.175500D-02  0.113734D-02
     39 -0.288005D-04  0.385768D-03  0.696775D-03  0.398156D-03 -0.123639D-02
     40 -0.203037D-04  0.440207D-03  0.587593D-03 -0.122157D-03  0.220366D-03
     41  0.112118D-03  0.252429D-03  0.328778D-03  0.208167D-03 -0.752580D-04
     42 -0.500231D-05  0.458430D-03  0.605918D-03 -0.480311D-04 -0.268799D-03
               21            22            23            24            25
     21  0.223311D+00
     22 -0.139792D-01  0.658855D-01
     23  0.482057D-02 -0.306056D-01  0.150299D+00
     24 -0.176518D-01 -0.378835D-01  0.130490D+00  0.217737D+00
     25  0.885447D-02 -0.176478D-01  0.226558D-02  0.111747D-01  0.326660D+00
     26 -0.397100D-02  0.209063D-01  0.732351D-02 -0.290615D-02 -0.389893D-02
     27  0.154683D-01  0.264490D-01  0.416435D-02 -0.766978D-03 -0.668531D-01
     28 -0.132447D-02 -0.230399D-03  0.272846D-02 -0.731160D-03  0.113783D-02
     29 -0.853188D-03 -0.307857D-03 -0.313920D-02  0.145717D-02 -0.246699D-02
     30 -0.973515D-03 -0.805422D-03  0.156892D-02 -0.114983D-02  0.421098D-02
     31  0.186851D-03 -0.132338D-03 -0.757560D-03  0.324716D-03 -0.221476D-03
     32  0.212600D-03 -0.145731D-03 -0.987747D-03  0.321433D-03 -0.158990D-02
     33 -0.117693D-03  0.220515D-04 -0.723479D-03  0.178405D-03 -0.119783D-02
     34  0.255300D-03  0.171106D-04 -0.166365D-03 -0.137826D-04  0.884325D-03
     35  0.267800D-03 -0.139882D-04  0.369784D-04 -0.821474D-04  0.419792D-03
     36 -0.578177D-04  0.859153D-04  0.580318D-04 -0.174323D-04  0.125676D-03
     37  0.155943D-03 -0.781902D-04  0.587863D-04 -0.260954D-03  0.115966D-02
     38 -0.154581D-02 -0.102807D-02  0.543381D-03 -0.138747D-02 -0.528924D-03
     39  0.544360D-03  0.204973D-03 -0.596508D-04  0.401196D-03 -0.109096D-02
     40  0.141361D-03 -0.137461D-03 -0.186612D-04  0.340463D-04 -0.660771D-03
     41 -0.278476D-03  0.414147D-04  0.734644D-05  0.238896D-03  0.161900D-04
     42 -0.175261D-03 -0.645803D-05  0.155808D-03  0.161669D-03 -0.281430D-03
               26            27            28            29            30
     26  0.344861D+00
     27 -0.635628D-01  0.110046D+00
     28 -0.285274D-02  0.793729D-03  0.589890D+00
     29 -0.115880D-02  0.204943D-02 -0.450402D-01  0.534158D+00
     30  0.596568D-02 -0.599091D-02 -0.489963D-01 -0.163059D-01  0.454334D+00
     31  0.179656D-04  0.622453D-03 -0.783523D-01  0.724937D-01 -0.710441D-02
     32  0.885401D-03  0.574662D-03  0.715901D-01 -0.259785D+00  0.247851D-01
     33 -0.454711D-04  0.530491D-03 -0.478636D-02  0.224796D-01 -0.513704D-01
     34 -0.139657D-02  0.294992D-03 -0.284915D+00  0.194883D-01  0.748271D-01
     35 -0.477522D-03  0.564662D-03  0.226320D-01 -0.537350D-01 -0.653469D-02
     36 -0.111757D-02  0.433622D-03  0.640690D-01 -0.466730D-02 -0.656367D-01
     37 -0.173461D-03 -0.735448D-03 -0.942679D-01  0.581426D-02  0.204285D-01
     38  0.192591D-02 -0.116375D-02  0.151402D-01 -0.726282D-01  0.314022D-01
     39 -0.100764D-02  0.186053D-02 -0.233083D-01  0.402500D-01 -0.209464D+00
     40  0.123667D-02  0.203226D-03  0.310998D-03  0.561500D-03 -0.458629D-02
     41 -0.566886D-03  0.720853D-03 -0.974457D-02 -0.579031D-03  0.679992D-02
     42  0.703314D-03 -0.577983D-05  0.424468D-01 -0.632385D-02 -0.219621D-01
               31            32            33            34            35
     31  0.764060D-01
     32 -0.775394D-01  0.283857D+00
     33  0.130300D-01 -0.342239D-01  0.671538D-01
     34 -0.873221D-02  0.149610D-02  0.207431D-02  0.304956D+00
     35  0.290727D-01 -0.179855D-02 -0.870940D-02 -0.181551D-01  0.518406D-01
     36 -0.301277D-02 -0.800008D-03  0.300096D-02 -0.803396D-01  0.492790D-02
     37  0.412989D-02  0.246102D-03 -0.122145D-01  0.403450D-02 -0.811877D-02
     38 -0.408461D-03 -0.153566D-02  0.373356D-01 -0.752590D-03  0.246621D-02
     39 -0.272102D-02  0.114377D-01 -0.247740D-01  0.347428D-02  0.445364D-02
     40  0.606835D-03  0.294878D-03 -0.149728D-02  0.214469D-02 -0.103695D-02
     41 -0.150396D-02  0.429204D-03  0.247075D-03 -0.314119D-03  0.355000D-03
     42 -0.916293D-04  0.555022D-03  0.187573D-02 -0.130130D-02  0.198552D-02
               36            37            38            39            40
     36  0.907897D-01
     37  0.367570D-01  0.522254D+00
     38 -0.112062D-02 -0.864707D-01  0.825138D-01
     39 -0.272527D-01 -0.153969D+00 -0.296167D-01  0.405726D+00
     40  0.342892D-03 -0.439819D+00  0.744408D-01  0.182950D+00  0.436718D+00
     41  0.239143D-02  0.847719D-01 -0.185726D-01 -0.269440D-01 -0.743905D-01
     42 -0.677550D-02  0.134025D+00 -0.134704D-01 -0.102808D+00 -0.174372D+00
               41            42
     41  0.183679D-01
     42  0.186230D-01  0.128651D+00
 FrcOut:
 IF    =  1026 IFX   =  1068 IFXYZ =  1110
 IFFX  =  1152 IFFFX =  2055 IFLen =    42
 IFFLen=   903 IFFFLn=     0 IEDerv=  2055
 LEDerv=  2069 IFroze=  4128 ICStrt= 53261
 DipoleDeriv   =-1.50878376D-02 3.28546777D-02-3.76837179D-02
                 1.76081980D-02-3.26286293D-02-5.19278558D-02
                -2.88745940D-03-2.76498646D-02 1.02529688D-01
                 2.91992570D-01-1.39040129D-01 5.15255265D-02
                -2.86042607D-01 6.16339189D-01 3.51014440D-02
                 8.09274623D-02-1.91434698D-02 3.53133798D-01
                 6.25564465D-01-2.02343906D-01-6.19072316D-02
                -3.67966695D-02 2.35022062D-01 7.53001582D-02
                -9.46996822D-02 9.21683915D-02 3.39922231D-01
                 2.55190500D-02-2.07751292D-02 1.11501325D-02
                -2.12472220D-02 1.08996354D-02 3.42986245D-02
                 3.14610769D-02 5.60240941D-02-1.48457012D-01
                 8.23123775D-03 3.25711964D-02 2.38427469D-02
                 6.68562171D-02-9.43768611D-02-9.90051821D-02
                 8.82243009D-02-1.33772814D-01-1.58386081D-01
                -1.12656032D-01 3.85774974D-02-9.10378721D-02
                 3.40083137D-02-5.95722929D-03 9.19633728D-03
                -1.49827292D-01 4.25634278D-02-7.80247424D-02
                -7.30794184D-02 5.59006950D-02-5.29844344D-02
                 2.52923159D-02 4.55899108D-02 1.54481792D-02
                -9.16772921D-02 6.88298068D-02-6.03177741D-02
                -1.05881163D-02 3.60145519D-02 2.71965400D-02
                 4.00452555D-02-8.61996387D-02-9.67886429D-02
                 7.09038405D-02-1.43962242D-01-9.68513175D-02
                -7.57157370D-01 1.20942561D-01 6.90488776D-02
                 1.25738113D-01-7.32715950D-01 2.14358695D-02
                 8.52431687D-02 6.19221082D-02-3.38548651D-01
                 3.17140189D-01 3.18815439D-02 2.51300625D-02
                 3.17625020D-02 4.26743065D-01-2.60140278D-02
                 7.57771656D-02-2.73878442D-02 7.45693037D-01
                 1.53408295D-02 8.90205259D-02-3.57868942D-02
                 2.69689477D-02-2.14664989D-01 5.69809364D-02
                -2.04583764D-02 1.88780150D-02-4.05478487D-02
                -1.46935154D-01-2.60055160D-02 5.88258167D-02
                 2.23867199D-02 4.87996978D-02-9.73922737D-03
                 3.04855098D-02-9.44520220D-03-7.15300316D-03
                -2.88420022D-01-1.10350798D-01-4.78239979D-02
                -1.04264156D-01-5.31802056D-01-1.69532858D-02
                -1.19841610D-01-4.74215790D-02-9.27378752D-01
                 1.20135608D-01 6.07522296D-02 6.05044452D-02
                 5.76840716D-02 3.14951794D-01 5.26666728D-02
                 1.63691874D-02 6.83971722D-02 3.14386426D-01
 Full mass-weighted force constant matrix:
 Low frequencies ---  -31.7118   -0.0005    0.0003    0.0011    4.9745   17.4591
 Low frequencies ---   77.4750  142.7406  269.1025
 Dipole derivatives wrt mode   1: -7.57025D-01 -1.39118D+00 -2.12897D+00
 Vibrational polarizability contributions from mode   1       2.5944457       8.7617206      20.5194142
 Vibrational hyperpolarizability contributions from mode   1       0.0000000       0.0000000       0.0000000
 Dipole derivatives wrt mode   2: -7.47337D-01 -1.33413D+00  1.48032D+00
 Vibrational polarizability contributions from mode   2       0.7379073       2.3516003       2.8952294
 Vibrational hyperpolarizability contributions from mode   2       0.0000000       0.0000000       0.0000000
 Dipole derivatives wrt mode   3:  1.22203D+00  2.41309D+00  1.16895D+00
 Vibrational polarizability contributions from mode   3       0.5549579       2.1639420       0.5077940
 Vibrational hyperpolarizability contributions from mode   3       0.0000000       0.0000000       0.0000000
 Dipole derivatives wrt mode   4: -1.73369D+00 -8.88038D+00 -3.14841D+00
 Vibrational polarizability contributions from mode   4       0.9779196      25.6580055       3.2250879
 Vibrational hyperpolarizability contributions from mode   4       0.0000000       0.0000000       0.0000000
 Dipole derivatives wrt mode   5: -1.90639D+00 -5.51922D+00 -2.69540D+00
 Vibrational polarizability contributions from mode   5       0.8267738       6.9297369       1.6527482
 Vibrational hyperpolarizability contributions from mode   5       0.0000000       0.0000000       0.0000000
 Dipole derivatives wrt mode   6:  1.33266D+00  2.26658D+00  6.23692D-01
 Vibrational polarizability contributions from mode   6       0.1398365       0.4045016       0.0306281
 Vibrational hyperpolarizability contributions from mode   6       0.0000000       0.0000000       0.0000000
 Dipole derivatives wrt mode   7: -9.51432D-01 -1.49307D+00  8.57618D-01
 Vibrational polarizability contributions from mode   7       0.0475168       0.1170177       0.0386082
 Vibrational hyperpolarizability contributions from mode   7       0.0000000       0.0000000       0.0000000
 Dipole derivatives wrt mode   8:  2.49183D+00  1.87222D+00  3.26715D-01
 Vibrational polarizability contributions from mode   8       0.2236491       0.1262532       0.0038447
 Vibrational hyperpolarizability contributions from mode   8       0.0000000       0.0000000       0.0000000
 Dipole derivatives wrt mode   9: -1.10613D-01  1.59701D+00 -1.78894D+00
 Vibrational polarizability contributions from mode   9       0.0004241       0.0884126       0.1109411
 Vibrational hyperpolarizability contributions from mode   9       0.0000000       0.0000000       0.0000000
 Dipole derivatives wrt mode  10: -6.71678D-01  1.08114D+00 -1.08035D+00
 Vibrational polarizability contributions from mode  10       0.0150623       0.0390239       0.0389670
 Vibrational hyperpolarizability contributions from mode  10       0.0000000       0.0000000       0.0000000
 Dipole derivatives wrt mode  11:  3.27510D+00  2.98949D+00 -4.13919D+00
 Vibrational polarizability contributions from mode  11       0.3069058       0.2557101       0.4902144
 Vibrational hyperpolarizability contributions from mode  11       0.0000000       0.0000000       0.0000000
 Dipole derivatives wrt mode  12:  2.87010D+00  5.27622D-01  5.09068D+00
 Vibrational polarizability contributions from mode  12       0.2180285       0.0073683       0.6859169
 Vibrational hyperpolarizability contributions from mode  12       0.0000000       0.0000000       0.0000000
 Dipole derivatives wrt mode  13: -6.30359D+00  6.65232D+00  1.69354D+00
 Vibrational polarizability contributions from mode  13       1.0057372       1.1200954       0.0725935
 Vibrational hyperpolarizability contributions from mode  13       0.0000000       0.0000000       0.0000000
 Dipole derivatives wrt mode  14: -1.26620D+00  1.30119D-01 -4.88897D+00
 Vibrational polarizability contributions from mode  14       0.0377042       0.0003982       0.5621126
 Vibrational hyperpolarizability contributions from mode  14       0.0000000       0.0000000       0.0000000
 Dipole derivatives wrt mode  15:  1.43049D-01 -5.56641D-02 -5.23127D-01
 Vibrational polarizability contributions from mode  15       0.0004436       0.0000672       0.0059322
 Vibrational hyperpolarizability contributions from mode  15       0.0000000       0.0000000       0.0000000
 Dipole derivatives wrt mode  16:  6.25629D-01 -1.14577D+00  6.42254D+00
 Vibrational polarizability contributions from mode  16       0.0082337       0.0276155       0.8677091
 Vibrational hyperpolarizability contributions from mode  16       0.0000000       0.0000000       0.0000000
 Dipole derivatives wrt mode  17:  1.28314D-01 -2.79492D-01 -5.28466D-01
 Vibrational polarizability contributions from mode  17       0.0003282       0.0015572       0.0055673
 Vibrational hyperpolarizability contributions from mode  17       0.0000000       0.0000000       0.0000000
 Dipole derivatives wrt mode  18: -2.16387D-01 -7.62768D-01 -1.65156D-01
 Vibrational polarizability contributions from mode  18       0.0009130       0.0113442       0.0005318
 Vibrational hyperpolarizability contributions from mode  18       0.0000000       0.0000000       0.0000000
 Dipole derivatives wrt mode  19: -8.56396D-02 -6.15733D-01 -3.90190D+00
 Vibrational polarizability contributions from mode  19       0.0001346       0.0069585       0.2794358
 Vibrational hyperpolarizability contributions from mode  19       0.0000000       0.0000000       0.0000000
 Dipole derivatives wrt mode  20:  1.62690D+00 -1.01910D+00  2.72457D+00
 Vibrational polarizability contributions from mode  20       0.0433121       0.0169950       0.1214739
 Vibrational hyperpolarizability contributions from mode  20       0.0000000       0.0000000       0.0000000
 Dipole derivatives wrt mode  21:  6.64686D-01 -1.11163D+00 -4.32225D-01
 Vibrational polarizability contributions from mode  21       0.0068363       0.0191209       0.0028907
 Vibrational hyperpolarizability contributions from mode  21       0.0000000       0.0000000       0.0000000
 Dipole derivatives wrt mode  22: -1.06837D-01  1.24446D-02 -4.14958D-01
 Vibrational polarizability contributions from mode  22       0.0001699       0.0000023       0.0025637
 Vibrational hyperpolarizability contributions from mode  22       0.0000000       0.0000000       0.0000000
 Dipole derivatives wrt mode  23:  4.35464D-01  1.03978D+00 -4.34051D-01
 Vibrational polarizability contributions from mode  23       0.0027143       0.0154749       0.0026967
 Vibrational hyperpolarizability contributions from mode  23       0.0000000       0.0000000       0.0000000
 Dipole derivatives wrt mode  24:  1.51368D+00  6.94145D-01  4.00543D+00
 Vibrational polarizability contributions from mode  24       0.0313098       0.0065843       0.2192353
 Vibrational hyperpolarizability contributions from mode  24       0.0000000       0.0000000       0.0000000
 Dipole derivatives wrt mode  25:  9.85755D-01 -2.62818D-02  4.20790D+00
 Vibrational polarizability contributions from mode  25       0.0129025       0.0000092       0.2351081
 Vibrational hyperpolarizability contributions from mode  25       0.0000000       0.0000000       0.0000000
 Dipole derivatives wrt mode  26:  7.78111D-01  9.49719D-01  6.84544D-01
 Vibrational polarizability contributions from mode  26       0.0072262       0.0107651       0.0055928
 Vibrational hyperpolarizability contributions from mode  26       0.0000000       0.0000000       0.0000000
 Dipole derivatives wrt mode  27: -4.65506D-01 -4.57651D-01 -5.43555D-01
 Vibrational polarizability contributions from mode  27       0.0025454       0.0024602       0.0034705
 Vibrational hyperpolarizability contributions from mode  27       0.0000000       0.0000000       0.0000000
 Dipole derivatives wrt mode  28:  5.52145D-01  9.10159D-01 -6.95166D-01
 Vibrational polarizability contributions from mode  28       0.0034479       0.0093688       0.0054654
 Vibrational hyperpolarizability contributions from mode  28       0.0000000       0.0000000       0.0000000
 Dipole derivatives wrt mode  29: -2.40003D+00 -4.37381D+00  4.27824D+00
 Vibrational polarizability contributions from mode  29       0.0175053       0.0581376       0.0556247
 Vibrational hyperpolarizability contributions from mode  29       0.0000000       0.0000000       0.0000000
 Dipole derivatives wrt mode  30:  5.13392D+00 -9.37355D+00 -3.39336D+00
 Vibrational polarizability contributions from mode  30       0.0798348       0.2661352       0.0348781
 Vibrational hyperpolarizability contributions from mode  30       0.0000000       0.0000000       0.0000000
 Dipole derivatives wrt mode  31:  4.67567D+00 -5.66581D+00 -8.12070D-01
 Vibrational polarizability contributions from mode  31       0.0641611       0.0942124       0.0019354
 Vibrational hyperpolarizability contributions from mode  31       0.0000000       0.0000000       0.0000000
 Dipole derivatives wrt mode  32: -4.79044D+00 -8.11072D-01 -4.21765D+00
 Vibrational polarizability contributions from mode  32       0.0669076       0.0019180       0.0518641
 Vibrational hyperpolarizability contributions from mode  32       0.0000000       0.0000000       0.0000000
 Dipole derivatives wrt mode  33: -2.04841D+00  1.87550D+00 -3.72357D+00
 Vibrational polarizability contributions from mode  33       0.0120468       0.0100990       0.0398069
 Vibrational hyperpolarizability contributions from mode  33       0.0000000       0.0000000       0.0000000
 Dipole derivatives wrt mode  34: -5.20799D+00 -1.17063D-01  3.30793D+00
 Vibrational polarizability contributions from mode  34       0.0773468       0.0000391       0.0312044
 Vibrational hyperpolarizability contributions from mode  34       0.0000000       0.0000000       0.0000000
 Dipole derivatives wrt mode  35: -1.35611D+00 -4.71352D-01 -7.09627D+00
 Vibrational polarizability contributions from mode  35       0.0052060       0.0006289       0.1425531
 Vibrational hyperpolarizability contributions from mode  35       0.0000000       0.0000000       0.0000000
 Dipole derivatives wrt mode  36: -3.12065D+00  5.98402D-01  3.00656D+00
 Vibrational polarizability contributions from mode  36       0.0178864       0.0006577       0.0166026
 Vibrational hyperpolarizability contributions from mode  36       0.0000000       0.0000000       0.0000000
 Diagonal vibrational polarizability:
        8.1482813      48.5839374      32.9662426
 Harmonic frequencies (cm**-1), IR intensities (KM/Mole), Raman scattering
 activities (A**4/AMU), depolarization ratios for plane and unpolarized
 incident light, reduced masses (AMU), force constants (mDyne/A),
 and normal coordinates:
                           1         2         3         4         5
                           A         A         A         A         A
       Frequencies ---    77.1000  142.7190  269.1022  287.5986  343.9425
    Reduced masses ---     3.9031    2.3317    3.2210    1.3398    1.5718
   Force constants ---     0.0137    0.0280    0.1374    0.0653    0.1096
    IR Intensities ---     7.0410    4.5298    8.6828   91.7793   41.3613
 Coord Atom Element:
   1     1     6          0.01578  -0.00152  -0.00778   0.05710  -0.07469
   2     1     6          0.02707  -0.00718   0.03695  -0.04381   0.06658
   3     1     6         -0.11401   0.01992  -0.05754   0.00050   0.02523
   1     2     6          0.01109  -0.04491   0.04856   0.07231  -0.10169
   2     2     6          0.02720  -0.01396   0.06014   0.04090  -0.04379
   3     2     6         -0.13373  -0.13285   0.12109   0.06781  -0.02836
   1     3     6          0.02110   0.00465   0.09164  -0.01625   0.01961
   2     3     6          0.03494   0.01892   0.10385  -0.06164   0.09184
   3     3     6         -0.07573   0.14678   0.17858  -0.02092   0.03500
   1     4     1          0.09266   0.09668  -0.10142   0.01981  -0.08973
   2     4     1          0.07882  -0.08797  -0.09742  -0.05166   0.07586
   3     4     1         -0.09493   0.01228  -0.09214  -0.00329   0.02653
   1     5     1         -0.12261  -0.14521   0.25043   0.17511  -0.25787
   2     5     1          0.27119   0.03366  -0.01223   0.02296  -0.06180
   3     5     1         -0.33253  -0.19473   0.23823   0.11775  -0.06872
   1     6     1          0.06193   0.03569  -0.09498   0.02135  -0.04058
   2     6     1         -0.27753  -0.06826   0.18679   0.15456  -0.13329
   3     6     1         -0.24814  -0.22238   0.29055   0.14239  -0.10564
   1     7     1          0.22690  -0.10099  -0.04059  -0.02137   0.00942
   2     7     1          0.00189   0.11039   0.37942  -0.12683   0.18726
   3     7     1         -0.25184   0.25286   0.35518  -0.03361   0.06884
   1     8     1         -0.25141   0.14060   0.32825  -0.06576   0.12111
   2     8     1          0.00915  -0.03782  -0.04821  -0.05474   0.08224
   3     8     1         -0.12840   0.22754   0.36360  -0.03758   0.06957
   1     9     8          0.12251  -0.05016   0.02625  -0.02313   0.01618
   2     9     8          0.13130   0.00310   0.02538   0.01227  -0.02630
   3     9     8          0.29938  -0.03735  -0.05801  -0.01621  -0.00447
   1    10     6         -0.05712  -0.10808   0.00004  -0.01911   0.09999
   2    10     6         -0.01340   0.09211   0.01142   0.02792  -0.05911
   3    10     6          0.01986   0.02141  -0.08442  -0.01100  -0.01218
   1    11     1         -0.11002  -0.38536   0.04981  -0.16408   0.39897
   2    11     1         -0.01206   0.03316   0.04251  -0.01951   0.02574
   3    11     1          0.12346   0.20036   0.02055  -0.03706  -0.09045
   1    12     1         -0.03958  -0.14311   0.01739   0.00082   0.08715
   2    12     1          0.07966   0.38835  -0.00215   0.16717  -0.38543
   3    12     1          0.05509  -0.13716  -0.02914   0.02782   0.00769
   1    13     8         -0.09691   0.18242  -0.14414  -0.02899   0.02294
   2    13     8         -0.17177  -0.06783  -0.21341   0.06169   0.03618
   3    13     8         -0.01283  -0.02085  -0.12354  -0.00954   0.00796
   1    14     1         -0.15511   0.18711  -0.11515  -0.25864  -0.17329
   2    14     1         -0.41162  -0.41457   0.00697  -0.82943  -0.60836
   3    14     1         -0.05557   0.12694  -0.14349  -0.20118  -0.19769
                           6         7         8         9        10
                           A         A         A         A         A
       Frequencies ---   584.6247  716.0126  864.3749  881.0828  897.8049
    Reduced masses ---     2.8135    3.4738    3.5138    1.3872    1.6636
   Force constants ---     0.5666    1.0493    1.5468    0.6345    0.7901
    IR Intensities ---     7.3024    3.8700    9.8212    5.7630    2.7872
 Coord Atom Element:
   1     1     6          0.08470  -0.05221  -0.00229   0.05053   0.08700
   2     1     6          0.07002  -0.08525   0.05115  -0.04515  -0.07693
   3     1     6          0.20577   0.25698   0.05910   0.00313  -0.00069
   1     2     6         -0.01438  -0.01963   0.26557  -0.01552  -0.11400
   2     2     6         -0.04841   0.13136  -0.00081   0.01630  -0.00246
   3     2     6          0.01641   0.01891  -0.05328   0.06923  -0.02687
   1     3     6         -0.04427   0.13141  -0.02316  -0.01776  -0.01828
   2     3     6         -0.04333  -0.00135   0.19011   0.06812   0.16077
   3     3     6          0.02169   0.01493  -0.01779  -0.06914   0.03180
   1     4     1         -0.01890  -0.03529   0.08125  -0.18571   0.39912
   2     4     1         -0.05266  -0.08010   0.14443   0.15682  -0.37340
   3     4     1          0.16738   0.26081   0.08919   0.02395  -0.03316
   1     5     1         -0.38791  -0.30861   0.33194  -0.36502   0.18749
   2     5     1         -0.11486   0.06471   0.13356  -0.00130  -0.02613
   3     5     1         -0.07197  -0.03750  -0.12889  -0.04106   0.09154
   1     6     1          0.25252   0.21701   0.43374   0.24849  -0.35648
   2     6     1         -0.08609   0.14496   0.15921  -0.04636   0.02616
   3     6     1         -0.25528  -0.21307  -0.16581  -0.20309   0.21855
   1     7     1         -0.04527   0.12406   0.04687  -0.04570   0.07188
   2     7     1         -0.42361  -0.31692   0.22012   0.38814  -0.14209
   3     7     1         -0.08462  -0.06206  -0.07883   0.03879  -0.12603
   1     8     1         -0.16313   0.07817   0.05697   0.13871  -0.08993
   2     8     1          0.22054   0.25393   0.39784  -0.11593   0.47326
   3     8     1         -0.22125  -0.20457  -0.14377   0.12277  -0.23244
   1     9     8         -0.04111   0.10180  -0.16031  -0.02262   0.00285
   2     9     8         -0.04906   0.12409  -0.18425  -0.01621  -0.03342
   3     9     8          0.02016  -0.06579   0.08534   0.00977   0.00732
[...]
     41 -0.120491D-02 -0.227932D-02  0.169685D-02  0.696775D-03  0.544360D-03
     42 -0.280591D-03  0.608204D-03  0.793500D-03  0.605918D-03 -0.175261D-03
               36            37            38            39            40
     36  0.217737D+00
     37 -0.766978D-03  0.110046D+00
     38 -0.114983D-02 -0.599091D-02  0.454334D+00
     39  0.178405D-03  0.530491D-03 -0.513704D-01  0.671538D-01
     40 -0.174323D-04  0.433622D-03 -0.656367D-01  0.300096D-02  0.907897D-01
     41  0.401196D-03  0.186053D-02 -0.209464D+00 -0.247740D-01 -0.272527D-01
     42  0.161669D-03 -0.577983D-05 -0.219621D-01  0.187573D-02 -0.677550D-02
               41            42
     41  0.405726D+00
     42 -0.102808D+00  0.128651D+00
 Final forces over variables, Energy=-3.07718711D+02:
  6.08248774D-06 1.32300377D-05-1.19018701D-06 7.80998547D-07
 -5.85135286D-06 1.04434814D-06 1.92783098D-06 9.74343951D-07
 -2.45390168D-06-6.84176045D-06-4.19240721D-06-7.20152840D-06
  9.25856241D-06-5.56747193D-06 9.07360535D-06-2.36003384D-05
 -1.26355522D-07 7.83761113D-06-1.21124904D-06 3.81386932D-07
  4.26594435D-06 5.62349057D-06 2.60257732D-06-6.95553204D-07
 -2.16304945D-07 2.97655837D-06-4.26478138D-06-2.64659145D-06
 -2.54023796D-05 1.16112684D-05 7.10918538D-06 4.51423570D-06
 -8.51981992D-07 4.55945953D-06-8.57402429D-06-6.04256158D-06
 -1.00344131D-05 1.34659415D-05 1.41306714D-05 1.08026207D-05
 -1.08857844D-06-1.41994436D-05

 GradGradGradGradGradGradGradGradGradGradGradGradGradGradGradGradGradGrad
 Berny optimization.
 Search for a local minimum.
 Step number   1 out of a maximum of   2
 All quantities printed in internal units (Hartrees-Bohrs-Radians)
 Second derivative matrix not updated -- analytic derivatives used.
     Eigenvalues ---    0.00093   0.00208   0.00450   0.00864   0.01292
     Eigenvalues ---    0.03560   0.03906   0.04690   0.05192   0.05372
     Eigenvalues ---    0.05924   0.07312   0.07887   0.09680   0.10362
     Eigenvalues ---    0.11917   0.12229   0.12774   0.16886   0.19071
     Eigenvalues ---    0.20890   0.21770   0.23966   0.33835   0.46349
     Eigenvalues ---    0.54464   0.56182   0.62016   0.70577   0.72204
     Eigenvalues ---    0.73924   0.77622   0.83199   0.84571   0.91865
     Eigenvalues ---    1.03486
 Angle between quadratic step and forces=  81.99 degrees.
 Linear search not attempted -- first point.
 TrRot=  0.000022  0.000058  0.000160  0.000003 -0.000044  0.000003
 MatCor failed.
 Variable       Old X    -DE/DX   Delta X   Delta X   Delta X     New X
                                 (Linear)    (Quad)   (Total)
    X1       -0.21198   0.00001   0.00000   0.00014   0.00014  -0.21184
    Y1       -0.66211   0.00001   0.00000   0.00010   0.00016  -0.66195
    Z1        0.49649  -0.00003   0.00000  -0.00048  -0.00033   0.49617
    X2        2.56283   0.00001   0.00000   0.00018   0.00022   2.56305
    Y2       -0.32544  -0.00002   0.00000   0.00020   0.00028  -0.32516
    Z2       -0.34706   0.00001   0.00000  -0.00024   0.00003  -0.34703
    X3       -0.45522   0.00000   0.00000   0.00006   0.00007  -0.45515
    Y3        2.17654   0.00000   0.00000   0.00016   0.00021   2.17676
    Z3       -0.13886   0.00001   0.00000  -0.00004   0.00010  -0.13877
    X4       -0.40084   0.00000   0.00000   0.00037   0.00029  -0.40055
    Y4       -1.08827   0.00001   0.00000   0.00029   0.00035  -1.08792
    Z4        2.50860   0.00000   0.00000  -0.00039  -0.00025   2.50835
    X5        3.13105  -0.00001   0.00000  -0.00033  -0.00021   3.13084
    Y5       -1.38214   0.00000   0.00000   0.00151   0.00159  -1.38055
    Z5       -2.04243   0.00000   0.00000  -0.00122  -0.00092  -2.04336
    X6        3.99182   0.00000   0.00000   0.00028   0.00026   3.99208
    Y6       -0.62232   0.00000   0.00000  -0.00119  -0.00111  -0.62343
    Z6        1.11950   0.00000   0.00000  -0.00063  -0.00029   1.11921
    X7       -1.71307   0.00000   0.00000   0.00114   0.00122  -1.71185
    Y7        2.59757   0.00000   0.00000   0.00016   0.00021   2.59778
    Z7       -1.72195  -0.00001   0.00000  -0.00094  -0.00085  -1.72281
    X8       -0.86555   0.00000   0.00000  -0.00137  -0.00144  -0.86699
    Y8        3.42898   0.00001   0.00000  -0.00009  -0.00004   3.42894
    Z8        1.45452  -0.00001   0.00000  -0.00022  -0.00010   1.45441
    X9        2.17945   0.00000   0.00000   0.00057   0.00062   2.18006
    Y9        2.31764   0.00000   0.00000   0.00075   0.00082   2.31846
    Z9       -0.88430  -0.00001   0.00000   0.00186   0.00211  -0.88219
   X10       -1.85561  -0.00001   0.00000  -0.00013  -0.00005  -1.85566
   Y10       -2.48800   0.00000   0.00000  -0.00005   0.00000  -2.48800
   Z10       -1.00946   0.00001   0.00000   0.00006   0.00014  -1.00932
   X11       -1.21770   0.00000   0.00000  -0.00041  -0.00033  -1.21802
   Y11       -4.43744   0.00000   0.00000  -0.00005   0.00000  -4.43744
   Z11       -0.67134   0.00001   0.00000   0.00058   0.00069  -0.67065
   X12       -3.81092  -0.00001   0.00000  -0.00005   0.00000  -3.81091
   Y12       -2.36127   0.00000   0.00000   0.00037   0.00040  -2.36086
   Z12       -0.35461   0.00001   0.00000   0.00029   0.00028  -0.35433
   X13       -1.94650   0.00001   0.00000  -0.00034  -0.00014  -1.94664
   Y13       -1.94157   0.00000   0.00000  -0.00064  -0.00059  -1.94216
   Z13       -3.63974   0.00000   0.00000  -0.00010  -0.00002  -3.63976
   X14       -0.29169  -0.00001   0.00000  -0.00089  -0.00066  -0.29236
   Y14       -2.21105   0.00000   0.00000  -0.00234  -0.00228  -2.21333
   Z14       -4.34349  -0.00001   0.00000  -0.00073  -0.00058  -4.34407
         Item               Value     Threshold  Converged?
 Maximum Force            0.000025     0.000450     YES
 RMS     Force            0.000009     0.000300     YES
 Maximum Displacement     0.002280     0.001800     NO 
 RMS     Displacement     0.000731     0.001200     YES
 Predicted change in Energy=-1.532254D-08
 GradGradGradGradGradGradGradGradGradGradGradGradGradGradGradGradGradGrad


 Test job not archived.
 1\1\GINC-NODE11\Freq\RB3LYP\CBSB7\C4H8O2\SHAMEL\18-Jun-2013\0\\# freq 
 nosymm b3lyp/cbsb7 iop(7/33=1)\\Title Card Required\\0,1\C,-0.112176,-
 0.350375,0.262733\C,1.356191,-0.172217,-0.183656\C,-0.240894,1.151778,
 -0.073484\H,-0.212116,-0.575886,1.327492\H,1.65688,-0.731399,-1.080809
 \H,2.112382,-0.329317,0.592416\H,-0.906518,1.374576,-0.911219\H,-0.458
 031,1.81454,0.769697\O,1.153313,1.226443,-0.46795\C,-0.981948,-1.31659
 3,-0.534185\H,-0.644377,-2.34819,-0.35526\H,-2.01665,-1.249529,-0.1876
 51\O,-1.030042,-1.027434,-1.926067\H,-0.154358,-1.170038,-2.298474\\Ve
 rsion=AM64L-G03RevD.01\HF=-307.7187107\RMSD=8.301e-09\RMSF=8.550e-06\Z
 eroPoint=0.120071\Thermal=0.1263577\Dipole=0.0291293,-0.7284129,0.5597
 155\DipoleDeriv=-0.0150878,0.0328547,-0.0376837,0.0176082,-0.0326286,-
 0.0519279,-0.0028875,-0.0276499,0.1025297,0.2919926,-0.1390401,0.05152
 55,-0.2860426,0.6163392,0.0351014,0.0809275,-0.0191435,0.3531338,0.625
 5645,-0.2023439,-0.0619072,-0.0367967,0.2350221,0.0753002,-0.0946997,0
 .0921684,0.3399222,0.025519,-0.0207751,0.0111501,-0.0212472,0.0108996,
 0.0342986,0.0314611,0.0560241,-0.148457,0.0082312,0.0325712,0.0238427,
 0.0668562,-0.0943769,-0.0990052,0.0882243,-0.1337728,-0.1583861,-0.112
 656,0.0385775,-0.0910379,0.0340083,-0.0059572,0.0091963,-0.1498273,0.0
 425634,-0.0780247,-0.0730794,0.0559007,-0.0529844,0.0252923,0.0455899,
 0.0154482,-0.0916773,0.0688298,-0.0603178,-0.0105881,0.0360146,0.02719
 65,0.0400453,-0.0861996,-0.0967886,0.0709038,-0.1439622,-0.0968513,-0.
 7571574,0.1209426,0.0690489,0.1257381,-0.732716,0.0214359,0.0852432,0.
 0619221,-0.3385487,0.3171402,0.0318815,0.0251301,0.0317625,0.4267431,-
 0.026014,0.0757772,-0.0273878,0.745693,0.0153408,0.0890205,-0.0357869,
 0.0269689,-0.214665,0.0569809,-0.0204584,0.018878,-0.0405478,-0.146935
 2,-0.0260055,0.0588258,0.0223867,0.0487997,-0.0097392,0.0304855,-0.009
 4452,-0.007153,-0.28842,-0.1103508,-0.047824,-0.1042642,-0.5318021,-0.
 0169533,-0.1198416,-0.0474216,-0.9273788,0.1201356,0.0607522,0.0605044
 ,0.0576841,0.3149518,0.0526667,0.0163692,0.0683972,0.3143864\Polar=51.
 8213535,-1.1867615,50.8213757,-0.0550141,1.5993962,47.5408662\PG=C01 [
 X(C4H8O2)]\NImag=0\\0.43959033,0.07510902,0.47444342,-0.01982218,-0.04
 749285,0.59383088,-0.15572792,0.00072365,0.02562451,0.53368880,-0.0265
 7514,-0.03856282,-0.00452641,-0.07438274,0.42425484,0.02630417,-0.0127
 0862,-0.09408786,0.04089359,0.05546975,0.56382083,-0.04100870,-0.00113
 910,-0.01413208,-0.05904218,0.04371400,0.00755984,0.46397389,0.0267239
 9,-0.15932499,0.01623775,0.05432987,-0.04090729,-0.00117985,-0.0904465
 7,0.49832290,-0.02010435,0.02061318,-0.08837360,0.00722588,-0.00047819
 ,0.00932598,0.06375780,0.05722330,0.57659753,-0.04965874,-0.00479419,0
 .02145420,-0.00048757,-0.00261603,0.03066267,-0.00215723,0.00057104,-0
 .00864830,0.05346548,-0.00485988,-0.05881292,0.04985095,0.00046378,-0.
 00192167,-0.00307188,0.00012371,-0.00224114,0.02952200,0.00805909,0.06
 221174,0.02165851,0.04966910,-0.29667968,-0.00118840,0.00040299,-0.005
 80608,0.00035383,-0.00102405,-0.00251671,-0.02274687,-0.05383077,0.318
 61142,-0.00401705,0.01149330,0.02217795,-0.07032505,0.02844654,0.05233
 225,-0.00188232,0.00023751,-0.00021789,-0.00409511,0.00108413,0.000838
 88,0.06978829,0.00016364,0.00551991,0.00746845,0.02476074,-0.09812942,
 -0.09234717,-0.00431514,-0.00381669,-0.00107595,-0.00154890,0.00006851
 ,0.00077676,-0.03682645,0.11847144,0.00207425,-0.00152801,-0.00542532,
 0.05043398,-0.09392575,-0.22399727,-0.00044440,0.00084920,-0.00077918,
 0.00163369,-0.00052761,0.00022543,-0.05586106,0.10665268,0.23418499,-0
 .01459009,0.00093121,-0.01869830,-0.16984949,0.01553683,-0.12432941,-0
 .00105089,0.00039718,0.00065797,0.00184470,-0.00094221,0.00006494,0.00
 709719,-0.00023999,0.00608463,0.17895127,-0.00329144,0.00202768,-0.007
 00332,0.01271253,-0.05136811,0.01477328,-0.00245079,-0.00229379,0.0035
 9385,0.00064637,0.00074200,-0.00026762,-0.00984171,0.00542795,-0.01153
 742,-0.02549023,0.06086958,0.00877159,-0.00097050,0.00935922,-0.124092
 91,0.01626241,-0.18376326,0.00206333,-0.00039151,-0.00227893,-0.000663
 48,0.00029854,0.00147140,-0.01934075,-0.00019236,-0.02009278,0.1355538
 5,-0.02320549,0.19254925,0.00350147,0.00157589,0.00282078,-0.00274423,
 -0.00399608,-0.00088974,-0.13220593,0.02818700,-0.11483903,-0.00003041
 ,-0.00082571,0.00052847,-0.00033825,0.00063332,0.00013989,-0.00020620,
 0.00192017,-0.00055148,0.15572139,0.01548474,-0.00455704,0.02319886,-0
 .00039141,-0.00208943,-0.00072234,0.02899886,-0.06376520,0.03972003,0.
 00179399,-0.00422702,0.00038842,0.00048141,-0.00020994,0.00000480,0.00
 074573,0.00045539,-0.00038208,-0.03476842,0.06131317,-0.00187811,0.002
 07695,-0.00398309,0.00111514,0.00087451,-0.00065621,-0.11976016,0.0415
 0495,-0.21611012,-0.00066023,0.00103519,0.00033043,0.00009876,-0.00002
 202,-0.00006456,-0.00029740,-0.00065722,0.00013581,0.12709173,-0.04346
 485,0.22331109,0.00133484,0.00080018,-0.00277341,-0.00163171,-0.002546
 55,0.00298689,-0.05489785,0.02040351,0.02619324,0.00077815,0.00032358,
 -0.00018732,-0.00008417,0.00208406,-0.00020645,-0.00048658,0.00054602,
 -0.00010032,0.00731097,-0.01045727,-0.01397919,0.06588547,0.00253504,-
 0.01332539,-0.02139250,0.00038368,-0.00184545,0.00131092,0.02393137,-0
 .14655898,-0.11993626,-0.00106711,0.00183494,0.00020751,0.00085345,0.0
 0036455,-0.00049116,0.00036601,-0.00028706,-0.00017313,-0.00050704,0.0
 0573383,0.00482057,-0.03060564,0.15029928,-0.00188966,0.00697076,0.008
 97523,-0.00084012,0.00245024,-0.00207915,0.02713718,-0.11922437,-0.207
 27193,0.00039147,-0.00074384,0.00133501,-0.00027243,-0.00081073,0.0000
 4406,-0.00006590,-0.00021999,0.00010436,0.00289542,-0.01655388,-0.0176
 5176,-0.03788347,0.13049008,0.21773715,-0.04962127,-0.03189911,0.02401
 636,-0.05864494,0.03995653,-0.01210037,-0.17490656,-0.03872824,0.03798
 652,-0.00095859,-0.00440950,0.00049751,0.00209015,0.01486571,-0.002180
 76,0.00214704,0.02696723,-0.00316177,-0.03141769,-0.00096945,0.0088544
 7,-0.01764785,0.00226558,0.01117465,0.32666015,-0.03187010,-0.06518303
 ,0.02629100,-0.01487590,-0.18678723,0.03526100,0.01563353,-0.05822248,
 -0.00660193,-0.00428463,-0.00250551,0.00089231,0.00516021,-0.02903556,
 0.00114280,0.00758109,-0.01565286,0.00895640,0.00881653,0.00459406,-0.
 00397100,0.02090635,0.00732351,-0.00290615,-0.00389893,0.34486099,0.02
 637082,0.02885403,0.00311145,0.00155687,0.01888697,-0.06992114,0.02710
 761,0.00847564,-0.07282553,-0.00040264,-0.00025876,0.00012113,0.001332
 28,-0.02011597,0.01544934,-0.00056386,0.02393018,0.00248985,-0.0161759
 4,-0.00311955,0.01546833,0.02644896,0.00416435,-0.00076698,-0.06685307
 ,-0.06356275,0.11004558,-0.12045338,-0.03792817,-0.02273713,-0.0193256
 8,-0.01836615,-0.01905200,0.00407813,-0.00058805,0.00959260,0.00270582
 ,0.00365592,0.00374769,0.00202623,0.00025559,-0.00114232,-0.00341476,-
 0.00130857,0.00142824,0.00081030,-0.00017382,-0.00132447,-0.00023040,0
 .00272846,-0.00073116,0.00113783,-0.00285274,0.00079373,0.58988971,-0.
 03847007,-0.12953125,-0.02985414,-0.00305050,-0.00053779,0.00573203,-0
 .01695191,-0.02175387,-0.01852655,0.00583767,0.00610536,0.00638100,-0.
 00013409,0.00098374,-0.00123857,0.00208015,0.00028990,-0.00057967,0.00
 014598,0.00131134,-0.00085319,-0.00030786,-0.00313920,0.00145717,-0.00
 246699,-0.00115880,0.00204943,-0.04504015,0.53415801,-0.02679362,-0.03
 163213,-0.09635499,-0.00358860,0.00767090,0.01117977,0.00740645,-0.004
 97928,0.00756132,-0.01758214,-0.01985053,-0.01645555,0.00209683,-0.001
 48200,-0.00221874,0.00230994,-0.00022575,-0.00149800,-0.00182300,0.002
 81762,-0.00097352,-0.00080542,0.00156892,-0.00114983,0.00421098,0.0059
 6568,-0.00599091,-0.04899631,-0.01630593,0.45433411,0.00543708,-0.0211
 8898,0.00127565,0.00174786,0.00037618,0.00021163,-0.00149084,-0.001860
 87,-0.00331176,0.00058940,0.00089645,0.00028845,-0.00007194,0.00043405
 ,0.00035607,0.00007177,0.00000751,-0.00005428,0.00001227,-0.00003931,0
 .00018685,-0.00013234,-0.00075756,0.00032472,-0.00022148,0.00001797,0.
 00062245,-0.07835226,0.07249373,-0.00710441,0.07640597,0.00697691,-0.0
 2261080,0.00103297,0.00065185,-0.00015436,0.00063915,-0.00084713,0.000
 97777,-0.00424040,-0.00022982,0.00010189,-0.00085340,-0.00067717,0.000
 05828,0.00056158,-0.00021522,-0.00003575,-0.00000251,-0.00001156,0.000
 59815,0.00021260,-0.00014573,-0.00098775,0.00032143,-0.00158990,0.0008
 8540,0.00057466,0.07159007,-0.25978519,0.02478508,-0.07753939,0.283857
 37,0.00622043,-0.01701177,0.00485931,-0.00014446,-0.00007555,0.0005473
 9,-0.00192934,-0.00027690,-0.00242779,0.00064316,0.00081689,0.00044738
 ,-0.00038370,0.00021071,0.00005077,-0.00002809,0.00012751,0.00004565,0
 .00019152,-0.00015084,-0.00011769,0.00002205,-0.00072348,0.00017840,-0
 .00119783,-0.00004547,0.00053049,-0.00478636,0.02247956,-0.05137041,0.
 01303005,-0.03422388,0.06715383,-0.01933141,0.00102448,0.00425053,0.00
 110927,-0.00044297,-0.00373138,-0.00029322,-0.00004626,0.00058320,0.00
 033090,-0.00000208,-0.00069310,0.00048980,0.00011535,0.00005472,-0.000
 81492,-0.00030472,0.00026479,0.00012002,-0.00054345,0.00025530,0.00001
 711,-0.00016637,-0.00001378,0.00088432,-0.00139657,0.00029499,-0.28491
 466,0.01948826,0.07482706,-0.00873221,0.00149610,0.00207431,0.30495579
 ,-0.02383647,0.00091648,0.00541039,-0.00140637,-0.00127945,-0.00380185
 ,-0.00004125,0.00137225,0.00058700,0.00083513,0.00084418,0.00025553,0.
 00008925,0.00000321,0.00027640,-0.00081668,-0.00032499,0.00039924,0.00
 037676,-0.00021940,0.00026780,-0.00001399,0.00003698,-0.00008215,0.000
 41979,-0.00047752,0.00056466,0.02263195,-0.05373498,-0.00653469,0.0290
 7265,-0.00179855,-0.00870940,-0.01815506,0.05184059,-0.01763836,0.0018
 8597,0.00633407,-0.00045874,-0.00202660,-0.00229721,0.00001683,-0.0000
 2353,0.00058446,0.00038004,0.00064623,0.00058693,0.00006552,0.00022925
 ,0.00013290,-0.00065458,-0.00015219,0.00017473,0.00026125,-0.00023100,
 -0.00005782,0.00008592,0.00005803,-0.00001743,0.00012568,-0.00111757,0
 .00043362,0.06406896,-0.00466730,-0.06563667,-0.00301277,-0.00080001,0
 .00300096,-0.08033961,0.00492790,0.09078969,0.00350600,0.00560081,-0.0
 2125444,-0.00001348,0.00295800,0.00107488,0.00018863,0.00057302,0.0012
 4899,-0.00175666,-0.00330782,-0.00298678,0.00075337,-0.00101766,-0.001
 56450,0.00032126,-0.00055257,-0.00070440,-0.00041155,-0.00038197,0.000
 15594,-0.00007819,0.00005879,-0.00026095,0.00115966,-0.00017346,-0.000
 73545,-0.09426787,0.00581426,0.02042853,0.00412989,0.00024610,-0.01221
 446,0.00403450,-0.00811877,0.03675697,0.52225368,0.00041457,0.00872603
 ,-0.01841095,0.00037943,-0.00095090,0.00108430,0.00336644,-0.00119805,
 0.00041738,-0.00299626,-0.00213262,-0.00326000,0.00024451,-0.00019226,
 0.00008436,-0.00004600,-0.00010236,-0.00034811,-0.00175500,0.00113734,
 -0.00154581,-0.00102807,0.00054338,-0.00138747,-0.00052892,0.00192591,
 -0.00116375,0.01514024,-0.07262825,0.03140219,-0.00040846,-0.00153566,
 0.03733555,-0.00075259,0.00246621,-0.00112062,-0.08647067,0.08251379,-
 0.00407624,0.00206427,-0.04157633,0.00326974,0.00087560,-0.00156641,0.
 00054243,0.00322036,-0.00120491,-0.00435649,-0.00420762,-0.00227932,-0
 .00128907,0.00038467,0.00169685,-0.00002880,0.00038577,0.00069677,0.00
 039816,-0.00123639,0.00054436,0.00020497,-0.00005965,0.00040120,-0.001
 09096,-0.00100764,0.00186053,-0.02330827,0.04025000,-0.20946449,-0.002
 72102,0.01143770,-0.02477403,0.00347428,0.00445364,-0.02725274,-0.1539
 6903,-0.02961674,0.40572649,0.00103883,-0.00030898,-0.00220245,0.00124
 631,-0.00206241,-0.00192303,0.00069506,0.00024687,-0.00012487,-0.00057
 014,-0.00025947,-0.00017580,-0.00143114,0.00063567,0.00062226,-0.00002
 030,0.00044021,0.00058759,-0.00012216,0.00022037,0.00014136,-0.0001374
 6,-0.00001866,0.00003405,-0.00066077,0.00123667,0.00020323,0.00031100,
 0.00056150,-0.00458629,0.00060684,0.00029488,-0.00149728,0.00214469,-0
 .00103695,0.00034289,-0.43981924,0.07444079,0.18295031,0.43671849,0.00
 149521,0.00027473,-0.00081020,-0.00029862,0.00027908,-0.00043873,0.000
 42398,-0.00059043,-0.00081747,-0.00020635,-0.00006775,0.00026222,-0.00
 061089,0.00048629,-0.00032330,0.00011212,0.00025243,0.00032878,0.00020
 817,-0.00007526,-0.00027848,0.00004141,0.00000735,0.00023890,0.0000161
 9,-0.00056689,0.00072085,-0.00974457,-0.00057903,0.00679992,-0.0015039
 6,0.00042920,0.00024707,-0.00031412,0.00035500,0.00239143,0.08477193,-
 0.01857257,-0.02694398,-0.07439050,0.01836786,0.00080275,-0.00079037,0
 .00001071,0.00019354,-0.00186088,-0.00069939,0.00032066,-0.00041170,-0
 .00028059,-0.00010507,0.00032120,0.00060820,-0.00157757,0.00032368,0.0
 0079350,-0.00000500,0.00045843,0.00060592,-0.00004803,-0.00026880,-0.0
 0017526,-0.00000646,0.00015581,0.00016167,-0.00028143,0.00070331,-0.00
 000578,0.04244680,-0.00632385,-0.02196208,-0.00009163,0.00055502,0.001
 87573,-0.00130130,0.00198552,-0.00677550,0.13402470,-0.01347036,-0.102
 80797,-0.17437197,0.01862297,0.12865085\\-0.00000608,-0.00000907,0.000
 02540,-0.00001323,0.00002360,-0.00001161,0.00000119,0.00000013,-0.0000
 0711,-0.00000078,-0.00000784,-0.00000451,0.00000585,0.00000121,0.00000
 085,-0.00000104,-0.00000038,-0.00000456,-0.00000193,-0.00000427,0.0000
 0857,-0.00000097,-0.00000562,0.00000604,0.00000245,-0.00000260,0.00001
 003,0.00000684,0.00000070,-0.00001347,0.00000419,0.00000022,-0.0000141
 3,0.00000720,-0.00000298,-0.00001080,-0.00000926,0.00000426,0.00000109
 ,0.00000557,0.00000265,0.00001420\\\@


 Mondays are the potholes in the road of life.
                                -- Tom Wilson
 Job cpu time:  0 days  0 hours 28 minutes 50.1 seconds.
 File lengths (MBytes):  RWF=     39 Int=      0 D2E=      0 Chk=      7 Scr=      1
 Normal termination of Gaussian 03 at Tue Jun 18 11:22:18 2013.
