 Entering Gaussian System, Link 0=g03
 Input=TS8freq.gjf
 Output=TS8freq.log
 Initial command:
 /opt/g03/l1.exe /scratch/nyee/Gau-31043.inp -scrdir=/scratch/nyee/
 Entering Link 1 = /opt/g03/l1.exe PID=     31045.
  
 Copyright (c) 1988,1990,1992,1993,1995,1998,2003,2004, Gaussian, Inc.
                  All Rights Reserved.
  
 This is the Gaussian(R) 03 program.  It is based on the
 the Gaussian(R) 98 system (copyright 1998, Gaussian, Inc.),
 the Gaussian(R) 94 system (copyright 1995, Gaussian, Inc.),
 the Gaussian 92(TM) system (copyright 1992, Gaussian, Inc.),
 the Gaussian 90(TM) system (copyright 1990, Gaussian, Inc.),
 the Gaussian 88(TM) system (copyright 1988, Gaussian, Inc.),
 the Gaussian 86(TM) system (copyright 1986, Carnegie Mellon
 University), and the Gaussian 82(TM) system (copyright 1983,
 Carnegie Mellon University). Gaussian is a federally registered
 trademark of Gaussian, Inc.
  
 This software contains proprietary and confidential information,
 including trade secrets, belonging to Gaussian, Inc.
  
 This software is provided under written license and may be
 used, copied, transmitted, or stored only in accord with that
 written license.
  
 The following legend is applicable only to US Government
 contracts under FAR:
  
                    RESTRICTED RIGHTS LEGEND
  
 Use, reproduction and disclosure by the US Government is
 subject to restrictions as set forth in subparagraphs (a)
 and (c) of the Commercial Computer Software - Restricted
 Rights clause in FAR 52.227-19.
  
 Gaussian, Inc.
 340 Quinnipiac St., Bldg. 40, Wallingford CT 06492
  
  
 ---------------------------------------------------------------
 Warning -- This program may not be used in any manner that
 competes with the business of Gaussian, Inc. or will provide
 assistance to any competitor of Gaussian, Inc.  The licensee
 of this program is prohibited from giving any competitor of
 Gaussian, Inc. access to this program.  By using this program,
 the user acknowledges that Gaussian, Inc. is engaged in the
 business of creating and licensing software in the field of
 computational chemistry and represents and warrants to the
 licensee that it is not a competitor of Gaussian, Inc. and that
 it will not use this program in any manner prohibited above.
 ---------------------------------------------------------------
  

 Cite this work as:
 Gaussian 03, Revision D.01,
 M. J. Frisch, G. W. Trucks, H. B. Schlegel, G. E. Scuseria, 
 M. A. Robb, J. R. Cheeseman, J. A. Montgomery, Jr., T. Vreven, 
 K. N. Kudin, J. C. Burant, J. M. Millam, S. S. Iyengar, J. Tomasi, 
 V. Barone, B. Mennucci, M. Cossi, G. Scalmani, N. Rega, 
 G. A. Petersson, H. Nakatsuji, M. Hada, M. Ehara, K. Toyota, 
 R. Fukuda, J. Hasegawa, M. Ishida, T. Nakajima, Y. Honda, O. Kitao, 
 H. Nakai, M. Klene, X. Li, J. E. Knox, H. P. Hratchian, J. B. Cross, 
 V. Bakken, C. Adamo, J. Jaramillo, R. Gomperts, R. E. Stratmann, 
 O. Yazyev, A. J. Austin, R. Cammi, C. Pomelli, J. W. Ochterski, 
 P. Y. Ayala, K. Morokuma, G. A. Voth, P. Salvador, J. J. Dannenberg, 
 V. G. Zakrzewski, S. Dapprich, A. D. Daniels, M. C. Strain, 
 O. Farkas, D. K. Malick, A. D. Rabuck, K. Raghavachari, 
 J. B. Foresman, J. V. Ortiz, Q. Cui, A. G. Baboul, S. Clifford, 
 J. Cioslowski, B. B. Stefanov, G. Liu, A. Liashenko, P. Piskorz, 
 I. Komaromi, R. L. Martin, D. J. Fox, T. Keith, M. A. Al-Laham, 
 C. Y. Peng, A. Nanayakkara, M. Challacombe, P. M. W. Gill, 
 B. Johnson, W. Chen, M. W. Wong, C. Gonzalez, and J. A. Pople, 
 Gaussian, Inc., Wallingford CT, 2004.
 
 ******************************************
 Gaussian 03:  AM64L-G03RevD.01 13-Oct-2005
                 9-Jun-2013 
 ******************************************
 %chk=TS8freq.chk
 %mem=1000mb
 %nproc=8
 Will use up to    8 processors via shared memory.
 -------------------------------------
 # freq nosymm b3lyp/cbsb7 iop(7/33=1)
 -------------------------------------
 1/10=4,30=1,38=1/1,3;
 2/15=1,17=6,18=5,40=1/2;
 3/5=4,6=6,7=700,11=2,16=1,25=1,30=1,74=-5/1,2,3;
 4//1;
 5/5=2,38=5/2;
 8/6=4,10=90,11=11/1;
 11/6=1,8=1,9=11,15=111,16=1,31=1/1,2,10;
 10/6=1,31=1/2;
 6/7=2,8=2,9=2,10=2,18=1,28=1/1;
 7/8=1,10=1,25=1,30=1,33=1/1,2,3,16;
 1/10=4,30=1/3;
 99//99;
 -------------------
 Title Card Required
 -------------------
 Symbolic Z-matrix:
 Charge =  0 Multiplicity = 2
 C                    -3.61422   1.36406  -0.03703 
 H                    -2.96489   1.85002   0.70653 
 H                    -3.40567   1.75398  -1.04735 
 O                    -4.92944   1.41634   0.25969 
 H                    -5.1515    0.26738   0.93728 
 C                    -3.13534  -0.18904  -0.12604 
 C                    -1.61665  -0.27127  -0.16217 
 H                    -1.29887  -1.30956  -0.27878 
 H                    -1.23044   0.3035   -1.00633 
 H                    -1.18572   0.12376   0.75917 
 C                    -3.82275  -0.8847   -1.29664 
 H                    -3.39874  -0.52541  -2.23688 
 H                    -3.6582   -1.96239  -1.22714 
 H                    -4.89251  -0.68928  -1.29626 
 O                    -3.51218  -0.72146   1.13366 
 O                    -4.90719  -0.73682   1.25515 
 

 GradGradGradGradGradGradGradGradGradGradGradGradGradGradGradGradGradGrad
 Berny optimization.
 Initialization pass.
 Trust Radius=3.00D-01 FncErr=1.00D-07 GrdErr=1.00D-07
 Number of steps in this run=   2 maximum allowed number of steps=   2.
 GradGradGradGradGradGradGradGradGradGradGradGradGradGradGradGradGradGrad

                          Input orientation:                          
 ---------------------------------------------------------------------
 Center     Atomic     Atomic              Coordinates (Angstroms)
 Number     Number      Type              X           Y           Z
 ---------------------------------------------------------------------
    1          6             0       -3.614221    1.364055   -0.037029
    2          1             0       -2.964890    1.850018    0.706531
    3          1             0       -3.405671    1.753977   -1.047349
    4          8             0       -4.929442    1.416340    0.259692
    5          1             0       -5.151497    0.267375    0.937275
    6          6             0       -3.135338   -0.189042   -0.126042
    7          6             0       -1.616645   -0.271272   -0.162165
    8          1             0       -1.298873   -1.309562   -0.278784
    9          1             0       -1.230440    0.303498   -1.006335
   10          1             0       -1.185723    0.123764    0.759167
   11          6             0       -3.822746   -0.884704   -1.296638
   12          1             0       -3.398736   -0.525410   -2.236884
   13          1             0       -3.658197   -1.962386   -1.227138
   14          1             0       -4.892506   -0.689282   -1.296262
   15          8             0       -3.512178   -0.721463    1.133655
   16          8             0       -4.907189   -0.736824    1.255152
 ---------------------------------------------------------------------
                    Distance matrix (angstroms):
                    1          2          3          4          5
     1  C    0.000000
     2  H    1.100306   0.000000
     3  H    1.102850   1.810968   0.000000
     4  O    1.349290   2.060875   2.035739   0.000000
     5  H    2.124898   2.709105   3.032594   1.352238   0.000000
     6  C    1.627686   2.209071   2.167305   2.438207   2.324620
     7  C    2.584621   2.659374   2.843554   3.741740   3.740867
     8  H    3.545068   3.705321   3.796651   4.571819   4.336847
     9  H    2.783298   2.886858   2.614804   4.064955   4.376484
    10  H    2.840749   2.479548   3.293822   3.991949   3.972368
    11  C    2.585926   3.496757   2.683046   2.990275   2.843103
    12  H    2.907899   3.807174   2.571118   3.513737   3.711599
    13  H    3.533200   4.330609   3.729269   3.904167   3.447675
    14  H    2.726880   3.764961   2.870915   2.618397   2.443554
    15  O    2.393804   2.663545   3.300898   2.709733   1.924508
    16  O    2.784814   3.281046   3.709469   2.372246   1.081271
                    6          7          8          9         10
     6  C    0.000000
     7  C    1.521346   0.000000
     8  H    2.156733   1.092074   0.000000
     9  H    2.155492   1.091851   1.770869   0.000000
    10  H    2.163895   1.091146   1.773293   1.775190   0.000000
    11  C    1.525375   2.555427   2.754354   2.866383   3.492454
    12  H    2.153642   2.746797   2.976319   2.627327   3.780896
    13  H    2.151870   2.856916   2.625255   3.328211   3.796124
    14  H    2.169630   3.491729   3.786054   3.805312   4.315793
    15  O    1.418562   2.339843   2.690644   3.291873   2.503406
    16  O    2.312405   3.612922   3.962440   4.440166   3.851743
                   11         12         13         14         15
    11  C    0.000000
    12  H    1.092218   0.000000
    13  H    1.092385   1.775333   0.000000
    14  H    1.087463   1.772843   1.774568   0.000000
    15  O    2.455489   3.378141   2.671059   2.794788   0.000000
    16  O    2.776602   3.809782   3.037062   2.551899   1.400376
                   16
    16  O    0.000000
 Symmetry turned off by external request.
 Stoichiometry    C4H9O3(2)
 Framework group  C1[X(C4H9O3)]
 Deg. of freedom    42
 Full point group                 C1
 Rotational constants (GHZ):      3.3414912      2.4618504      2.0954549
 Standard basis: CBSB7 (5D, 7F)
 Integral buffers will be    131072 words long.
 Raffenetti 2 integral format.
 Two-electron integral symmetry is turned off.
   180 basis functions,   296 primitive gaussians,   187 cartesian basis functions
    29 alpha electrons       28 beta electrons
       nuclear repulsion energy       345.7688108553 Hartrees.
 NAtoms=   16 NActive=   16 NUniq=   16 SFac= 7.50D-01 NAtFMM=   80 NAOKFM=F Big=F
 One-electron integrals computed using PRISM.
 NBasis=   180 RedAO= T  NBF=   180
 NBsUse=   180 1.00D-06 NBFU=   180
 Harris functional with IExCor=  402 diagonalized for initial guess.
 ExpMin= 1.03D-01 ExpMax= 8.59D+03 ExpMxC= 1.30D+03 IAcc=1 IRadAn=         1 AccDes= 1.00D-06
 HarFok:  IExCor= 402 AccDes= 1.00D-06 IRadAn=         1 IDoV=1
 ScaDFX=  1.000000  1.000000  1.000000  1.000000
 <S**2> of initial guess= 0.7500
 Requested convergence on RMS density matrix=1.00D-08 within 128 cycles.
 Requested convergence on MAX density matrix=1.00D-06.
 Requested convergence on             energy=1.00D-06.
 No special actions if energy rises.
 Integral accuracy reduced to 1.0D-05 until final iterations.
 Initial convergence to 1.0D-05 achieved.  Increase integral accuracy.
 SCF Done:  E(UB+HF-LYP) =  -383.459822094     A.U. after   28 cycles
             Convg  =    0.3584D-08             -V/T =  2.0033
             S**2   =   0.7556
 Annihilation of the first spin contaminant:
 S**2 before annihilation     0.7556,   after     0.7500
 Range of M.O.s used for correlation:     1   180
 NBasis=   180 NAE=    29 NBE=    28 NFC=     0 NFV=     0
 NROrb=    180 NOA=    29 NOB=    28 NVA=   151 NVB=   152
 Symmetrizing basis deriv contribution to polar:
 IMax=3 JMax=2 DiffMx= 0.00D+00
 G2DrvN: will do   17 centers at a time, making    1 passes doing MaxLOS=2.
 FoFDir/FoFCou used for L=0 through L=2.
 DoAtom=TTTTTTTTTTTTTTTT
          Differentiating once with respect to electric field.
                with respect to dipole field.
          Differentiating once with respect to nuclear coordinates.
 Symmetry not used in FoFDir.
 MinBra= 0 MaxBra= 2 Meth= 1.
 IRaf=       0 NMat=  51 IRICut=      51 DoRegI=T DoRafI=T ISym2E= 0 JSym2E=0.
          There are  51 degrees of freedom in the 1st order CPHF.
    48 vectors were produced by pass  0.
 AX will form  48 AO Fock derivatives at one time.
    48 vectors were produced by pass  1.
    48 vectors were produced by pass  2.
    48 vectors were produced by pass  3.
    48 vectors were produced by pass  4.
    48 vectors were produced by pass  5.
    32 vectors were produced by pass  6.
     4 vectors were produced by pass  7.
     3 vectors were produced by pass  8.
 Inv2:  IOpt= 1 Iter= 1 AM= 2.93D-15 Conv= 1.00D-12.
 Inverted reduced A of dimension  327 with in-core refinement.
 Isotropic polarizability for W=    0.000000       64.30 Bohr**3.
 End of Minotr Frequency-dependent properties file   721 does not exist.

 **********************************************************************

            Population analysis using the SCF density.

 **********************************************************************

 Alpha  occ. eigenvalues --  -19.22331 -19.18373 -19.13264 -10.27281 -10.24093
 Alpha  occ. eigenvalues --  -10.19102 -10.18075  -1.17179  -1.02684  -0.93113
 Alpha  occ. eigenvalues --   -0.79648  -0.72251  -0.68182  -0.62603  -0.52981
 Alpha  occ. eigenvalues --   -0.51830  -0.49345  -0.47203  -0.45348  -0.44736
 Alpha  occ. eigenvalues --   -0.42059  -0.41643  -0.40727  -0.39257  -0.38200
 Alpha  occ. eigenvalues --   -0.36723  -0.29556  -0.27896  -0.26711
 Alpha virt. eigenvalues --    0.01868   0.03578   0.06587   0.07685   0.08619
 Alpha virt. eigenvalues --    0.09412   0.11588   0.12603   0.12796   0.14562
 Alpha virt. eigenvalues --    0.15169   0.17913   0.19166   0.21100   0.23011
 Alpha virt. eigenvalues --    0.26461   0.32032   0.33792   0.35921   0.37469
 Alpha virt. eigenvalues --    0.38867   0.41611   0.43136   0.44454   0.48528
 Alpha virt. eigenvalues --    0.50101   0.53807   0.53967   0.56532   0.57077
 Alpha virt. eigenvalues --    0.57763   0.58882   0.59103   0.60362   0.61555
 Alpha virt. eigenvalues --    0.63067   0.66041   0.71563   0.75811   0.79395
 Alpha virt. eigenvalues --    0.81003   0.85463   0.87005   0.90132   0.95135
 Alpha virt. eigenvalues --    0.96788   0.97547   1.00977   1.03447   1.09671
 Alpha virt. eigenvalues --    1.14474   1.18257   1.28186   1.29968   1.31358
 Alpha virt. eigenvalues --    1.36435   1.38541   1.39356   1.42233   1.42960
 Alpha virt. eigenvalues --    1.44472   1.45904   1.47113   1.48266   1.50185
 Alpha virt. eigenvalues --    1.53010   1.55367   1.58133   1.58879   1.60404
 Alpha virt. eigenvalues --    1.61792   1.64765   1.67666   1.70041   1.71580
 Alpha virt. eigenvalues --    1.73903   1.75300   1.84207   1.85880   1.88525
 Alpha virt. eigenvalues --    1.90303   1.92610   2.02799   2.04306   2.07339
 Alpha virt. eigenvalues --    2.08435   2.13091   2.22364   2.26894   2.29731
 Alpha virt. eigenvalues --    2.30834   2.34526   2.39292   2.41677   2.42239
 Alpha virt. eigenvalues --    2.44506   2.44584   2.47488   2.48403   2.50204
 Alpha virt. eigenvalues --    2.52724   2.54009   2.56160   2.58568   2.62259
 Alpha virt. eigenvalues --    2.65601   2.68480   2.72394   2.78308   2.80069
 Alpha virt. eigenvalues --    2.84766   2.87027   2.91748   2.96101   3.05091
 Alpha virt. eigenvalues --    3.05301   3.09888   3.13652   3.18891   3.22782
 Alpha virt. eigenvalues --    3.29068   3.32215   3.41658   3.46225   3.67189
 Alpha virt. eigenvalues --    3.71774   3.75613   3.76851   3.80741   3.81635
 Alpha virt. eigenvalues --    3.82694   3.90638   3.97078   4.13929   4.25313
 Alpha virt. eigenvalues --    4.72427   4.81245   4.84510   4.91231   4.96940
 Alpha virt. eigenvalues --    5.25339   5.29405   5.58526   5.82770  23.64664
 Alpha virt. eigenvalues --   23.76316  23.88885  23.92299  49.77056  49.80338
 Alpha virt. eigenvalues --   49.90253
  Beta  occ. eigenvalues --  -19.21752 -19.17732 -19.11973 -10.27079 -10.24060
  Beta  occ. eigenvalues --  -10.19099 -10.18058  -1.15992  -1.00058  -0.91898
  Beta  occ. eigenvalues --   -0.78922  -0.72175  -0.67019  -0.61563  -0.52119
  Beta  occ. eigenvalues --   -0.50427  -0.48921  -0.46720  -0.44180  -0.43784
  Beta  occ. eigenvalues --   -0.41773  -0.40741  -0.40275  -0.37757  -0.35872
  Beta  occ. eigenvalues --   -0.34730  -0.27639  -0.26475
  Beta virt. eigenvalues --   -0.16296   0.02240   0.03968   0.06734   0.07801
  Beta virt. eigenvalues --    0.08784   0.09573   0.11707   0.12710   0.13084
  Beta virt. eigenvalues --    0.14718   0.15761   0.18254   0.19390   0.21471
  Beta virt. eigenvalues --    0.23399   0.26616   0.32188   0.34005   0.36352
  Beta virt. eigenvalues --    0.37703   0.39392   0.42075   0.43462   0.44976
  Beta virt. eigenvalues --    0.48983   0.50592   0.53986   0.54182   0.56614
  Beta virt. eigenvalues --    0.57286   0.57933   0.58991   0.59195   0.60673
  Beta virt. eigenvalues --    0.61655   0.63170   0.66169   0.72255   0.76487
  Beta virt. eigenvalues --    0.80335   0.81328   0.85874   0.87286   0.90915
  Beta virt. eigenvalues --    0.95761   0.97027   0.98382   1.01340   1.04052
  Beta virt. eigenvalues --    1.11006   1.14693   1.18483   1.28509   1.30133
  Beta virt. eigenvalues --    1.31599   1.36606   1.38773   1.39706   1.42370
  Beta virt. eigenvalues --    1.43302   1.44585   1.46079   1.47354   1.48655
  Beta virt. eigenvalues --    1.50384   1.53067   1.55598   1.58357   1.59138
  Beta virt. eigenvalues --    1.60851   1.61953   1.65072   1.68036   1.70246
  Beta virt. eigenvalues --    1.72002   1.74156   1.75610   1.84650   1.86052
  Beta virt. eigenvalues --    1.88853   1.90472   1.93587   2.03294   2.04622
  Beta virt. eigenvalues --    2.07527   2.08710   2.13571   2.22456   2.27112
  Beta virt. eigenvalues --    2.30023   2.30966   2.34648   2.39633   2.41910
  Beta virt. eigenvalues --    2.42387   2.44671   2.44796   2.47628   2.48498
  Beta virt. eigenvalues --    2.50641   2.52913   2.54395   2.56300   2.58751
  Beta virt. eigenvalues --    2.62456   2.66005   2.68795   2.73141   2.79016
  Beta virt. eigenvalues --    2.82070   2.85093   2.87721   2.92199   2.96758
  Beta virt. eigenvalues --    3.06237   3.06428   3.11250   3.14724   3.21085
  Beta virt. eigenvalues --    3.24656   3.30210   3.32862   3.43956   3.46686
  Beta virt. eigenvalues --    3.68623   3.72223   3.75694   3.76972   3.80848
  Beta virt. eigenvalues --    3.82212   3.83916   3.91250   3.97769   4.14525
  Beta virt. eigenvalues --    4.25486   4.73014   4.82494   4.86585   4.92383
  Beta virt. eigenvalues --    5.00576   5.26129   5.31740   5.59777   5.83651
  Beta virt. eigenvalues --   23.64884  23.76355  23.88895  23.92313  49.77675
  Beta virt. eigenvalues --   49.80975  49.91498
          Condensed to atoms (all electrons):
              1          2          3          4          5          6
     1  C    4.772964   0.377784   0.370020   0.328681  -0.013532   0.272412
     2  H    0.377784   0.647637  -0.057378  -0.040827  -0.002337  -0.038629
     3  H    0.370020  -0.057378   0.635964  -0.034537   0.005369  -0.017837
     4  O    0.328681  -0.040827  -0.034537   8.073652   0.144325  -0.042153
     5  H   -0.013532  -0.002337   0.005369   0.144325   0.389490  -0.010955
     6  C    0.272412  -0.038629  -0.017837  -0.042153  -0.010955   5.442581
     7  C   -0.050205   0.004215  -0.008515   0.003435  -0.002430   0.282932
     8  H    0.006338  -0.000152  -0.000571  -0.000191   0.000077  -0.028118
     9  H   -0.001148  -0.001786   0.003715   0.000060   0.000199  -0.030804
    10  H   -0.008851   0.005950  -0.000664  -0.000112  -0.000099  -0.032112
    11  C   -0.084239   0.009681  -0.010422  -0.006886  -0.001420   0.277637
    12  H   -0.001460  -0.000582   0.002720  -0.000568  -0.000054  -0.030794
    13  H    0.007787  -0.000577   0.000180  -0.000181   0.000380  -0.027558
    14  H   -0.011580   0.002212  -0.005879   0.019225  -0.004367  -0.031890
    15  O   -0.045394  -0.001333   0.004783  -0.007581  -0.031243   0.199088
    16  O   -0.009101   0.000347  -0.000335  -0.051249   0.231870  -0.066465
              7          8          9         10         11         12
     1  C   -0.050205   0.006338  -0.001148  -0.008851  -0.084239  -0.001460
     2  H    0.004215  -0.000152  -0.001786   0.005950   0.009681  -0.000582
     3  H   -0.008515  -0.000571   0.003715  -0.000664  -0.010422   0.002720
     4  O    0.003435  -0.000191   0.000060  -0.000112  -0.006886  -0.000568
     5  H   -0.002430   0.000077   0.000199  -0.000099  -0.001420  -0.000054
     6  C    0.282932  -0.028118  -0.030804  -0.032112   0.277637  -0.030794
     7  C    4.908133   0.399734   0.396205   0.398867  -0.048343  -0.005627
     8  H    0.399734   0.544652  -0.024694  -0.024127  -0.006526  -0.000141
     9  H    0.396205  -0.024694   0.562084  -0.022745  -0.005258   0.001757
    10  H    0.398867  -0.024127  -0.022745   0.539736   0.009547  -0.000114
    11  C   -0.048343  -0.006526  -0.005258   0.009547   4.952076   0.392686
    12  H   -0.005627  -0.000141   0.001757  -0.000114   0.392686   0.577865
    13  H   -0.006685   0.003659   0.000122  -0.000253   0.393696  -0.023188
    14  H    0.009695   0.000000  -0.000361  -0.000222   0.397831  -0.025953
    15  O   -0.040070   0.000084   0.003720   0.003635  -0.061438   0.003933
    16  O    0.007015  -0.000201  -0.000245  -0.000261   0.004600   0.000334
             13         14         15         16
     1  C    0.007787  -0.011580  -0.045394  -0.009101
     2  H   -0.000577   0.002212  -0.001333   0.000347
     3  H    0.000180  -0.005879   0.004783  -0.000335
     4  O   -0.000181   0.019225  -0.007581  -0.051249
     5  H    0.000380  -0.004367  -0.031243   0.231870
     6  C   -0.027558  -0.031890   0.199088  -0.066465
     7  C   -0.006685   0.009695  -0.040070   0.007015
     8  H    0.003659   0.000000   0.000084  -0.000201
     9  H    0.000122  -0.000361   0.003720  -0.000245
    10  H   -0.000253  -0.000222   0.003635  -0.000261
    11  C    0.393696   0.397831  -0.061438   0.004600
    12  H   -0.023188  -0.025953   0.003933   0.000334
    13  H    0.548591  -0.023994   0.001218   0.000359
    14  H   -0.023994   0.534882  -0.004715   0.013589
    15  O    0.001218  -0.004715   8.040860   0.085085
    16  O    0.000359   0.013589   0.085085   8.011771
 Mulliken atomic charges:
              1
     1  C    0.089526
     2  H    0.095775
     3  H    0.113384
     4  O   -0.385093
     5  H    0.294726
     6  C   -0.117334
     7  C   -0.248356
     8  H    0.130177
     9  H    0.119178
    10  H    0.131824
    11  C   -0.213222
    12  H    0.109187
    13  H    0.126445
    14  H    0.131526
    15  O   -0.150631
    16  O   -0.227113
 Sum of Mulliken charges=   0.00000
 Atomic charges with hydrogens summed into heavy atoms:
              1
     1  C    0.298686
     2  H    0.000000
     3  H    0.000000
     4  O   -0.385093
     5  H    0.000000
     6  C   -0.117334
     7  C    0.132823
     8  H    0.000000
     9  H    0.000000
    10  H    0.000000
    11  C    0.153936
    12  H    0.000000
    13  H    0.000000
    14  H    0.000000
    15  O   -0.150631
    16  O    0.067613
 Sum of Mulliken charges=   0.00000
          Atomic-Atomic Spin Densities.
              1          2          3          4          5          6
     1  C    0.002964   0.001121  -0.007094  -0.051799  -0.002401   0.068501
     2  H    0.001121  -0.003485   0.004793   0.001145   0.000255  -0.005080
     3  H   -0.007094   0.004793   0.074666  -0.003415  -0.000123  -0.022763
     4  O   -0.051799   0.001145  -0.003415   0.552700  -0.004946  -0.016788
     5  H   -0.002401   0.000255  -0.000123  -0.004946  -0.041005   0.002524
     6  C    0.068501  -0.005080  -0.022763  -0.016788   0.002524   0.096709
     7  C   -0.006717   0.000350   0.002919   0.000524  -0.000067  -0.000533
     8  H    0.000901  -0.000214  -0.000640  -0.000143  -0.000015   0.001434
     9  H   -0.000896   0.000271   0.000773   0.000046  -0.000013  -0.001372
    10  H   -0.000259   0.000306   0.000559   0.000146   0.000045  -0.002524
    11  C   -0.003360   0.000315   0.005455   0.005339   0.001642  -0.007354
    12  H   -0.000123   0.000024  -0.000477  -0.000049  -0.000040   0.000476
    13  H    0.000494  -0.000031  -0.000441  -0.000432  -0.000085  -0.000345
    14  H   -0.001765  -0.000019   0.001400   0.001065   0.000489  -0.001010
    15  O   -0.007528   0.001665   0.001499   0.012863   0.001522  -0.037606
    16  O    0.007675  -0.000601  -0.000673  -0.024071   0.017506   0.008007
              7          8          9         10         11         12
     1  C   -0.006717   0.000901  -0.000896  -0.000259  -0.003360  -0.000123
     2  H    0.000350  -0.000214   0.000271   0.000306   0.000315   0.000024
     3  H    0.002919  -0.000640   0.000773   0.000559   0.005455  -0.000477
     4  O    0.000524  -0.000143   0.000046   0.000146   0.005339  -0.000049
     5  H   -0.000067  -0.000015  -0.000013   0.000045   0.001642  -0.000040
     6  C   -0.000533   0.001434  -0.001372  -0.002524  -0.007354   0.000476
     7  C    0.000405  -0.003828   0.001281   0.001301   0.006721  -0.000076
     8  H   -0.003828   0.013643  -0.001180  -0.002034  -0.002744   0.000118
     9  H    0.001281  -0.001180  -0.000284   0.000584   0.000934  -0.000150
    10  H    0.001301  -0.002034   0.000584   0.001836   0.000293   0.000007
    11  C    0.006721  -0.002744   0.000934   0.000293   0.006395   0.000829
    12  H   -0.000076   0.000118  -0.000150   0.000007   0.000829  -0.001766
    13  H   -0.001400   0.001281  -0.000153  -0.000081  -0.000732   0.000068
    14  H    0.000217  -0.000189   0.000068   0.000019   0.001661  -0.000044
    15  O    0.000248   0.001633   0.000036   0.000394  -0.000659  -0.000052
    16  O   -0.000025  -0.000122   0.000000  -0.000033  -0.001919   0.000010
             13         14         15         16
     1  C    0.000494  -0.001765  -0.007528   0.007675
     2  H   -0.000031  -0.000019   0.001665  -0.000601
     3  H   -0.000441   0.001400   0.001499  -0.000673
     4  O   -0.000432   0.001065   0.012863  -0.024071
     5  H   -0.000085   0.000489   0.001522   0.017506
     6  C   -0.000345  -0.001010  -0.037606   0.008007
     7  C   -0.001400   0.000217   0.000248  -0.000025
     8  H    0.001281  -0.000189   0.001633  -0.000122
     9  H   -0.000153   0.000068   0.000036   0.000000
    10  H   -0.000081   0.000019   0.000394  -0.000033
    11  C   -0.000732   0.001661  -0.000659  -0.001919
    12  H    0.000068  -0.000044  -0.000052   0.000010
    13  H    0.006719  -0.001325   0.001642  -0.000743
    14  H   -0.001325  -0.000406  -0.000221  -0.000182
    15  O    0.001642  -0.000221   0.257574  -0.047679
    16  O   -0.000743  -0.000182  -0.047679   0.245319
 Mulliken atomic spin densities:
              1
     1  C   -0.000285
     2  H    0.000815
     3  H    0.056438
     4  O    0.472185
     5  H   -0.024711
     6  C    0.082275
     7  C    0.001320
     8  H    0.007900
     9  H   -0.000056
    10  H    0.000558
    11  C    0.012818
    12  H   -0.001245
    13  H    0.004433
    14  H   -0.000242
    15  O    0.185329
    16  O    0.202467
 Sum of Mulliken spin densities=   1.00000
 APT atomic charges:
              1
     1  C    0.270714
     2  H   -0.070471
     3  H    0.014452
     4  O   -0.381636
     5  H    0.051932
     6  C    0.401882
     7  C    0.041989
     8  H    0.004394
     9  H    0.008815
    10  H    0.011360
    11  C   -0.025582
    12  H    0.010080
    13  H    0.004287
    14  H    0.024567
    15  O   -0.276804
    16  O   -0.089978
 Sum of APT charges=   0.00000
 APT Atomic charges with hydrogens summed into heavy atoms:
              1
     1  C    0.214695
     2  H    0.000000
     3  H    0.000000
     4  O   -0.381636
     5  H    0.000000
     6  C    0.401882
     7  C    0.066558
     8  H    0.000000
     9  H    0.000000
    10  H    0.000000
    11  C    0.013351
    12  H    0.000000
    13  H    0.000000
    14  H    0.000000
    15  O   -0.276804
    16  O   -0.038046
 Sum of APT charges=   0.00000
 Electronic spatial extent (au):  <R**2>=  3424.4591
 Charge=     0.0000 electrons
 Dipole moment (field-independent basis, Debye):
    X=     2.8390    Y=     0.0780    Z=    -2.2966  Tot=     3.6524
 Quadrupole moment (field-independent basis, Debye-Ang):
   XX=   -64.1277   YY=   -44.7027   ZZ=   -44.5325
   XY=     1.4401   XZ=     8.9592   YZ=     1.5233
 Traceless Quadrupole moment (field-independent basis, Debye-Ang):
   XX=   -13.0067   YY=     6.4183   ZZ=     6.5885
   XY=     1.4401   XZ=     8.9592   YZ=     1.5233
 Octapole moment (field-independent basis, Debye-Ang**2):
  XXX=   582.2715  YYY=    -2.6860  ZZZ=   -12.2787  XYY=   166.8000
  XXY=   -14.4104  XXZ=   -37.4325  XZZ=   161.0996  YZZ=     4.1547
  YYZ=    -5.9497  XYZ=    -6.5110
 Hexadecapole moment (field-independent basis, Debye-Ang**3):
 XXXX= -4299.7496 YYYY=  -279.9097 ZZZZ=  -247.6938 XXXY=   121.9536
 XXXZ=   197.1780 YYYX=    36.5242 YYYZ=    -6.9699 ZZZX=    79.7373
 ZZZY=    -4.5825 XXYY=  -740.5880 XXZZ=  -686.0143 YYZZ=   -89.1129
 XXYZ=    27.3732 YYXZ=    35.6920 ZZXY=    -7.3949
 N-N= 3.457688108553D+02 E-N=-1.590592214526D+03  KE= 3.821892063305D+02
  Exact polarizability:  66.766  -2.998  69.966  -4.388  -4.525  56.173
 Approx polarizability: 103.781 -10.380 111.202  -6.275 -18.293  83.917
                          Isotropic Fermi Contact Couplings
        Atom                 a.u.       MegaHertz       Gauss      10(-4) cm-1
     1  C(13)             -0.01898     -21.34112      -7.61504      -7.11863
     2  H(1)               0.00023       1.04944       0.37447       0.35006
     3  H(1)               0.02390     106.85246      38.12761      35.64214
     4  O(17)              0.02367     -14.35164      -5.12102      -4.78719
     5  H(1)              -0.01686     -75.37115     -26.89430     -25.14111
     6  C(13)              0.01863      20.94055       7.47211       6.98501
     7  C(13)             -0.00067      -0.75531      -0.26951      -0.25195
     8  H(1)               0.00227      10.15935       3.62511       3.38879
     9  H(1)              -0.00010      -0.42952      -0.15326      -0.14327
    10  H(1)               0.00007       0.30066       0.10728       0.10029
    11  C(13)              0.00034       0.38418       0.13708       0.12815
    12  H(1)              -0.00036      -1.60755      -0.57361      -0.53622
    13  H(1)               0.00163       7.26743       2.59320       2.42415
    14  H(1)              -0.00018      -0.79300      -0.28296      -0.26452
    15  O(17)              0.02990     -18.12426      -6.46719      -6.04560
    16  O(17)             -0.00719       4.35972       1.55566       1.45424
 --------------------------------------------------------
       Center         ----  Spin Dipole Couplings  ----
                      3XX-RR        3YY-RR        3ZZ-RR
 --------------------------------------------------------
     1   Atom       -0.017702      0.075722     -0.058021
     2   Atom        0.003871     -0.000082     -0.003789
     3   Atom       -0.002613     -0.007752      0.010364
     4   Atom       -0.985066      1.708775     -0.723710
     5   Atom       -0.061632      0.089788     -0.028156
     6   Atom       -0.074051      0.167943     -0.093893
     7   Atom        0.014924     -0.007380     -0.007544
     8   Atom        0.003653     -0.000837     -0.002817
     9   Atom        0.004756     -0.002649     -0.002107
    10   Atom        0.007208     -0.003368     -0.003840
    11   Atom       -0.007665     -0.003245      0.010910
    12   Atom       -0.003942     -0.001715      0.005658
    13   Atom       -0.004143      0.002360      0.001783
    14   Atom       -0.003787     -0.000170      0.003957
    15   Atom       -0.477894      0.911106     -0.433212
    16   Atom       -0.541981      1.072972     -0.530991
 --------------------------------------------------------
                        XY            XZ            YZ
 --------------------------------------------------------
     1   Atom       -0.029582     -0.001955     -0.033927
     2   Atom        0.006876      0.007210      0.003488
     3   Atom        0.002402     -0.009396     -0.003371
     4   Atom       -0.235189      0.079221     -0.876906
     5   Atom       -0.008112     -0.003279     -0.091668
     6   Atom       -0.069151     -0.005002     -0.004336
     7   Atom       -0.005227     -0.003389     -0.000594
     8   Atom       -0.002969     -0.002301      0.000781
     9   Atom       -0.000297     -0.003996     -0.000583
    10   Atom        0.000549      0.001504     -0.000367
    11   Atom        0.006696      0.009633      0.015903
    12   Atom       -0.000324     -0.001628      0.002484
    13   Atom       -0.001039     -0.000114      0.004230
    14   Atom        0.000870      0.003065      0.005821
    15   Atom       -0.003220     -0.008502      0.221367
    16   Atom       -0.087489     -0.004819     -0.012762
 --------------------------------------------------------


 ---------------------------------------------------------------------------------
              Anisotropic Spin Dipole Couplings in Principal Axis System
 ---------------------------------------------------------------------------------

       Atom             a.u.   MegaHertz   Gauss  10(-4) cm-1        Axes

              Baa    -0.0679    -9.105    -3.249    -3.037  0.1920  0.2630  0.9455
     1 C(13)  Bbb    -0.0234    -3.137    -1.119    -1.046  0.9483  0.1983 -0.2477
              Bcc     0.0912    12.242     4.368     4.084 -0.2526  0.9442 -0.2113
 
              Baa    -0.0082    -4.371    -1.560    -1.458 -0.5595  0.1219  0.8198
     2 H(1)   Bbb    -0.0046    -2.460    -0.878    -0.820 -0.3680  0.8497 -0.3775
              Bcc     0.0128     6.830     2.437     2.278  0.7426  0.5129  0.4306
 
              Baa    -0.0087    -4.652    -1.660    -1.552 -0.4475  0.8921 -0.0627
     3 H(1)   Bbb    -0.0073    -3.886    -1.387    -1.296  0.7661  0.4186  0.4878
              Bcc     0.0160     8.539     3.047     2.848 -0.4614 -0.1702  0.8707
 
              Baa    -1.0094    73.040    26.063    24.364 -0.6307  0.1883  0.7528
     4 O(17)  Bbb    -1.0031    72.581    25.899    24.211  0.7716  0.2553  0.5826
              Bcc     2.0125  -145.622   -51.961   -48.574 -0.0825  0.9483 -0.3063
 
              Baa    -0.0806   -43.011   -15.347   -14.347  0.3379  0.4583  0.8220
     5 H(1)   Bbb    -0.0594   -31.670   -11.300   -10.564  0.9408 -0.1389 -0.3093
              Bcc     0.1400    74.680    26.648    24.911 -0.0275  0.8779 -0.4781
 
              Baa    -0.0992   -13.307    -4.748    -4.439  0.6371  0.1771  0.7502
     6 C(13)  Bbb    -0.0872   -11.698    -4.174    -3.902  0.7269  0.1858 -0.6612
              Bcc     0.1863    25.005     8.922     8.341 -0.2565  0.9665 -0.0104
 
              Baa    -0.0096    -1.287    -0.459    -0.429  0.2446  0.7447  0.6209
     7 C(13)  Bbb    -0.0069    -0.928    -0.331    -0.310 -0.0318 -0.6339  0.7728
              Bcc     0.0165     2.215     0.791     0.739  0.9691 -0.2088 -0.1314
 
              Baa    -0.0036    -1.904    -0.679    -0.635  0.3400  0.1023  0.9349
     8 H(1)   Bbb    -0.0022    -1.193    -0.426    -0.398  0.3644  0.9021 -0.2312
              Bcc     0.0058     3.097     1.105     1.033  0.8670 -0.4193 -0.2694
 
              Baa    -0.0042    -2.249    -0.803    -0.750  0.3861  0.3851  0.8382
     9 H(1)   Bbb    -0.0024    -1.268    -0.452    -0.423 -0.1582  0.9229 -0.3511
              Bcc     0.0066     3.517     1.255     1.173  0.9088 -0.0029 -0.4173
 
              Baa    -0.0043    -2.273    -0.811    -0.758 -0.1373  0.4479  0.8835
    10 H(1)   Bbb    -0.0032    -1.692    -0.604    -0.564  0.0180  0.8929 -0.4499
              Bcc     0.0074     3.965     1.415     1.323  0.9904  0.0459  0.1307
 
              Baa    -0.0136    -1.830    -0.653    -0.611 -0.1781  0.8563 -0.4848
    11 C(13)  Bbb    -0.0118    -1.578    -0.563    -0.526  0.9255 -0.0216 -0.3782
              Bcc     0.0254     3.408     1.216     1.137  0.3343  0.5160  0.7887
 
              Baa    -0.0042    -2.249    -0.802    -0.750  0.9838 -0.0448  0.1735
    12 H(1)   Bbb    -0.0025    -1.312    -0.468    -0.438  0.0920  0.9572 -0.2745
              Bcc     0.0067     3.561     1.271     1.188 -0.1538  0.2860  0.9458
 
              Baa    -0.0044    -2.340    -0.835    -0.781  0.9597  0.2398 -0.1468
    13 H(1)   Bbb    -0.0020    -1.063    -0.379    -0.355  0.2696 -0.6372  0.7220
              Bcc     0.0064     3.403     1.214     1.135 -0.0796  0.7324  0.6762
 
              Baa    -0.0054    -2.898    -1.034    -0.967  0.7258  0.4529 -0.5178
    14 H(1)   Bbb    -0.0034    -1.793    -0.640    -0.598 -0.6470  0.7053 -0.2899
              Bcc     0.0088     4.691     1.674     1.565  0.2339  0.5454  0.8049
 
              Baa    -0.4824    34.909    12.456    11.644  0.8670 -0.0762  0.4925
    15 O(17)  Bbb    -0.4642    33.589    11.985    11.204 -0.4984 -0.1389  0.8558
              Bcc     0.9466   -68.498   -24.442   -22.848 -0.0032  0.9874  0.1584
 
              Baa    -0.5484    39.685    14.161    13.238  0.9518  0.0537  0.3020
    16 O(17)  Bbb    -0.5293    38.303    13.667    12.777 -0.3020 -0.0089  0.9533
              Bcc     1.0778   -77.988   -27.828   -26.014 -0.0539  0.9985 -0.0078
 

 ---------------------------------------------------------------------------------

 Use density number 0.
 Entering OneElI...
 Calculate overlap and kinetic energy integrals
    NBasis = 187  MinDer = 2  MaxDer = 2
 Requested accuracy = 0.1000D-12
 PrsmSu:  NPrtUS=   1 ThrOK=F
 PRISM was handed   130757402 working-precision words and  2556 shell-pairs
 Entering OneElI...
 Calculate potential energy integrals
    NBasis = 187  MinDer = 2  MaxDer = 2
 Requested accuracy = 0.1000D-12
 PrsmSu:  NPrtUS=   8 ThrOK=T
 PRISM was handed    16299250 working-precision words and  2446 shell-pairs
 PRISM was handed    16299250 working-precision words and  2446 shell-pairs
 PRISM was handed    16299250 working-precision words and  2446 shell-pairs
 PRISM was handed    16299250 working-precision words and  2446 shell-pairs
 PRISM was handed    16299250 working-precision words and  2446 shell-pairs
 PRISM was handed    16299250 working-precision words and  2446 shell-pairs
 PRISM was handed    16299250 working-precision words and  2446 shell-pairs
 PRISM was handed    16299250 working-precision words and  2446 shell-pairs
 Polarizability after L701:
                1             2             3
      1  0.667661D+02
      2 -0.299793D+01  0.699662D+02
      3 -0.438759D+01 -0.452506D+01  0.561726D+02
 Dipole Derivatives after L701:
               1            2            3            4            5
      1 0.146391D+00 0.331497D+00 0.125395D+00-0.695291D-01-0.102142D+00
      2 0.458800D+00 0.376043D+00-0.550759D-01-0.148353D+00-0.656590D-01
      3 0.772252D-01-0.136066D+00 0.289708D+00-0.542360D-01-0.402593D-01
               6            7            8            9           10
      1-0.937204D-01 0.676962D-01-0.997058D-01 0.221028D-01-0.484162D+00
      2-0.785702D-01-0.909687D-01 0.695662D-01 0.478606D-01 0.948476D-01
      3-0.762243D-01 0.392063D-01 0.672577D-01-0.939066D-01-0.103692D+00
              11           12           13           14           15
      1 0.802181D-01 0.284696D-01 0.317989D+00 0.464307D-01-0.717201D-01
      2-0.410541D+00-0.240528D+00-0.476738D-01-0.268376D+00 0.504502D+00
      3-0.769916D-01-0.250205D+00-0.506126D-01 0.258712D+00 0.106184D+00
              16           17           18           19           20
      1 0.511870D+00-0.329042D+00-0.249197D-01-0.559056D-01 0.572634D-01
      2-0.233951D+00 0.250097D+00 0.124154D+00-0.253897D-01 0.145405D+00
      3-0.506321D-02 0.243395D+00 0.443678D+00 0.621952D-02-0.689960D-01
              21           22           23           24           25
      1 0.125261D-01 0.209300D-01 0.639796D-01 0.126032D-02 0.352525D-01
      2-0.457912D-01-0.801347D-02-0.867089D-01-0.147251D-01 0.196745D-01
      3 0.364667D-01 0.291270D-01-0.236085D-01 0.789598D-01 0.885560D-02
              26           27           28           29           30
      1-0.382237D-01 0.556938D-01 0.353915D-01-0.314689D-01-0.801473D-01
      2 0.228123D-01 0.683314D-01-0.251242D-01 0.446463D-01-0.539838D-01
      3 0.845881D-01-0.316199D-01-0.328904D-01-0.619088D-01-0.459564D-01
              31           32           33           34           35
      1-0.123876D+00 0.197055D-02-0.611265D-01 0.534068D-01-0.365162D-01
      2 0.487501D-01 0.320292D-01-0.589117D-01-0.414147D-01 0.273491D-01
      3-0.573229D-01-0.140590D+00 0.151010D-01 0.799771D-01 0.709134D-01
              36           37           38           39           40
      1 0.672079D-01 0.771676D-01 0.298563D-01-0.616427D-02-0.474201D-01
      2 0.513738D-02 0.272467D-01-0.954404D-01 0.280933D-01 0.419512D-02
      3-0.505172D-01-0.251094D-01-0.267550D-01 0.311330D-01-0.307357D-01
              41           42           43           44           45
      1 0.381430D-01 0.202902D-01-0.232668D+00 0.118256D+00-0.601079D-01
      2 0.480003D-01-0.224474D-02 0.678970D+00-0.306912D+00 0.301294D-01
      3 0.143025D-01 0.731196D-01-0.297009D+00-0.330932D-01-0.290831D+00
              46           47           48
      1-0.252534D+00-0.130516D+00 0.649605D-01
      2-0.711595D+00 0.217688D+00-0.258377D+00
      3 0.416060D+00-0.130901D+00-0.235089D+00
 Hessian after L701:
                1             2             3             4             5
      1  0.115683D+02
      2  0.139858D+01  0.179144D+02
      3  0.238862D+01  0.899890D-01  0.204500D+02
      4 -0.332293D+01  0.843531D+00  0.144897D+01  0.332369D+01
      5  0.104147D+01 -0.406254D+01  0.109838D+01 -0.113534D+01  0.334680D+01
      6  0.140566D+01  0.853509D+00 -0.325883D+01 -0.160592D+01 -0.103714D+01
      7 -0.436976D+01  0.263127D+00 -0.801164D+00  0.211147D+00 -0.110942D-01
      8  0.323229D+00 -0.413589D+01 -0.125145D+01  0.817623D-02  0.259124D+00
      9 -0.791460D+00 -0.100233D+01 -0.178031D+01 -0.181914D+00 -0.799194D-01
     10  0.799690D+00 -0.356774D+00 -0.272360D+01 -0.256210D+00  0.491983D-01
     11 -0.645494D+00 -0.105900D+02  0.288970D+00  0.828616D-01  0.213897D+00
     12 -0.264772D+01  0.227500D+00 -0.999269D+01  0.340909D+00  0.142447D+00
     13  0.192334D+00 -0.319431D-01 -0.481601D-01 -0.119306D-01 -0.106220D-01
     14  0.523430D-02 -0.601312D-01  0.298014D-01 -0.141205D-01 -0.796384D-02
     15 -0.611266D-01  0.293733D-01  0.171638D-01  0.455553D-02  0.839347D-02
     16 -0.457298D+01 -0.200614D+01 -0.789827D-01  0.139773D+00  0.348439D-01
     17 -0.191802D+01  0.141904D+00  0.161170D+00  0.568402D-01 -0.643509D-02
     18 -0.106185D+00  0.213792D+00 -0.533687D+01 -0.120088D-01 -0.321564D+00
     19 -0.137344D-01 -0.105476D-01 -0.819111D-02 -0.372777D-01 -0.614231D-01
     20 -0.150801D+00  0.558024D-01  0.238896D-01 -0.268071D-01  0.417283D-01
     21 -0.645368D-02  0.157253D-01 -0.207411D-01 -0.326084D-01  0.836406D-01
     22  0.500748D-01 -0.112048D+00 -0.896826D-02 -0.289491D-02 -0.568816D-02
     23 -0.118883D+00  0.857304D-01  0.112811D-01  0.236666D-02  0.107790D-01
     24 -0.133376D-01  0.146379D-01 -0.442522D-01  0.484763D-03  0.317539D-02
     25  0.250520D-01 -0.222209D-01 -0.336527D-01 -0.679424D-02  0.278180D-02
     26 -0.463582D-02 -0.210620D-01  0.522610D-02  0.440203D-02 -0.596665D-02
     27 -0.581054D-01  0.168292D-01 -0.413145D-02  0.758818D-02  0.171877D-02
     28 -0.278600D-01  0.256320D-01 -0.741353D-02  0.891931D-02 -0.528132D-01
     29  0.193233D-01 -0.423346D-02  0.578150D-02 -0.291335D-01  0.102999D-01
     30  0.215331D-01  0.166524D-02  0.903487D-02  0.325770D-02 -0.134021D-01
     31  0.158889D+00 -0.524538D-01 -0.171254D-01 -0.516954D-01  0.413406D-01
     32 -0.415247D-01 -0.462666D-01 -0.166297D-01  0.593104D-01  0.124248D+00
     33 -0.310451D-01 -0.179369D+00  0.139201D+00  0.421501D-01  0.149321D+00
     34 -0.231144D-01 -0.798129D-02 -0.181089D-01 -0.200366D-02 -0.223650D-02
     35 -0.195450D-02 -0.155049D-01  0.240667D-01 -0.551570D-03 -0.312736D-02
     36 -0.102003D-01  0.348509D-01  0.468869D-01  0.469942D-02  0.304869D-02
     37 -0.521512D-01  0.228453D-02  0.702881D-03  0.237683D-04 -0.272849D-02
     38  0.257916D-02  0.188037D+00  0.784930D-01  0.418845D-02 -0.261374D-02
     39  0.201531D-02  0.774969D-01 -0.291110D-01  0.392989D-04 -0.544228D-02
     40  0.714205D-02 -0.119905D-01 -0.279548D-02  0.135857D-01  0.290101D-01
     41 -0.228455D-01 -0.143226D-01 -0.246103D-01  0.212837D-01  0.175587D-01
     42 -0.241937D-01 -0.353218D-01 -0.123315D-01  0.189582D-01  0.247896D-01
     43 -0.129897D+00 -0.237595D-01  0.369739D-01 -0.209566D-01  0.323819D-01
     44 -0.436998D-01  0.476516D+00 -0.213162D+00  0.513019D-01  0.193838D-01
     45  0.687772D-01 -0.976428D-01 -0.197778D+00 -0.165089D-01 -0.349658D-01
     46 -0.289025D+00  0.102698D+00 -0.127100D+00  0.155486D-01  0.509258D-01
     47  0.157445D+00  0.875307D-01 -0.311197D+00  0.716952D-01  0.448341D-01
     48 -0.136774D+00 -0.260708D+00  0.147611D-01 -0.226491D-01 -0.224817D-01
                6             7             8             9            10
      6  0.341770D+01
      7 -0.156437D+00  0.450700D+01
      8 -0.121158D-02 -0.203000D+00  0.364423D+01
      9 -0.410582D+00  0.102619D+01  0.130138D+01  0.165187D+01
     10  0.355143D+00 -0.340383D+00 -0.102720D+00 -0.331145D-01  0.233183D+01
     11  0.113321D+00 -0.843380D-01  0.822857D-01 -0.357516D-02  0.149157D+01
     12  0.369495D+00 -0.131607D-01 -0.389095D-01  0.515214D+00  0.260821D+01
     13  0.380256D-02  0.144101D-01  0.386937D-01 -0.506632D-01 -0.207735D+01
     14  0.305969D-02  0.321414D-01  0.530810D-03 -0.416568D-01  0.382403D+00
     15  0.330804D-02 -0.397955D-01 -0.389953D-01  0.308590D-01 -0.227884D+00
     16  0.105116D-01  0.351625D-01 -0.922800D-01  0.223595D-01 -0.179763D+00
     17 -0.215388D+00 -0.582915D-01  0.139003D+00  0.688786D-01 -0.403782D+00
     18 -0.864838D-01 -0.199944D-02  0.190520D+00 -0.136342D+00  0.152088D+00
     19 -0.543414D-01 -0.278494D-01  0.340063D-01  0.981924D-02  0.282792D+00
     20  0.905696D-01  0.239652D-01 -0.199983D-01 -0.236336D-01 -0.227423D+00
     21 -0.295055D-02  0.824412D-02 -0.143431D-01  0.239036D-01 -0.492250D-01
     22 -0.339048D-02 -0.193314D-02 -0.338953D-03  0.338029D-02  0.148246D-01
     23  0.917953D-02  0.165111D-02  0.349041D-02 -0.872047D-02 -0.353558D-01
     24  0.109503D-03 -0.198281D-03  0.540979D-03 -0.508632D-03 -0.549697D-02
     25 -0.446482D-04  0.264906D-01 -0.394394D-01  0.139607D-01  0.400797D-01
     26 -0.739652D-02 -0.227135D-01 -0.126503D-02 -0.128422D-02  0.400774D-02
     27  0.600050D-02 -0.486306D-02  0.768277D-02 -0.257281D-01 -0.419354D-01
     28 -0.832050D-02 -0.494671D-03 -0.342352D-02  0.772263D-02  0.440483D-01
     29  0.236052D-02  0.320465D-03 -0.250670D-02  0.131129D-02 -0.168299D-02
     30 -0.315258D-01  0.246300D-02 -0.622571D-02  0.108745D-01  0.392511D-01
     31  0.296245D-01  0.244919D-01  0.433928D-01  0.280234D-02 -0.553893D-01
     32  0.137630D+00  0.420541D-01 -0.658648D-01 -0.206717D-01 -0.209877D+00
     33  0.492339D-01  0.684202D-02 -0.173210D-01  0.146170D-01 -0.106110D+00
     34 -0.295148D-02 -0.160719D-01 -0.470821D-02  0.236038D-02 -0.255754D-02
     35 -0.274968D-02  0.126373D-02  0.236279D-01  0.114969D-01 -0.959963D-02
     36  0.553998D-02  0.270968D-02  0.355654D-01 -0.142231D-01 -0.433363D-01
     37 -0.171261D-02 -0.328953D-02  0.184732D-03  0.510124D-03 -0.942229D-02
     38  0.210967D-02  0.308776D-02  0.182883D-01 -0.104886D-01 -0.320053D-01
     39 -0.140536D-02 -0.121033D-03  0.829659D-03 -0.285566D-02 -0.889551D-02
     40  0.240918D-01  0.249655D-02 -0.213199D-01 -0.999134D-02 -0.154430D+00
     41  0.210704D-01 -0.271559D-01 -0.344838D-01 -0.153205D-02 -0.473895D-01
     42  0.948629D-02 -0.412169D-02 -0.813229D-02  0.134533D-01 -0.335965D-01
     43  0.801083D-03 -0.496118D-01  0.662881D-02 -0.344548D-02 -0.171210D+00
     44  0.151612D-01  0.152690D-01  0.734263D-01 -0.137638D+00 -0.524858D+00
     45 -0.364516D-01 -0.847164D-02 -0.130717D+00  0.850108D-01  0.137273D+00
     46  0.348176D-02 -0.118030D-01  0.129183D-01 -0.185187D-01 -0.266552D+00
     47  0.159138D-01  0.237127D-01  0.160070D-01 -0.516250D-01  0.242931D-01
     48 -0.326455D-01 -0.161179D-01 -0.292181D-01  0.247471D-01 -0.187718D-01
               11            12            13            14            15
     11  0.901253D+01
     12  0.104830D+01  0.113602D+02
     13  0.637701D+00 -0.318164D+00  0.699410D+01
     14  0.313027D+00 -0.126062D+01  0.663641D+00  0.288660D+00
     15 -0.140046D+01 -0.147663D+01 -0.300831D-01  0.280890D+01  0.597155D+01
     16 -0.300017D+00  0.895207D-01 -0.198458D+00 -0.817747D-01  0.406661D-01
     17  0.322660D+00 -0.202761D-01 -0.626664D-01  0.413808D-01  0.771086D-01
     18 -0.573533D-01 -0.313168D-01  0.613811D-02  0.790736D-01  0.443639D-01
     19 -0.216333D+00 -0.307700D-01 -0.231395D-02 -0.732262D-02  0.691773D-02
     20 -0.705076D-01  0.182126D-01 -0.385828D-03 -0.326151D-02 -0.489519D-02
     21  0.228968D-01 -0.172826D+00  0.523149D-03  0.444310D-02 -0.864622D-02
     22 -0.162965D-01 -0.380389D-02  0.479262D-02 -0.622006D-02  0.944801D-03
     23  0.163441D-01  0.520496D-02 -0.472784D-02  0.280463D-02  0.559625D-04
     24  0.435949D-02 -0.925067D-02 -0.190986D-02  0.196268D-02 -0.140649D-02
     25 -0.172647D-01 -0.213874D-01  0.692267D-02 -0.125245D-02 -0.409939D-02
     26 -0.182186D-01 -0.115579D-02  0.143460D-02 -0.333937D-02  0.277575D-03
     27  0.125106D-01 -0.169670D-02 -0.574871D-02  0.189211D-02  0.179505D-03
     28 -0.204944D-01  0.108445D-01  0.320947D-02 -0.303837D-02  0.142488D-02
     29 -0.172234D-01 -0.109941D-02  0.149574D-02 -0.308631D-02  0.101113D-02
     30 -0.131755D-01 -0.115656D-01  0.285657D-02 -0.189092D-02 -0.731248D-03
     31 -0.292065D+00 -0.168304D+00 -0.330462D-01  0.614206D-02  0.286624D-01
     32  0.610480D-01  0.217419D+00  0.241718D-01 -0.222970D-01 -0.226812D-01
     33  0.180455D+00 -0.103095D+00  0.395424D-01 -0.747722D-02 -0.376605D-01
     34 -0.229154D-01 -0.339569D-01  0.344011D-03 -0.277538D-02 -0.198948D-02
     35 -0.118131D-01  0.193549D-01  0.671433D-04 -0.275009D-02  0.839792D-03
     36  0.465699D-01  0.440616D-01 -0.386720D-02  0.348955D-02  0.296428D-02
     37 -0.195619D-01 -0.785692D-02 -0.384574D-03 -0.591462D-02 -0.398725D-02
     38  0.539415D-01  0.306401D-01 -0.748201D-02  0.103561D-01  0.581573D-02
     39  0.183575D-01 -0.891881D-02 -0.462620D-02  0.839332D-02  0.345995D-03
     40  0.523762D-01  0.350199D-01  0.379448D-02  0.613032D-02  0.279232D-02
     41  0.130728D+00  0.137778D+00  0.136390D-02  0.735725D-03 -0.293679D-02
     42  0.180471D+00 -0.656161D-01  0.120694D-02  0.134881D-02 -0.403145D-02
     43 -0.478422D+00  0.123202D+00 -0.165098D+00  0.695346D-01 -0.311982D-01
     44  0.446839D+00 -0.203423D+00  0.117169D+00  0.225806D+00 -0.135140D-01
     45 -0.205224D+00 -0.366601D+00 -0.816961D-01  0.227240D-01  0.169803D+00
     46 -0.151304D+00  0.374217D-01 -0.473133D+01 -0.104281D+01  0.314200D+00
     47  0.544170D-01 -0.321369D+00 -0.136791D+01 -0.780472D+00 -0.144829D+01
     48 -0.236421D+00 -0.487880D-01  0.490849D+00 -0.165344D+01 -0.471142D+01
               16            17            18            19            20
     16  0.172752D+02
     17  0.177745D+00  0.172628D+02
     18  0.893596D+00  0.131224D+01  0.146682D+02
     19 -0.390082D+00 -0.166104D+00 -0.210597D+00  0.111242D+02
     20 -0.175064D+00 -0.611169D+01  0.310465D-01  0.880051D-01  0.159274D+02
     21 -0.285406D+00  0.338788D-01 -0.619133D+01  0.592492D+00 -0.102966D+00
     22  0.634798D-01  0.289776D-01 -0.383442D-01 -0.407036D+01 -0.100601D+01
     23 -0.601843D-01  0.885982D-01  0.340814D-01 -0.753474D+00 -0.176791D+01
     24 -0.414016D-01  0.255587D-01  0.490831D-01 -0.859010D-01  0.305685D+00
     25  0.588705D-01 -0.370408D-01  0.125148D+00 -0.391668D+01  0.651601D+00
     26  0.143153D-01  0.607520D-01  0.102088D-01  0.506303D+00 -0.353756D+01
     27  0.404342D-01  0.113136D-01 -0.677905D-03 -0.750694D+00 -0.115814D+01
     28  0.796153D-01 -0.236563D-01 -0.816904D-01 -0.392384D+01  0.495981D+00
     29  0.203234D-01  0.669210D-01  0.862653D-02  0.380692D+00 -0.402989D+01
     30  0.183382D-01  0.510950D-02  0.569914D-01  0.900390D+00  0.870293D+00
     31 -0.489946D+01  0.109894D+01  0.202884D+01  0.118434D+00  0.572228D-01
     32  0.116504D+01 -0.499632D+01  0.210580D+01 -0.278956D-01 -0.515040D-01
     33  0.214340D+01  0.209800D+01 -0.251921D+01  0.163214D-01  0.280329D-02
     34  0.840453D-01  0.229119D-01 -0.176394D-01 -0.135321D-01 -0.531090D-02
     35  0.274195D-01  0.939878D-01  0.129669D-01 -0.127393D-01 -0.212862D-01
     36  0.376298D-01  0.863636D-01 -0.936324D-01  0.191021D-01 -0.151817D-02
     37  0.479458D-01 -0.350235D-01  0.952436D-02 -0.175415D-01 -0.232126D-03
     38  0.339051D-02  0.376183D-01  0.644814D-01  0.896119D-02  0.209443D-01
     39  0.121294D-01 -0.236628D-01  0.906803D-01 -0.156040D-01 -0.812162D-02
     40 -0.215319D-01 -0.154920D-01  0.646866D-01  0.206365D+00  0.318645D-01
     41 -0.781826D-01  0.508088D-01  0.863659D-04  0.289878D-01 -0.558566D-01
     42 -0.542794D-01  0.839626D-02  0.131385D+00  0.908139D-01  0.862206D-02
     43 -0.725983D+01  0.113716D+01 -0.281095D+01  0.254186D+00  0.149992D+00
     44  0.117250D+01 -0.751930D+01 -0.370926D+01  0.112724D+00 -0.175963D+00
     45 -0.277631D+01 -0.364464D+01 -0.783330D+00 -0.243668D+00 -0.198408D-01
     46 -0.261940D+00  0.197509D+00 -0.604480D-03  0.427222D+00  0.934017D-01
     47  0.178060D+00  0.327271D+00  0.252541D-01  0.961593D-01 -0.200476D+00
     48 -0.722016D-01  0.159467D-01  0.138515D+00 -0.236090D+00 -0.320050D-01
               21            22            23            24            25
     21  0.159442D+02
     22 -0.102159D+00  0.368238D+01
     23  0.270799D+00  0.113256D+01  0.170482D+01
     24 -0.430438D+01  0.205819D+00 -0.365469D+00  0.426028D+01
     25 -0.939230D+00  0.779664D-01 -0.107332D-01 -0.374103D-02  0.352739D+01
     26 -0.112381D+01 -0.797779D-02 -0.597275D-01  0.821023D-01 -0.630417D+00
     27 -0.263525D+01 -0.695244D-02  0.456133D-01  0.512187D-01  0.981884D+00
     28  0.118023D+01  0.719180D-01 -0.112007D-01 -0.859409D-04  0.752007D-01
     29  0.870987D+00 -0.130459D-01 -0.166384D-01 -0.869721D-01  0.955214D-02
     30 -0.233188D+01  0.204187D-02 -0.437072D-01  0.259086D-01 -0.513635D-02
     31  0.116583D+00 -0.150667D-01 -0.258492D-01  0.111850D-01  0.184448D-02
     32 -0.124844D-01 -0.189256D-02  0.290336D-02  0.942783D-03  0.635691D-02
     33 -0.392605D-01  0.541564D-02 -0.326327D-02 -0.248028D-02 -0.168710D-01
     34  0.347722D-02 -0.370229D-03 -0.216219D-02  0.308224D-02  0.118069D-01
     35 -0.174165D-01 -0.487213D-02  0.195394D-02 -0.250785D-02  0.731613D-02
     36  0.270673D-01  0.120064D-01 -0.158154D-01  0.266383D-02  0.279774D-01
     37 -0.628452D-02  0.296638D-01  0.348561D-02  0.158742D-01  0.330364D-02
     38  0.835138D-02  0.288596D-01 -0.249624D-01  0.756769D-02  0.149813D-01
     39 -0.179364D-01  0.211587D-01  0.161157D-02 -0.102071D-01  0.196397D-03
     40  0.770212D-01  0.123363D-01 -0.134222D-01  0.130624D-02  0.698351D-02
     41  0.440366D-02 -0.276821D-02  0.236446D-03 -0.287561D-03 -0.459604D-03
     42 -0.369226D-01  0.323495D-02 -0.228060D-02 -0.213668D-02  0.123094D-03
     43 -0.320159D+00  0.586270D-01 -0.733195D-01 -0.675443D-01  0.519994D-01
     44 -0.495213D-02 -0.795660D-02 -0.344039D-01  0.637866D-02  0.572041D-01
     45 -0.107249D+00 -0.697766D-01  0.454618D-01 -0.660601D-02 -0.111437D+00
     46 -0.237044D+00  0.245573D-01 -0.307488D-01 -0.181351D-01  0.956535D-02
     47 -0.391554D-01 -0.527997D-02 -0.140197D-01  0.232476D-02  0.903453D-02
     48 -0.125826D+00 -0.206073D-01  0.159670D-01 -0.803827D-02 -0.136899D-01
               26            27            28            29            30
     26  0.353403D+01
     27  0.110678D+01  0.264583D+01
     28  0.857281D-02 -0.408009D-02  0.342858D+01
     29  0.717935D-01  0.361019D-01 -0.550282D+00  0.402319D+01
     30 -0.449837D-02 -0.842078D-01 -0.114715D+01 -0.859844D+00  0.238551D+01
     31  0.274147D-01 -0.236228D-01  0.889865D-01  0.592614D-01  0.126283D+00
     32 -0.257896D-02 -0.770267D-02  0.618257D-01 -0.336448D-01  0.479900D-01
     33 -0.859153D-02 -0.844228D-02  0.132148D+00  0.499087D-01  0.471022D-01
     34  0.102164D-01  0.820648D-02 -0.836634D-03  0.301300D-03  0.138156D-02
     35 -0.922591D-02  0.384532D-02 -0.451078D-03 -0.273566D-02 -0.137346D-02
     36  0.158064D-01 -0.104804D-01  0.928671D-02  0.488382D-02  0.135964D-01
     37  0.690200D-02 -0.157173D-02 -0.656426D-03  0.125856D-02  0.145378D-02
     38  0.127429D-01 -0.866991D-02  0.733024D-02  0.550621D-02  0.109026D-01
     39  0.111945D-03 -0.333473D-02  0.135924D-02  0.139719D-02  0.424751D-03
     40  0.698433D-02 -0.810666D-02  0.202222D-02  0.350889D-02  0.778334D-02
     41 -0.133877D-02  0.716604D-04 -0.263508D-02 -0.777104D-03 -0.132916D-02
     42  0.201146D-03 -0.166358D-02 -0.230162D-02  0.293030D-03  0.367459D-03
     43  0.614907D-01 -0.109967D+00  0.109827D+00  0.762072D-01  0.259250D-02
     44 -0.157958D-01 -0.587234D-01  0.491774D-01 -0.566464D-01 -0.103641D-03
     45 -0.627638D-01  0.654245D-01 -0.902625D-01 -0.331471D-01 -0.677721D-01
     46  0.137007D-01 -0.224656D-01  0.413657D-01  0.218996D-01  0.226603D-01
     47 -0.324055D-02 -0.111240D-01  0.194748D-01 -0.103244D-01  0.958996D-02
     48 -0.112173D-01  0.696265D-02 -0.171001D-02 -0.160030D-02 -0.221306D-01
               31            32            33            34            35
     31  0.147374D+02
     32 -0.456608D+00  0.156988D+02
     33 -0.104447D+01 -0.158031D+01  0.132106D+02
     34 -0.402144D+01  0.337015D+00 -0.878254D+00  0.401137D+01
     35  0.309893D+00 -0.413211D+01 -0.710760D+00 -0.282971D+00  0.409796D+01
     36 -0.100343D+01 -0.882546D+00 -0.215093D+01  0.899378D+00  0.620080D+00
     37 -0.440422D+01 -0.362741D+00  0.342230D-01  0.705788D-01 -0.373917D-01
     38 -0.422711D+00 -0.156335D+01 -0.271678D+00 -0.130317D-01 -0.381358D-01
     39  0.410905D-02 -0.157197D-01 -0.446773D+01  0.209693D-02  0.939728D-01
     40 -0.160618D+01 -0.606151D+00 -0.109486D+00 -0.457156D-01 -0.219046D-02
     41 -0.412812D+00 -0.464864D+01 -0.503978D-02 -0.355543D-01  0.808930D-01
     42  0.256322D+00 -0.660683D-01 -0.476909D+01  0.952829D-01 -0.368465D-02
     43  0.157134D-01 -0.985564D-02  0.155605D+00 -0.463592D-01  0.201684D-02
     44 -0.720158D-02  0.530960D-01  0.315102D+00  0.146818D-02 -0.437141D-01
     45  0.158592D+00  0.146459D+00  0.401637D+00 -0.273140D-01 -0.339478D-01
     46 -0.592903D-01  0.207681D-01 -0.389410D+00 -0.614017D-02  0.474511D-02
     47  0.260983D-01 -0.377524D+00 -0.117786D-01  0.773399D-02 -0.180194D-01
     48 -0.506056D+00 -0.314272D-01  0.235534D+00 -0.350517D-01 -0.141826D-01
               36            37            38            39            40
     36  0.181283D+01
     37  0.176889D-01  0.439215D+01
     38  0.836399D-01  0.386791D+00  0.129397D+01
     39  0.263961D-01  0.656160D-02 -0.202717D+00  0.424913D+01
     40  0.830351D-01  0.153777D-01  0.475100D-01  0.765457D-02  0.166474D+01
     41  0.157317D-01  0.861914D-01  0.117552D-01 -0.511594D-02  0.489923D+00
     42  0.405051D-01 -0.145381D-01  0.143790D-01  0.655390D-01 -0.355093D+00
     43 -0.171265D-01 -0.568883D-01  0.637405D-03  0.622404D-02  0.142139D-01
     44 -0.353287D-01 -0.443664D-02 -0.172178D-01  0.307252D-01  0.946042D-02
     45  0.184571D+00 -0.234986D-02  0.107848D+00  0.799980D-01  0.798730D-01
     46 -0.355572D-01 -0.144884D-01 -0.330867D-01 -0.342977D-01 -0.121201D+00
     47 -0.148206D-01 -0.190673D-01 -0.687593D-02  0.278830D-01 -0.620160D-02
     48  0.621812D-01 -0.482379D-01  0.793246D-01  0.289782D-01  0.102209D+00
               41            42            43            44            45
     41  0.461345D+01
     42 -0.117361D+00  0.444860D+01
     43  0.850231D-03  0.274180D-01  0.325709D+01
     44 -0.245549D-01  0.181223D-01 -0.125214D+01  0.134318D+02
     45 -0.219433D-02  0.344884D-01  0.410147D+01  0.368331D+01  0.635615D+01
     46  0.120340D-02 -0.523581D-02  0.413820D+01  0.254022D+00 -0.111819D+01
     47 -0.126191D+00 -0.237744D-01  0.300597D+00 -0.683926D+01  0.259277D+00
     48 -0.187344D-01  0.147967D+00 -0.109389D+01  0.307305D+00 -0.581129D+01
               46            47            48
     46  0.110531D+01
     47  0.484156D+00  0.784635D+01
     48  0.162879D+01  0.189289D+01  0.101005D+02
 ReadGW:  IGet=0 IStart=         114 Next=        7213 LGW=        7099.
 ICntrl=12127.
 Symmetry not used in FoFDir.
 MinBra= 0 MaxBra= 2 Meth= 1.
 IRaf=       0 NMat=   1 IRICut=       1 DoRegI=T DoRafI=F ISym2E= 0 JSym2E=0.
 PrsmSu:  NPrtUS=   8 ThrOK=T
 PRISM was handed    16285494 working-precision words and  2513 shell-pairs
 PRISM was handed    16285494 working-precision words and  2513 shell-pairs
 PRISM was handed    16285494 working-precision words and  2513 shell-pairs
 PRISM was handed    16285494 working-precision words and  2513 shell-pairs
 PRISM was handed    16285494 working-precision words and  2513 shell-pairs
 PRISM was handed    16285494 working-precision words and  2513 shell-pairs
 PRISM was handed    16285494 working-precision words and  2513 shell-pairs
 PRISM was handed    16285494 working-precision words and  2513 shell-pairs
 Pruned (  75, 302) grid will be used in CalDFT.
 CkSvGd:  ISavGI=        -1 IRadAn=       4 IRASav=       4 ISavGd=        -1.
 CalDSu:  NPrtUS=   8 ThrOK=T
 IPart= 4 IRanGd=          0 ScrnBf=T ScrnGd=T RCrit=4.00D+00 DoMicB=T.
 IPart= 7 IRanGd=          0 ScrnBf=T ScrnGd=T RCrit=4.00D+00 DoMicB=T.
 CutRad = 1000.00    CtRdIn =    0.00    XCrit =  15.00   ICut = 0
 IPart= 3 IRanGd=          0 ScrnBf=T ScrnGd=T RCrit=4.00D+00 DoMicB=T.
 CutRad = 1000.00    CtRdIn =    0.00    XCrit =  15.00   ICut = 0
 CutRad = 1000.00    CtRdIn =    0.00    XCrit =  15.00   ICut = 0
 IPart= 5 IRanGd=          0 ScrnBf=T ScrnGd=T RCrit=4.00D+00 DoMicB=T.
 IPart= 2 IRanGd=          0 ScrnBf=T ScrnGd=T RCrit=4.00D+00 DoMicB=T.
 CutRad = 1000.00    CtRdIn =    0.00    XCrit =  15.00   ICut = 0
 IPart= 6 IRanGd=          0 ScrnBf=T ScrnGd=T RCrit=4.00D+00 DoMicB=T.
 IPart= 1 IRanGd=          0 ScrnBf=T ScrnGd=T RCrit=4.00D+00 DoMicB=T.
 CutRad = 1000.00    CtRdIn =    0.00    XCrit =  15.00   ICut = 0
 CutRad = 1000.00    CtRdIn =    0.00    XCrit =  15.00   ICut = 0
 CutRad = 1000.00    CtRdIn =    0.00    XCrit =  15.00   ICut = 0
 IPart= 0 IRanGd=          0 ScrnBf=T ScrnGd=T RCrit=4.00D+00 DoMicB=T.
 CutRad = 1000.00    CtRdIn =    0.00    XCrit =  15.00   ICut = 0
 IPart= 5        13257 of        15548 points in      33 batches and      100 microbatches, Max-NSigAt=      16 Max-NSgAt2=      16
 IPart= 1        15463 of        18018 points in      37 batches and       98 microbatches, Max-NSigAt=      16 Max-NSgAt2=      16
 IPart= 2        14474 of        16102 points in      32 batches and       89 microbatches, Max-NSigAt=      16 Max-NSgAt2=      16
 IPart= 3        12933 of        14960 points in      30 batches and       84 microbatches, Max-NSigAt=      16 Max-NSgAt2=      16
 IPart= 7        13352 of        14578 points in      28 batches and       94 microbatches, Max-NSigAt=      16 Max-NSgAt2=      16
 IPart= 4        14453 of        16782 points in      36 batches and      107 microbatches, Max-NSigAt=      16 Max-NSgAt2=      16
 IPart= 0        12849 of        14586 points in      29 batches and       88 microbatches, Max-NSigAt=      16 Max-NSgAt2=      16
 IPart= 6        14806 of        17070 points in      36 batches and       96 microbatches, Max-NSigAt=      16 Max-NSgAt2=      16
 Polarizability after L703:
                1             2             3
      1  0.667661D+02
      2 -0.299793D+01  0.699662D+02
      3 -0.438759D+01 -0.452506D+01  0.561726D+02
 Dipole Derivatives after L703:
               1            2            3            4            5
      1 0.146391D+00 0.331497D+00 0.125395D+00-0.695291D-01-0.102142D+00
      2 0.458800D+00 0.376043D+00-0.550759D-01-0.148353D+00-0.656590D-01
      3 0.772252D-01-0.136066D+00 0.289708D+00-0.542360D-01-0.402593D-01
               6            7            8            9           10
      1-0.937204D-01 0.676962D-01-0.997058D-01 0.221028D-01-0.484162D+00
      2-0.785702D-01-0.909687D-01 0.695662D-01 0.478606D-01 0.948476D-01
      3-0.762243D-01 0.392063D-01 0.672577D-01-0.939066D-01-0.103692D+00
              11           12           13           14           15
      1 0.802181D-01 0.284696D-01 0.317989D+00 0.464307D-01-0.717201D-01
      2-0.410541D+00-0.240528D+00-0.476738D-01-0.268376D+00 0.504502D+00
      3-0.769916D-01-0.250205D+00-0.506126D-01 0.258712D+00 0.106184D+00
              16           17           18           19           20
      1 0.511870D+00-0.329042D+00-0.249197D-01-0.559056D-01 0.572634D-01
      2-0.233951D+00 0.250097D+00 0.124154D+00-0.253897D-01 0.145405D+00
      3-0.506321D-02 0.243395D+00 0.443678D+00 0.621952D-02-0.689960D-01
              21           22           23           24           25
      1 0.125261D-01 0.209300D-01 0.639796D-01 0.126032D-02 0.352525D-01
      2-0.457912D-01-0.801347D-02-0.867089D-01-0.147251D-01 0.196745D-01
      3 0.364667D-01 0.291270D-01-0.236085D-01 0.789598D-01 0.885560D-02
              26           27           28           29           30
      1-0.382237D-01 0.556938D-01 0.353915D-01-0.314689D-01-0.801473D-01
      2 0.228123D-01 0.683314D-01-0.251242D-01 0.446463D-01-0.539838D-01
      3 0.845881D-01-0.316199D-01-0.328904D-01-0.619088D-01-0.459564D-01
              31           32           33           34           35
      1-0.123876D+00 0.197055D-02-0.611265D-01 0.534068D-01-0.365162D-01
      2 0.487501D-01 0.320292D-01-0.589117D-01-0.414147D-01 0.273491D-01
      3-0.573229D-01-0.140590D+00 0.151010D-01 0.799771D-01 0.709134D-01
              36           37           38           39           40
      1 0.672079D-01 0.771676D-01 0.298563D-01-0.616427D-02-0.474201D-01
      2 0.513738D-02 0.272467D-01-0.954404D-01 0.280933D-01 0.419512D-02
      3-0.505172D-01-0.251094D-01-0.267550D-01 0.311330D-01-0.307357D-01
              41           42           43           44           45
      1 0.381430D-01 0.202902D-01-0.232668D+00 0.118256D+00-0.601079D-01
      2 0.480003D-01-0.224474D-02 0.678970D+00-0.306912D+00 0.301294D-01
      3 0.143025D-01 0.731196D-01-0.297009D+00-0.330932D-01-0.290831D+00
              46           47           48
      1-0.252534D+00-0.130516D+00 0.649605D-01
      2-0.711595D+00 0.217688D+00-0.258377D+00
      3 0.416060D+00-0.130901D+00-0.235089D+00
 Hessian after L703:
                1             2             3             4             5
      1  0.475541D+00
      2  0.131386D+00  0.295152D+00
      3  0.330412D-01  0.637866D-02  0.556965D+00
      4 -0.108401D+00 -0.602618D-01 -0.917110D-01  0.147032D+00
      5 -0.640070D-01 -0.855326D-01 -0.783521D-01  0.644475D-01  0.974004D-01
      6 -0.858550D-01 -0.778689D-01 -0.175851D+00  0.994700D-01  0.827210D-01
      7 -0.419634D-01 -0.202674D-01  0.241126D-01  0.435332D-02  0.665532D-02
      8 -0.259829D-01 -0.660738D-01  0.787178D-01  0.199453D-02  0.690036D-02
      9  0.161555D-01  0.752790D-01 -0.244903D+00  0.166019D-02  0.960590D-02
     10 -0.262336D+00 -0.372777D-01  0.295966D-01 -0.454478D-01  0.330990D-02
     11  0.634840D-03 -0.702109D-01 -0.130413D-02 -0.148977D-01  0.781329D-02
     12  0.386184D-01  0.103711D-01 -0.759776D-01 -0.154035D-01  0.259841D-02
     13  0.440423D-03 -0.195781D-01  0.103605D-01 -0.113536D-02  0.195528D-02
     14 -0.175088D-01  0.237484D-01  0.265632D-02 -0.970189D-03 -0.165597D-02
     15  0.810956D-02 -0.152662D-01  0.231513D-02  0.473839D-03  0.424679D-02
     16 -0.341824D-01 -0.120120D-01 -0.634464D-02  0.206523D-02 -0.105049D-01
     17 -0.579445D-01 -0.925076D-02 -0.152123D-01  0.577532D-02 -0.263680D-01
     18  0.506676D-02 -0.434817D-01 -0.306704D-01  0.463163D-02 -0.136275D-01
     19 -0.126935D-01  0.545274D-02  0.647780D-03  0.461457D-03 -0.123282D-02
     20  0.302251D-01 -0.109673D-01 -0.100414D-02  0.981691D-03  0.192862D-02
     21  0.225958D-02 -0.535569D-04  0.483034D-03  0.135912D-03 -0.101232D-02
     22 -0.517230D-02 -0.185416D-05 -0.278039D-03  0.766027D-04 -0.376504D-03
     23 -0.423099D-04  0.123091D-02 -0.239917D-03 -0.899247D-04  0.300274D-03
     24 -0.630119D-03  0.286347D-03 -0.783406D-03  0.233543D-03  0.300471D-03
     25  0.647619D-03 -0.155995D-02  0.101084D-02  0.151524D-03  0.378177D-03
     26  0.445746D-03  0.289968D-03  0.143682D-03 -0.175381D-03 -0.506024D-04
     27 -0.959075D-04  0.574022D-03  0.564785D-05  0.837523D-04 -0.434905D-04
     28  0.113661D-03 -0.106942D-02 -0.137633D-02  0.115571D-03  0.765022D-03
     29  0.577297D-03  0.102577D-02  0.778884D-03  0.314496D-03 -0.199886D-03
     30 -0.550248D-03 -0.412895D-03 -0.535652D-03  0.122201D-03  0.550828D-03
     31 -0.935327D-03  0.702589D-02  0.259988D-02  0.215619D-03  0.113440D-02
     32 -0.630161D-02 -0.310433D-01 -0.210527D-01  0.203406D-02 -0.347589D-02
     33 -0.228302D-02 -0.197251D-02 -0.382416D-02 -0.115844D-03  0.136591D-03
     34  0.379420D-03  0.520220D-03  0.608963D-05 -0.401955D-04  0.159829D-04
     35  0.761159D-03  0.523789D-03 -0.324792D-03 -0.116783D-03  0.949203D-04
     36  0.152423D-02  0.137534D-02 -0.361815D-03 -0.267464D-03 -0.186715D-03
     37 -0.976525D-03 -0.251894D-02 -0.961781D-03  0.278419D-03 -0.407715D-03
     38 -0.155459D-02 -0.116585D-02 -0.161493D-02  0.389391D-03 -0.551050D-03
     39 -0.681103D-03 -0.421169D-02 -0.284145D-02  0.430180D-03 -0.853301D-03
     40 -0.450394D-03  0.901120D-04  0.133225D-03 -0.483576D-04  0.879143D-04
     41 -0.109459D-02  0.115394D-02  0.310570D-04  0.116785D-03  0.495181D-04
     42 -0.501204D-03  0.472090D-03  0.482576D-03  0.157185D-03  0.181095D-03
     43 -0.460315D-02 -0.212795D-01  0.713129D-02  0.313075D-02  0.394913D-02
     44  0.182957D-01 -0.496936D-01  0.313960D-01 -0.903949D-03  0.609284D-02
     45 -0.202774D-01  0.447116D-01 -0.185472D-01  0.135920D-02 -0.423483D-02
     46 -0.540860D-02  0.313514D-01 -0.796819D-02 -0.280795D-02 -0.616966D-02
     47 -0.788969D-02  0.813507D-03 -0.997420D-03  0.136195D-02 -0.274628D-02
     48  0.609887D-02  0.381931D-02 -0.595542D-02 -0.125972D-02 -0.203079D-02
                6             7             8             9            10
      6  0.178622D+00
      7 -0.136142D-01  0.637338D-01
      8 -0.141187D-01  0.175075D-01  0.765773D-01
      9 -0.184545D-01 -0.411220D-01 -0.846754D-01  0.268940D+00
     10  0.877334D-03 -0.262651D-01  0.655886D-02  0.238419D-01  0.376130D+00
     11  0.517939D-02 -0.130612D-01  0.479677D-02  0.427944D-02 -0.250731D-01
     12  0.176563D-01  0.362953D-01 -0.394582D-02 -0.492555D-02 -0.577281D-01
     13 -0.530385D-03 -0.229182D-02  0.931104D-03  0.291034D-03 -0.262737D-01
     14  0.937481D-03  0.136069D-02 -0.215137D-02 -0.440257D-02  0.373967D-01
     15 -0.142289D-02  0.189609D-02  0.909774D-04  0.546882D-03 -0.161800D-01
     16 -0.257105D-02  0.938883D-03 -0.900414D-03  0.100215D-02 -0.358322D-01
     17  0.391070D-02  0.573205D-02 -0.188675D-01 -0.101114D-02  0.568049D-01
     18 -0.610705D-02 -0.737656D-02  0.237378D-01 -0.400515D-02 -0.491625D-02
     19 -0.151235D-03 -0.326091D-03 -0.626909D-03  0.216199D-03 -0.350361D-03
     20  0.313336D-04 -0.446155D-03  0.957832D-03 -0.124317D-03 -0.559575D-03
     21  0.749948D-04 -0.655674D-03 -0.304722D-04 -0.386266D-03  0.122652D-03
     22  0.325338D-03  0.169892D-03 -0.162023D-03 -0.181191D-03  0.264918D-03
     23  0.169374D-03 -0.156558D-03  0.120366D-03  0.642934D-04  0.378472D-03
     24  0.204634D-03  0.132791D-03 -0.330085D-03  0.375359D-03  0.160779D-03
     25 -0.864486D-04 -0.144589D-03  0.696328D-03 -0.469029D-03  0.287947D-03
     26 -0.151173D-03  0.322552D-03  0.198427D-03 -0.981478D-04 -0.306112D-03
     27 -0.191097D-03  0.545403D-04 -0.268387D-03  0.471264D-03 -0.128085D-03
     28  0.422934D-03 -0.542310D-05  0.911601D-05  0.205683D-03  0.674431D-03
     29 -0.359518D-04  0.190794D-03 -0.100067D-03 -0.479339D-04  0.124245D-03
     30  0.551061D-03  0.880857D-04 -0.100140D-03  0.186046D-03  0.518816D-03
     31  0.803991D-03  0.997370D-03 -0.755406D-03  0.281178D-03  0.236723D-02
     32 -0.145220D-02 -0.751106D-03  0.168807D-02 -0.164327D-02 -0.593990D-02
     33  0.957062D-03  0.558338D-03  0.390531D-03  0.290337D-03  0.801393D-03
     34 -0.262543D-05  0.241487D-03  0.240901D-03  0.150974D-03 -0.463924D-04
     35  0.194868D-03 -0.316965D-04 -0.626031D-03 -0.122394D-03 -0.222361D-03
     36  0.424239D-03 -0.206355D-03 -0.790032D-03  0.635733D-03 -0.382105D-03
     37 -0.347413D-03 -0.268750D-03  0.177087D-03 -0.334738D-03  0.425011D-03
     38 -0.411950D-03 -0.392354D-04  0.623501D-03 -0.298026D-04 -0.635505D-03
     39 -0.112887D-03 -0.285370D-03  0.180637D-03  0.177791D-03 -0.150769D-02
     40  0.114781D-03 -0.252234D-03 -0.681714D-04 -0.563774D-04  0.637960D-03
     41  0.278178D-03 -0.299507D-04 -0.151646D-03  0.475120D-04  0.127146D-02
     42  0.716345D-04  0.259690D-03  0.115366D-03  0.101106D-03  0.763570D-03
     43 -0.752818D-03  0.282030D-02  0.117582D-02 -0.273591D-03 -0.147141D-01
     44 -0.170450D-03  0.906338D-03 -0.448853D-02  0.203578D-02 -0.160225D-01
     45  0.291049D-02  0.872265D-03  0.502047D-03  0.231366D-03  0.194441D-01
     46  0.189684D-02 -0.173764D-02 -0.795402D-03 -0.136788D-02  0.304775D-01
     47  0.787106D-03  0.210808D-02  0.596311D-03  0.843049D-03 -0.198078D-01
     48  0.667091D-03 -0.100967D-02  0.523887D-03  0.718403D-03  0.471517D-02
               11            12            13            14            15
     11  0.109843D+00
     12 -0.130034D-01  0.739870D-01
     13  0.362213D-02  0.689572D-03  0.109052D+00
     14  0.434208D-01 -0.427131D-01 -0.330786D-01  0.344804D-01
     15 -0.227075D-01  0.993418D-02 -0.610785D-02  0.203277D-01  0.325937D-02
     16  0.293843D-01  0.768177D-02 -0.289408D-02 -0.109250D-01  0.104114D-01
     17 -0.614957D-02 -0.175264D-01  0.111242D-01 -0.130803D-01  0.172401D-01
     18 -0.555644D-02 -0.335939D-02 -0.288465D-02  0.112051D-01 -0.948622D-02
     19  0.116882D-02  0.200321D-03 -0.289622D-03 -0.236545D-03 -0.186790D-03
     20 -0.544195D-02  0.172623D-02 -0.168313D-02  0.512069D-02 -0.484106D-02
     21 -0.201196D-03 -0.681728D-04 -0.446176D-03  0.877035D-04  0.865013D-03
     22  0.192553D-02 -0.454592D-03  0.626593D-03 -0.210046D-02  0.167916D-02
     23  0.000000D+00  0.993975D-04 -0.110861D-03 -0.132264D-03 -0.305960D-04
     24 -0.174752D-04  0.693565D-03 -0.415033D-04  0.356747D-03 -0.103259D-03
     25  0.512405D-04 -0.198500D-03  0.170534D-03  0.316983D-03 -0.704400D-03
     26  0.172875D-04 -0.266492D-03 -0.115381D-03 -0.126034D-03  0.293418D-03
     27 -0.282689D-03  0.438622D-04 -0.508008D-04 -0.164810D-03  0.239686D-03
     28  0.264828D-03  0.397293D-03  0.251395D-04 -0.417189D-03  0.267014D-03
     29 -0.122854D-03 -0.165414D-03  0.145393D-03 -0.378288D-03  0.400221D-03
     30  0.307647D-03  0.348581D-03  0.355554D-04  0.922363D-04 -0.255987D-03
     31 -0.103703D-03 -0.216763D-04  0.100136D-02  0.186716D-02  0.166644D-03
     32  0.105522D-02  0.305326D-03 -0.417584D-03  0.132313D-02 -0.327981D-02
     33 -0.377364D-03 -0.357545D-03  0.122553D-02 -0.216769D-02  0.260031D-02
     34  0.421773D-03  0.133112D-03 -0.349615D-04 -0.795226D-03 -0.450853D-04
     35 -0.455226D-03  0.212324D-04 -0.754835D-04 -0.190451D-03  0.447109D-03
     36 -0.447134D-03 -0.213724D-03 -0.169899D-03 -0.823173D-03  0.103720D-02
     37  0.669303D-03  0.564887D-03 -0.314572D-03  0.923099D-04 -0.596496D-03
     38  0.175167D-03  0.269656D-03 -0.193898D-03  0.588687D-03 -0.600429D-03
     39  0.435250D-04  0.398991D-03 -0.272568D-03  0.873552D-03 -0.861387D-03
     40  0.115574D-02  0.115038D-02  0.177978D-03 -0.115298D-03 -0.303677D-03
     41 -0.316166D-03 -0.187153D-03  0.113466D-03 -0.784028D-03  0.548262D-03
     42  0.338694D-03 -0.524561D-04 -0.244971D-04 -0.108203D-02 -0.170545D-02
     43 -0.115299D-01  0.165302D-01 -0.352494D-01  0.524823D-01 -0.317124D-01
     44  0.365721D-02  0.109057D-01  0.305068D-01 -0.103344D-02 -0.835353D-02
     45  0.160471D-02 -0.473378D-02 -0.490253D-02 -0.700012D-02  0.374306D-02
     46  0.253671D-01 -0.284548D-01 -0.430108D-01 -0.273688D-01  0.328330D-01
     47 -0.880822D-01  0.515107D-01  0.685464D-02 -0.891500D-01  0.114846D-01
     48  0.321439D-01 -0.133743D-01  0.282866D-02  0.218166D-01 -0.107056D-01
               16            17            18            19            20
     16  0.522868D+00
     17  0.272403D-01  0.307527D+00
     18  0.256533D-01  0.456823D-01  0.433299D+00
     19 -0.183102D+00  0.667442D-02 -0.335452D-02  0.468379D+00
     20  0.138189D-01 -0.676084D-01 -0.697747D-02  0.825603D-02  0.570363D+00
     21 -0.954179D-02 -0.201392D-02 -0.779173D-01  0.102269D-02  0.187750D-02
     22 -0.123761D-01  0.314369D-01  0.509035D-02 -0.671176D-01  0.702182D-01
     23  0.920003D-03 -0.211715D-02  0.168685D-03  0.712575D-01 -0.288335D+00
     24  0.109809D-02 -0.892394D-03 -0.206791D-02  0.675727D-02 -0.275419D-01
     25 -0.858447D-02 -0.170260D-01  0.265673D-01 -0.789096D-01 -0.481963D-01
     26  0.145384D-02 -0.829482D-03 -0.242480D-02 -0.496657D-01 -0.119843D+00
     27 -0.746174D-03 -0.932721D-03 -0.164547D-02  0.724233D-01  0.109393D+00
     28 -0.136157D-01 -0.135801D-01 -0.298834D-01 -0.869524D-01 -0.359198D-01
     29  0.179131D-03 -0.163043D-02  0.331574D-02 -0.372077D-01 -0.825456D-01
     30  0.688266D-03  0.856421D-03  0.752547D-03 -0.885351D-01 -0.827292D-01
     31 -0.106945D+00 -0.271092D-01 -0.332789D-01 -0.173731D-01 -0.149965D-01
     32 -0.271625D-01 -0.896977D-01 -0.442241D-01 -0.353879D-03  0.100118D-02
     33 -0.332908D-01 -0.399071D-01 -0.120235D+00 -0.501478D-02  0.733289D-04
     34  0.488951D-02  0.555705D-02 -0.125028D-01  0.140974D-03  0.228634D-03
     35  0.691242D-02  0.338687D-02 -0.122932D-01  0.180291D-03  0.444058D-03
     36  0.111110D-01  0.101927D-01 -0.201522D-01  0.998442D-03  0.957123D-03
     37  0.684857D-03 -0.142432D-01  0.777697D-03  0.816693D-03 -0.630591D-03
     38  0.231608D-02 -0.160266D-01 -0.134565D-03  0.765441D-03 -0.717096D-05
     39  0.356795D-02 -0.242203D-01 -0.254301D-02  0.103756D-02 -0.663957D-04
     40 -0.141037D-01  0.249750D-02 -0.346281D-03 -0.146813D-03 -0.153497D-02
     41 -0.177119D-01  0.106672D-02  0.176434D-02 -0.609678D-03 -0.861948D-03
     42 -0.275359D-01  0.581099D-02  0.114723D-02 -0.715841D-03 -0.211830D-02
     43 -0.728200D-01  0.788209D-02 -0.866615D-02 -0.262443D-01 -0.236976D-01
     44  0.514782D-02 -0.512418D-01  0.409753D-01 -0.488897D-02 -0.382833D-02
     45 -0.212265D-01  0.217284D-01 -0.160276D+00  0.137606D-01  0.507275D-02
[...]
    Y9        0.57353   0.00001   0.00000   0.00017   0.00012   0.57365
    Z9       -1.90170  -0.00001   0.00000   0.00005   0.00010  -1.90160
   X10       -2.24069   0.00000   0.00000   0.00007   0.00003  -2.24066
   Y10        0.23388   0.00000   0.00000  -0.00012  -0.00017   0.23371
   Z10        1.43462  -0.00001   0.00000  -0.00001   0.00005   1.43466
   X11       -7.22394   0.00000   0.00000   0.00002   0.00001  -7.22393
   Y11       -1.67185   0.00000   0.00000  -0.00009  -0.00007  -1.67191
   Z11       -2.45029   0.00000   0.00000   0.00005   0.00003  -2.45026
   X12       -6.42268  -0.00001   0.00000  -0.00062  -0.00059  -6.42327
   Y12       -0.99288   0.00000   0.00000   0.00053   0.00054  -0.99234
   Z12       -4.22710   0.00000   0.00000   0.00000  -0.00001  -4.22711
   X13       -6.91299   0.00000   0.00000   0.00078   0.00074  -6.91225
   Y13       -3.70837   0.00000   0.00000  -0.00001   0.00001  -3.70836
   Z13       -2.31895   0.00000   0.00000  -0.00039  -0.00041  -2.31937
   X14       -9.24550   0.00000   0.00000  -0.00011  -0.00011  -9.24561
   Y14       -1.30255   0.00000   0.00000  -0.00081  -0.00076  -1.30331
   Z14       -2.44958   0.00000   0.00000   0.00057   0.00051  -2.44907
   X15       -6.63705   0.00001   0.00000  -0.00011  -0.00019  -6.63724
   Y15       -1.36337   0.00000   0.00000  -0.00001   0.00001  -1.36336
   Z15        2.14230   0.00000   0.00000   0.00004   0.00002   2.14232
   X16       -9.27324   0.00001   0.00000  -0.00015  -0.00023  -9.27347
   Y16       -1.39240  -0.00001   0.00000   0.00014   0.00019  -1.39220
   Z16        2.37189   0.00000   0.00000  -0.00004  -0.00010   2.37179
         Item               Value     Threshold  Converged?
 Maximum Force            0.000008     0.000450     YES
 RMS     Force            0.000004     0.000300     YES
 Maximum Displacement     0.000755     0.001800     YES
 RMS     Displacement     0.000238     0.001200     YES
 Predicted change in Energy=-2.574525D-09
 Optimization completed.
    -- Stationary point found.
 GradGradGradGradGradGradGradGradGradGradGradGradGradGradGradGradGradGrad


 Test job not archived.
 1\1\GINC-NODE31\Freq\UB3LYP\CBSB7\C4H9O3(2)\NYEE\09-Jun-2013\0\\# freq
  nosymm b3lyp/cbsb7 iop(7/33=1)\\Title Card Required\\0,2\C,-3.614221,
 1.364055,-0.037029\H,-2.96489,1.850018,0.706531\H,-3.405671,1.753977,-
 1.047349\O,-4.929442,1.41634,0.259692\H,-5.151497,0.267375,0.937275\C,
 -3.135338,-0.189042,-0.126042\C,-1.616645,-0.271272,-0.162165\H,-1.298
 873,-1.309562,-0.278784\H,-1.23044,0.303498,-1.006335\H,-1.185723,0.12
 3764,0.759167\C,-3.822746,-0.884704,-1.296638\H,-3.398736,-0.52541,-2.
 236884\H,-3.658197,-1.962386,-1.227138\H,-4.892506,-0.689282,-1.296262
 \O,-3.512178,-0.721463,1.133655\O,-4.907189,-0.736824,1.255152\\Versio
 n=AM64L-G03RevD.01\HF=-383.4598221\S2=0.755645\S2-1=0.\S2A=0.750019\RM
 SD=3.584e-09\RMSF=3.914e-06\ZeroPoint=0.1260087\Thermal=0.1335877\Dipo
 le=1.116962,0.0306804,-0.903536\DipoleDeriv=0.1463908,0.4587996,0.0772
 252,0.3314975,0.3760433,-0.1360656,0.1253949,-0.0550759,0.2897079,-0.0
 695291,-0.148353,-0.054236,-0.1021422,-0.065659,-0.0402593,-0.0937204,
 -0.0785702,-0.0762243,0.0676962,-0.0909687,0.0392063,-0.0997058,0.0695
 662,0.0672577,0.0221028,0.0478606,-0.0939066,-0.4841622,0.0948476,-0.1
 036916,0.0802181,-0.4105408,-0.0769916,0.0284696,-0.2405278,-0.2502047
 ,0.3179888,-0.0476738,-0.0506126,0.0464307,-0.2683765,0.2587123,-0.071
 7201,0.5045021,0.1061836,0.5118701,-0.2339513,-0.0050632,-0.3290424,0.
 2500974,0.2433947,-0.0249197,0.1241538,0.443678,-0.0559056,-0.0253897,
 0.0062195,0.0572634,0.1454052,-0.068996,0.0125261,-0.0457912,0.0364667
 ,0.02093,-0.0080135,0.029127,0.0639796,-0.0867089,-0.0236085,0.0012603
 ,-0.0147251,0.0789598,0.0352525,0.0196745,0.0088556,-0.0382237,0.02281
 23,0.0845881,0.0556938,0.0683314,-0.0316199,0.0353915,-0.0251242,-0.03
 28904,-0.0314689,0.0446463,-0.0619088,-0.0801473,-0.0539838,-0.0459564
 ,-0.1238759,0.0487501,-0.0573229,0.0019706,0.0320292,-0.1405896,-0.061
 1265,-0.0589117,0.015101,0.0534068,-0.0414147,0.0799771,-0.0365162,0.0
 273491,0.0709134,0.0672079,0.0051374,-0.0505172,0.0771676,0.0272467,-0
 .0251094,0.0298563,-0.0954404,-0.026755,-0.0061643,0.0280933,0.031133,
 -0.0474201,0.0041951,-0.0307357,0.038143,0.0480003,0.0143025,0.0202902
 ,-0.0022447,0.0731196,-0.2326676,0.6789702,-0.2970092,0.1182558,-0.306
 9119,-0.0330932,-0.0601079,0.0301294,-0.2908313,-0.2525337,-0.711595,0
 .4160604,-0.1305158,0.2176879,-0.1309013,0.0649605,-0.2583774,-0.23508
 89\Polar=66.7660655,-2.9979324,69.9662405,-4.3875916,-4.5250568,56.172
 6489\PG=C01 [X(C4H9O3)]\NImag=1\\0.47554112,0.13138617,0.29515165,0.03
 304121,0.00637866,0.55696460,-0.10840111,-0.06026175,-0.09171104,0.147
 03228,-0.06400705,-0.08553259,-0.07835214,0.06444747,0.09740044,-0.085
 85502,-0.07786892,-0.17585103,0.09946996,0.08272095,0.17862191,-0.0419
 6340,-0.02026741,0.02411263,0.00435332,0.00665532,-0.01361418,0.063733
 78,-0.02598294,-0.06607378,0.07871782,0.00199453,0.00690036,-0.0141187
 4,0.01750752,0.07657725,0.01615550,0.07527904,-0.24490289,0.00166019,0
 .00960590,-0.01845448,-0.04112196,-0.08467543,0.26894005,-0.26233557,-
 0.03727766,0.02959657,-0.04544780,0.00330990,0.00087733,-0.02626508,0.
 00655886,0.02384185,0.37613022,0.00063484,-0.07021085,-0.00130413,-0.0
 1489771,0.00781329,0.00517939,-0.01306124,0.00479677,0.00427944,-0.025
 07310,0.10984320,0.03861835,0.01037108,-0.07597759,-0.01540353,0.00259
 841,0.01765632,0.03629534,-0.00394582,-0.00492555,-0.05772809,-0.01300
 335,0.07398705,0.00044042,-0.01957809,0.01036051,-0.00113536,0.0019552
 8,-0.00053039,-0.00229182,0.00093110,0.00029103,-0.02627367,0.00362213
 ,0.00068957,0.10905232,-0.01750876,0.02374843,0.00265632,-0.00097019,-
 0.00165597,0.00093748,0.00136069,-0.00215137,-0.00440257,0.03739666,0.
 04342077,-0.04271306,-0.03307860,0.03448039,0.00810956,-0.01526625,0.0
 0231513,0.00047384,0.00424679,-0.00142289,0.00189609,0.00009098,0.0005
 4688,-0.01618004,-0.02270753,0.00993418,-0.00610785,0.02032772,0.00325
 937,-0.03418239,-0.01201197,-0.00634464,0.00206523,-0.01050485,-0.0025
 7105,0.00093888,-0.00090041,0.00100215,-0.03583222,0.02938425,0.007681
 77,-0.00289408,-0.01092504,0.01041144,0.52286822,-0.05794453,-0.009250
 76,-0.01521233,0.00577532,-0.02636799,0.00391070,0.00573205,-0.0188674
 5,-0.00101114,0.05680492,-0.00614957,-0.01752642,0.01112420,-0.0130802
 6,0.01724007,0.02724028,0.30752681,0.00506676,-0.04348166,-0.03067042,
 0.00463163,-0.01362745,-0.00610705,-0.00737656,0.02373784,-0.00400515,
 -0.00491625,-0.00555644,-0.00335939,-0.00288465,0.01120507,-0.00948622
 ,0.02565334,0.04568234,0.43329861,-0.01269347,0.00545274,0.00064778,0.
 00046146,-0.00123282,-0.00015124,-0.00032609,-0.00062691,0.00021620,-0
 .00035036,0.00116882,0.00020032,-0.00028962,-0.00023654,-0.00018679,-0
 .18310161,0.00667442,-0.00335452,0.46837865,0.03022514,-0.01096727,-0.
 00100414,0.00098169,0.00192862,0.00003133,-0.00044615,0.00095783,-0.00
 012432,-0.00055957,-0.00544195,0.00172623,-0.00168313,0.00512069,-0.00
 484106,0.01381888,-0.06760838,-0.00697747,0.00825603,0.57036330,0.0022
 5958,-0.00005356,0.00048303,0.00013591,-0.00101232,0.00007499,-0.00065
 567,-0.00003047,-0.00038627,0.00012265,-0.00020120,-0.00006817,-0.0004
 4618,0.00008770,0.00086501,-0.00954179,-0.00201392,-0.07791734,0.00102
 269,0.00187750,0.58436209,-0.00517230,-0.00000185,-0.00027804,0.000076
 60,-0.00037650,0.00032534,0.00016989,-0.00016202,-0.00018119,0.0002649
 2,0.00192553,-0.00045459,0.00062659,-0.00210046,0.00167916,-0.01237613
 ,0.03143687,0.00509035,-0.06711763,0.07021820,0.00686349,0.07456040,-0
 .00004231,0.00123091,-0.00023992,-0.00008992,0.00030027,0.00016937,-0.
 00015656,0.00012037,0.00006429,0.00037847,-0.00000007,0.00009940,-0.00
 011086,-0.00013226,-0.00003060,0.00092000,-0.00211715,0.00016869,0.071
 25753,-0.28833546,-0.02765571,-0.07830130,0.31159642,-0.00063012,0.000
 28635,-0.00078341,0.00023354,0.00030047,0.00020463,0.00013279,-0.00033
 008,0.00037536,0.00016078,-0.00001748,0.00069357,-0.00004150,0.0003567
 5,-0.00010326,0.00109809,-0.00089239,-0.00206791,0.00675727,-0.0275418
 8,-0.04946711,-0.00801343,0.03015233,0.04873210,0.00064762,-0.00155995
 ,0.00101084,0.00015152,0.00037818,-0.00008645,-0.00014459,0.00069633,-
 0.00046903,0.00028795,0.00005124,-0.00019850,0.00017053,0.00031698,-0.
 00070440,-0.00858447,-0.01702601,0.02656728,-0.07890958,-0.04819627,0.
 06980467,0.00323201,0.00427733,-0.00821671,0.08616957,0.00044575,0.000
 28997,0.00014368,-0.00017538,-0.00005060,-0.00015117,0.00032255,0.0001
 9843,-0.00009815,-0.00030611,0.00001729,-0.00026649,-0.00011538,-0.000
 12603,0.00029342,0.00145384,-0.00082948,-0.00242480,-0.04966567,-0.119
 84290,0.10963394,-0.01144864,-0.01484491,0.02417709,0.05274925,0.12721
 882,-0.00009591,0.00057402,0.00000565,0.00008375,-0.00004349,-0.000191
 10,0.00005454,-0.00026839,0.00047126,-0.00012809,-0.00028269,0.0000438
 6,-0.00005080,-0.00016481,0.00023969,-0.00074617,-0.00093272,-0.001645
 47,0.07242327,0.10939267,-0.20610304,-0.00242405,-0.00246126,0.0034748
 8,-0.07886852,-0.12042116,0.22167026,0.00011366,-0.00106942,-0.0013763
 3,0.00011557,0.00076502,0.00042293,-0.00000542,0.00000912,0.00020568,0
 .00067443,0.00026483,0.00039729,0.00002514,-0.00041719,0.00026701,-0.0
 1361568,-0.01358009,-0.02988342,-0.08695243,-0.03591985,-0.08476494,0.
 00345997,0.00253623,0.00856699,0.00474175,0.00571278,0.00994313,0.0955
 8720,0.00057730,0.00102577,0.00077888,0.00031450,-0.00019989,-0.000035
 95,0.00019079,-0.00010007,-0.00004793,0.00012425,-0.00012285,-0.000165
 41,0.00014539,-0.00037829,0.00040022,0.00017913,-0.00163043,0.00331574
 ,-0.03720772,-0.08254559,-0.08311973,-0.01251719,-0.00975198,-0.026289
 82,0.00830749,0.00684556,0.01483264,0.04025610,0.08534142,-0.00055025,
 -0.00041290,-0.00053565,0.00012220,0.00055083,0.00055106,0.00008809,-0
 .00010014,0.00018605,0.00051882,0.00030765,0.00034858,0.00003556,0.000
 09224,-0.00025599,0.00068827,0.00085642,0.00075255,-0.08853511,-0.0827
 2924,-0.23888214,-0.00008038,-0.00032211,-0.00165228,-0.00951440,-0.00
 959495,-0.01896586,0.09622536,0.09103294,0.25690639,-0.00093533,0.0070
 2589,0.00259988,0.00021562,0.00113440,0.00080399,0.00099737,-0.0007554
 1,0.00028118,0.00236723,-0.00010370,-0.00002168,0.00100136,0.00186716,
 0.00016664,-0.10694542,-0.02710921,-0.03327892,-0.01737308,-0.01499652
 ,-0.02771616,0.00178130,-0.00070901,-0.00020463,0.00094309,-0.00010281
 ,-0.00003941,-0.00607404,-0.00039633,-0.00030716,0.56928643,-0.0063016
 1,-0.03104331,-0.02105267,0.00203406,-0.00347589,-0.00145220,-0.000751
 11,0.00168807,-0.00164327,-0.00593990,0.00105522,0.00030533,-0.0004175
 8,0.00132313,-0.00327981,-0.02716250,-0.08969766,-0.04422408,-0.000353
 88,0.00100118,0.00212707,0.00093963,0.00055364,0.00032459,-0.00001699,
 -0.00028063,-0.00028999,0.00157235,0.00056924,0.00052772,-0.02635407,0
 .54992792,-0.00228302,-0.00197251,-0.00382416,-0.00011584,0.00013659,0
 .00095706,0.00055834,0.00039053,0.00029034,0.00080139,-0.00037736,-0.0
 0035754,0.00122553,-0.00216769,0.00260031,-0.03329083,-0.03990713,-0.1
 2023492,-0.00501478,0.00007333,0.00151227,0.00036265,-0.00011832,0.000
 06800,0.00058446,0.00030415,-0.00017503,0.00199249,0.00008182,0.000335
 36,-0.04030091,-0.04515175,0.50697621,0.00037942,0.00052022,0.00000609
 ,-0.00004020,0.00001598,-0.00000263,0.00024149,0.00024090,0.00015097,-
 0.00004639,0.00042177,0.00013311,-0.00003496,-0.00079523,-0.00004509,0
 .00488951,0.00555705,-0.01250281,0.00014097,0.00022863,-0.00011699,-0.
 00004714,0.00015599,-0.00004506,-0.00026488,-0.00023830,-0.00039013,0.
 00022122,0.00013888,0.00018605,-0.08746354,-0.03529540,0.09078321,0.09
 227389,0.00076116,0.00052379,-0.00032479,-0.00011678,0.00009492,0.0001
 9487,-0.00003170,-0.00062603,-0.00012239,-0.00022236,-0.00045523,0.000
 02123,-0.00007548,-0.00019045,0.00044711,0.00691242,0.00338687,-0.0122
 9316,0.00018029,0.00044406,0.00014182,-0.00009145,-0.00007645,0.000222
 08,-0.00013108,0.00023355,-0.00008490,0.00024397,-0.00010139,-0.000026
 32,-0.03488585,-0.07623304,0.07614961,0.04002763,0.07916643,0.00152423
 ,0.00137534,-0.00036181,-0.00026746,-0.00018671,0.00042424,-0.00020636
 ,-0.00079003,0.00063573,-0.00038210,-0.00044713,-0.00021372,-0.0001699
 0,-0.00082317,0.00103720,0.01111096,0.01019271,-0.02015221,0.00099844,
 0.00095712,0.00090677,-0.00023257,0.00004311,-0.00009356,-0.00071511,-
 0.00042311,0.00030062,0.00010821,-0.00014670,0.00039540,0.08832490,0.0
 7405556,-0.24056177,-0.09667439,-0.08182812,0.26252605,-0.00097653,-0.
 00251894,-0.00096178,0.00027842,-0.00040771,-0.00034741,-0.00026875,0.
 00017709,-0.00033474,0.00042501,0.00066930,0.00056489,-0.00031457,0.00
 009231,-0.00059650,0.00068486,-0.01424315,0.00077770,0.00081669,-0.000
 63059,0.00048140,-0.00053651,0.00014318,-0.00030637,-0.00000075,-0.000
 07098,-0.00014875,0.00004271,0.00036703,0.00005944,-0.05374088,0.04143
 520,-0.00352483,0.00133117,-0.01304136,-0.00007612,0.05378220,-0.00155
 459,-0.00116585,-0.00161493,0.00038939,-0.00055105,-0.00041195,-0.0000
 3924,0.00062350,-0.00002980,-0.00063551,0.00017517,0.00026966,-0.00019
 390,0.00058869,-0.00060043,0.00231608,-0.01602665,-0.00013456,0.000765
 44,-0.00000717,0.00029674,-0.00061908,0.00044007,-0.00001847,0.0001011
 5,0.00012433,-0.00003162,-0.00007910,0.00034348,-0.00005759,0.04098382
 ,-0.30326725,0.01864239,0.00152743,-0.00833347,0.00040731,-0.04384187,
 0.32992414,-0.00068110,-0.00421169,-0.00284145,0.00043018,-0.00085330,
 -0.00011289,-0.00028537,0.00018064,0.00017779,-0.00150769,0.00004353,0
 .00039899,-0.00027257,0.00087355,-0.00086139,0.00356795,-0.02422032,-0
 .00254301,0.00103756,-0.00006640,0.00040606,-0.00023989,0.00017932,0.0
 0023547,-0.00005599,0.00008507,0.00005251,0.00015546,0.00017251,-0.000
 01762,-0.00299407,0.02007758,-0.04712793,-0.00551370,0.02738413,-0.000
 59445,0.00563373,-0.01870080,0.04970886,-0.00045039,0.00009011,0.00013
 322,-0.00004836,0.00008791,0.00011478,-0.00025223,-0.00006817,-0.00005
 638,0.00063796,0.00115574,0.00115038,0.00017798,-0.00011530,-0.0003036
 8,-0.01410367,0.00249750,-0.00034628,-0.00014681,-0.00153497,-0.002888
 46,0.00030595,-0.00002174,0.00011002,0.00018536,0.00003460,0.00010072,
 -0.00077998,0.00009646,0.00017583,-0.31341419,0.04888255,-0.00004002,-
 0.00971007,0.00194090,-0.00011727,-0.00223644,0.00041030,0.00023488,0.
 33974466,-0.00109459,0.00115394,0.00003106,0.00011679,0.00004952,0.000
 27818,-0.00002995,-0.00015165,0.00004751,0.00127146,-0.00031617,-0.000
 18715,0.00011347,-0.00078403,0.00054826,-0.01771186,0.00106672,0.00176
 434,-0.00060968,-0.00086195,-0.00312854,-0.00033581,0.00021641,-0.0000
 4145,0.00038807,0.00004683,-0.00003578,-0.00112829,0.00030368,-0.00025
 043,0.05221312,-0.05737932,-0.00001058,-0.01181445,0.00148321,-0.00078
 267,0.03141749,-0.00426167,-0.00043595,-0.05332602,0.05852703,-0.00050
 120,0.00047209,0.00048258,0.00015718,0.00018109,0.00007163,0.00025969,
 0.00011537,0.00010111,0.00076357,0.00033869,-0.00005246,-0.00002450,-0
 .00108203,-0.00170545,-0.02753593,0.00581099,0.00114723,-0.00071584,-0
 .00211830,-0.00400051,0.00028539,0.00002231,-0.00013121,-0.00010496,-0
 .00025426,0.00013181,-0.00150963,-0.00021223,0.00005802,0.00441331,-0.
 00082475,-0.04635200,0.02744422,-0.00606623,0.00094196,-0.00289106,0.0
 0049736,-0.00095382,-0.00156350,0.00290653,0.05041465,-0.00460315,-0.0
 2127947,0.00713129,0.00313075,0.00394913,-0.00075282,0.00282030,0.0011
 7582,-0.00027359,-0.01471409,-0.01152986,0.01653021,-0.03524943,0.0524
 8232,-0.03171237,-0.07282000,0.00788209,-0.00866615,-0.02624434,-0.023
 69758,0.03976748,0.00369734,-0.00053579,-0.00000105,-0.00764018,0.0008
 1994,0.00112679,0.00209013,-0.00006320,0.00087122,0.00654803,0.0030204
 4,-0.00376697,-0.00166409,-0.00090479,-0.00073660,0.00044451,-0.001210
 05,-0.00187178,-0.00098859,0.00206162,-0.00005101,0.36776837,0.0182957
 1,-0.04969356,0.03139605,-0.00090395,0.00609284,-0.00017045,0.00090634
 ,-0.00448853,0.00203578,-0.01602247,0.00365721,0.01090566,0.03050681,-
 0.00103344,-0.00835353,0.00514782,-0.05124179,0.04097527,-0.00488897,-
 0.00382833,0.00040058,0.00161309,0.00059603,-0.00069763,0.00060059,0.0
 0005484,-0.00015910,0.00034768,0.00048127,0.00015729,0.00333056,0.0047
 2871,-0.00604807,-0.00123280,0.00028492,-0.00243355,0.00049295,0.00152
 416,-0.00056140,-0.00070642,0.00056903,-0.00012134,-0.01781736,0.13193
 077,-0.02027743,0.04471158,-0.01854716,0.00135920,-0.00423483,0.002910
 49,0.00087227,0.00050205,0.00023137,0.01944412,0.00160471,-0.00473378,
 -0.00490253,-0.00700012,0.00374306,-0.02122646,0.02172844,-0.16027640,
 0.01376064,0.00507275,-0.00460479,-0.00176689,0.00003063,0.00060662,-0
 .00154690,-0.00055868,0.00027077,-0.00091706,-0.00077906,0.00029518,0.
 00895157,0.01901454,-0.05076518,-0.00536942,-0.00376411,-0.00566364,0.
 00174569,0.00140611,0.00359352,0.00028862,0.00074175,0.00138468,-0.008
 38674,-0.09327341,0.27688394,-0.00540860,0.03135138,-0.00796819,-0.002
 80795,-0.00616966,0.00189684,-0.00173764,-0.00079540,-0.00136788,0.030
 47747,0.02536715,-0.02845483,-0.04301083,-0.02736881,0.03283296,-0.046
 99103,-0.03082170,0.03542250,0.00370725,0.00393607,0.00567234,-0.00292
 526,0.00029875,0.00039939,-0.00098496,0.00058456,-0.00084037,0.0003557
 6,-0.00051288,0.00001648,0.00280604,0.00470881,-0.00797087,-0.00020641
 ,-0.00056552,-0.00248887,0.00026886,0.00167971,0.00236239,0.00107882,-
 0.00153137,0.00157428,-0.22257556,-0.01966958,0.01797133,0.28795404,-0
 .00788969,0.00081351,-0.00099742,0.00136195,-0.00274628,0.00078711,0.0
 0210808,0.00059631,0.00084305,-0.01980784,-0.08808222,0.05151072,0.006
 85464,-0.08914999,0.01148463,-0.00815606,-0.00911283,0.00187033,0.0010
 6691,-0.00037668,0.00265008,-0.00017901,0.00020418,0.00000955,-0.00093
 632,0.00094493,0.00037657,0.00048585,-0.00007995,-0.00003141,-0.001142
 03,0.00053000,-0.00002502,0.00054167,0.00039831,0.00083006,-0.00003995
 ,-0.00013042,0.00005355,0.00057655,0.00033839,0.00033472,0.00564675,-0
 .03963413,0.01479765,0.01950849,0.22548688,0.00609887,0.00381931,-0.00
 595542,-0.00125972,-0.00203079,0.00066709,-0.00100967,0.00052389,0.000
 71840,0.00471517,0.03214391,-0.01337434,0.00282866,0.02181663,-0.01070
 564,0.04004290,-0.00370529,0.00326710,0.00089410,0.00627187,-0.0071808
 5,-0.00093533,-0.00010153,-0.00009192,0.00251372,-0.00044458,0.0004191
 8,0.00016682,0.00018207,0.00048094,-0.00067854,0.00148614,-0.00334104,
 0.00195655,-0.00005082,0.00047321,-0.00007528,0.00008059,0.00047936,0.
 00300714,-0.00144507,-0.00153824,-0.00920791,0.02594786,-0.04532869,-0
 .04905748,-0.08449417,0.08101087\\0.00000208,0.00000084,-0.00000260,0.
 00000108,0.00000046,-0.00000099,0.00000679,-0.00000071,-0.00000270,0.0
 0000185,0.00000431,-0.00000718,-0.00000321,0.00000578,-0.00000659,-0.0
 0000123,-0.00000007,0.00000049,-0.00000085,-0.00000422,0.00000589,-0.0
 0000274,-0.00000432,0.00000815,0.00000335,-0.00000561,0.00000648,-0.00
 000293,-0.00000342,0.00000710,0.00000194,-0.00000082,-0.00000029,0.000
 00560,-0.00000209,0.00000018,-0.00000118,0.00000020,0.00000103,0.00000
 205,0.00000234,-0.00000452,-0.00000585,0.00000220,0.00000006,-0.000006
 74,0.00000510,-0.00000451\\\@


 IF YOU BELIEVE CERTAIN WORDS, YOU BELIEVE THEIR HIDDEN ARGUMENTS.
 WHEN YOU BELIEVE SOMETHING IS RIGHT OR WRONG, TRUE OR FALSE, 
 YOU BELIEVE THE ASSUMPTIONS IN THE WORDS WHICH EXPRESS THE ARGUMENTS.
 SUCH ASSUMPTIONS ARE OFTEN FULL OF HOLES, BUT REMAIN MOST PRECIOUS 
 TO THE CONVINCED.

                 -- THE OPEN-ENDED PROOF FROM THE PANOPLIA PROPHETICA
                    CHILDREN OF DUNE BY FRANK HERBERT
 Job cpu time:  0 days  1 hours 16 minutes 46.8 seconds.
 File lengths (MBytes):  RWF=    125 Int=      0 D2E=      0 Chk=      8 Scr=      1
 Normal termination of Gaussian 03 at Sun Jun  9 18:41:55 2013.
