 Entering Gaussian System, Link 0=g03
 Input=p12bmkfreq.gjf
 Output=p12bmkfreq.log
 Initial command:
 /opt/g03/l1.exe /scratch/nyee/Gau-16332.inp -scrdir=/scratch/nyee/
 Entering Link 1 = /opt/g03/l1.exe PID=     16334.
  
 Copyright (c) 1988,1990,1992,1993,1995,1998,2003,2004, Gaussian, Inc.
                  All Rights Reserved.
  
 This is the Gaussian(R) 03 program.  It is based on the
 the Gaussian(R) 98 system (copyright 1998, Gaussian, Inc.),
 the Gaussian(R) 94 system (copyright 1995, Gaussian, Inc.),
 the Gaussian 92(TM) system (copyright 1992, Gaussian, Inc.),
 the Gaussian 90(TM) system (copyright 1990, Gaussian, Inc.),
 the Gaussian 88(TM) system (copyright 1988, Gaussian, Inc.),
 the Gaussian 86(TM) system (copyright 1986, Carnegie Mellon
 University), and the Gaussian 82(TM) system (copyright 1983,
 Carnegie Mellon University). Gaussian is a federally registered
 trademark of Gaussian, Inc.
  
 This software contains proprietary and confidential information,
 including trade secrets, belonging to Gaussian, Inc.
  
 This software is provided under written license and may be
 used, copied, transmitted, or stored only in accord with that
 written license.
  
 The following legend is applicable only to US Government
 contracts under FAR:
  
                    RESTRICTED RIGHTS LEGEND
  
 Use, reproduction and disclosure by the US Government is
 subject to restrictions as set forth in subparagraphs (a)
 and (c) of the Commercial Computer Software - Restricted
 Rights clause in FAR 52.227-19.
  
 Gaussian, Inc.
 340 Quinnipiac St., Bldg. 40, Wallingford CT 06492
  
  
 ---------------------------------------------------------------
 Warning -- This program may not be used in any manner that
 competes with the business of Gaussian, Inc. or will provide
 assistance to any competitor of Gaussian, Inc.  The licensee
 of this program is prohibited from giving any competitor of
 Gaussian, Inc. access to this program.  By using this program,
 the user acknowledges that Gaussian, Inc. is engaged in the
 business of creating and licensing software in the field of
 computational chemistry and represents and warrants to the
 licensee that it is not a competitor of Gaussian, Inc. and that
 it will not use this program in any manner prohibited above.
 ---------------------------------------------------------------
  

 Cite this work as:
 Gaussian 03, Revision D.01,
 M. J. Frisch, G. W. Trucks, H. B. Schlegel, G. E. Scuseria, 
 M. A. Robb, J. R. Cheeseman, J. A. Montgomery, Jr., T. Vreven, 
 K. N. Kudin, J. C. Burant, J. M. Millam, S. S. Iyengar, J. Tomasi, 
 V. Barone, B. Mennucci, M. Cossi, G. Scalmani, N. Rega, 
 G. A. Petersson, H. Nakatsuji, M. Hada, M. Ehara, K. Toyota, 
 R. Fukuda, J. Hasegawa, M. Ishida, T. Nakajima, Y. Honda, O. Kitao, 
 H. Nakai, M. Klene, X. Li, J. E. Knox, H. P. Hratchian, J. B. Cross, 
 V. Bakken, C. Adamo, J. Jaramillo, R. Gomperts, R. E. Stratmann, 
 O. Yazyev, A. J. Austin, R. Cammi, C. Pomelli, J. W. Ochterski, 
 P. Y. Ayala, K. Morokuma, G. A. Voth, P. Salvador, J. J. Dannenberg, 
 V. G. Zakrzewski, S. Dapprich, A. D. Daniels, M. C. Strain, 
 O. Farkas, D. K. Malick, A. D. Rabuck, K. Raghavachari, 
 J. B. Foresman, J. V. Ortiz, Q. Cui, A. G. Baboul, S. Clifford, 
 J. Cioslowski, B. B. Stefanov, G. Liu, A. Liashenko, P. Piskorz, 
 I. Komaromi, R. L. Martin, D. J. Fox, T. Keith, M. A. Al-Laham, 
 C. Y. Peng, A. Nanayakkara, M. Challacombe, P. M. W. Gill, 
 B. Johnson, W. Chen, M. W. Wong, C. Gonzalez, and J. A. Pople, 
 Gaussian, Inc., Wallingford CT, 2004.
 
 ******************************************
 Gaussian 03:  AM64L-G03RevD.01 13-Oct-2005
                11-Jul-2014 
 ******************************************
 %chk=p12bmk.chk
 %mem=1000mb
 %nproc=8
 Will use up to    8 processors via shared memory.
 -----------------------------------
 # freq nosymm bmk/cbsb7 iop(7/33=1)
 -----------------------------------
 1/10=4,30=1,38=1/1,3;
 2/15=1,17=6,18=5,40=1/2;
 3/5=4,6=6,7=700,11=2,16=1,25=1,30=1,74=-34/1,2,3;
 4//1;
 5/5=2,38=5/2;
 8/6=4,10=90,11=11/1;
 11/6=1,8=1,9=11,15=111,16=1,31=1/1,2,10;
 10/6=1,31=1/2;
 6/7=2,8=2,9=2,10=2,18=1,28=1/1;
 7/8=1,10=1,25=1,30=1,33=1/1,2,3,16;
 1/10=4,30=1/3;
 99//99;
 -------------------
 Title Card Required
 -------------------
 Symbolic Z-matrix:
 Charge =  0 Multiplicity = 2
 O                    -2.5438    0.01827  -0.3476 
 H                    -2.61909  -0.2601    0.57484 
 O                    -1.25989   0.62747  -0.36601 
 C                    -0.30059  -0.38109  -0.18641 
 H                    -0.4953   -1.19226  -0.89514 
 O                    -0.41033  -0.94475   1.08466 
 H                    -0.02205  -0.32467   1.71209 
 C                     1.0698    0.28346  -0.44253 
 H                     0.99331   0.73475  -1.44542 
 C                     2.18017  -0.78253  -0.4591 
 H                     1.99746  -1.52638  -1.24073 
 H                     3.15118  -0.31705  -0.65176 
 H                     2.22662  -1.30277   0.50204 
 C                     1.33621   1.37266   0.55845 
 H                     0.57517   2.11863   0.76384 
 H                     2.34221   1.54142   0.92928 
 

 GradGradGradGradGradGradGradGradGradGradGradGradGradGradGradGradGradGrad
 Berny optimization.
 Initialization pass.
 Trust Radius=3.00D-01 FncErr=1.00D-07 GrdErr=1.00D-07
 Number of steps in this run=   2 maximum allowed number of steps=   2.
 GradGradGradGradGradGradGradGradGradGradGradGradGradGradGradGradGradGrad

                          Input orientation:                          
 ---------------------------------------------------------------------
 Center     Atomic     Atomic              Coordinates (Angstroms)
 Number     Number      Type              X           Y           Z
 ---------------------------------------------------------------------
    1          8             0       -2.543797    0.018267   -0.347601
    2          1             0       -2.619090   -0.260103    0.574841
    3          8             0       -1.259889    0.627473   -0.366014
    4          6             0       -0.300592   -0.381087   -0.186412
    5          1             0       -0.495300   -1.192261   -0.895142
    6          8             0       -0.410330   -0.944745    1.084658
    7          1             0       -0.022046   -0.324673    1.712094
    8          6             0        1.069799    0.283461   -0.442534
    9          1             0        0.993308    0.734753   -1.445420
   10          6             0        2.180165   -0.782534   -0.459102
   11          1             0        1.997462   -1.526378   -1.240730
   12          1             0        3.151184   -0.317048   -0.651758
   13          1             0        2.226624   -1.302767    0.502043
   14          6             0        1.336209    1.372658    0.558451
   15          1             0        0.575170    2.118627    0.763842
   16          1             0        2.342212    1.541419    0.929284
 ---------------------------------------------------------------------
                    Distance matrix (angstroms):
                    1          2          3          4          5
     1  O    0.000000
     2  H    0.966467   0.000000
     3  O    1.421229   1.876280   0.000000
     4  C    2.284170   2.443272   1.403460   0.000000
     5  H    2.441622   2.745952   2.043527   1.094629   0.000000
     6  O    2.744165   2.367967   2.301754   1.394766   1.997021
     7  H    3.274016   2.835869   2.599494   1.919660   2.788254
     8  C    3.624557   3.865025   2.356193   1.544407   2.198214
     9  H    3.772224   4.256831   2.500705   2.122352   2.496426
    10  C    4.792654   4.937086   3.718973   2.527781   2.741554
    11  H    4.879205   5.119795   4.001817   2.775668   2.538686
    12  H    5.712946   5.899479   4.520103   3.483591   3.757935
    13  H    5.022344   4.957156   4.078618   2.776740   3.061569
    14  C    4.208296   4.279085   2.854761   2.511884   3.470759
    15  H    3.921068   3.987151   2.620602   2.813985   3.854882
    16  H    5.274800   5.290145   3.935508   3.453291   4.342005
                    6          7          8          9         10
     6  O    0.000000
     7  H    0.963810   0.000000
     8  C    2.455929   2.490858   0.000000
     9  H    3.345476   3.481842   1.102404   0.000000
    10  C    3.019962   3.126254   1.539329   2.164166   0.000000
    11  H    3.397527   3.773815   2.184764   2.482526   1.094361
    12  H    4.011674   3.956923   2.176361   2.528362   1.093925
    13  H    2.724178   2.734485   2.178667   3.076551   1.093892
    14  C    2.949178   2.461033   1.503095   2.130728   2.528345
    15  H    3.233942   2.688041   2.251185   2.640224   3.533884
    16  H    3.712363   3.112042   2.254635   2.847713   2.711943
                   11         12         13         14         15
    11  H    0.000000
    12  H    1.772129   0.000000
    13  H    1.771941   1.776995   0.000000
    14  C    3.475445   2.759320   2.820269   0.000000
    15  H    4.396281   3.817366   3.808120   1.085281   0.000000
    16  H    3.773485   2.570609   2.878418   1.085375   1.866274
                   16
    16  H    0.000000
 Symmetry turned off by external request.
 Stoichiometry    C4H9O3(2)
 Framework group  C1[X(C4H9O3)]
 Deg. of freedom    42
 Full point group                 C1
 Rotational constants (GHZ):      4.6686001      1.6920295      1.5582543
 Standard basis: CBSB7 (5D, 7F)
 Integral buffers will be    131072 words long.
 Raffenetti 2 integral format.
 Two-electron integral symmetry is turned off.
   180 basis functions,   296 primitive gaussians,   187 cartesian basis functions
    29 alpha electrons       28 beta electrons
       nuclear repulsion energy       333.7147149628 Hartrees.
 NAtoms=   16 NActive=   16 NUniq=   16 SFac= 7.50D-01 NAtFMM=   80 NAOKFM=F Big=F
 One-electron integrals computed using PRISM.
 NBasis=   180 RedAO= T  NBF=   180
 NBsUse=   180 1.00D-06 NBFU=   180
 Harris functional with IExCor= 3226 diagonalized for initial guess.
 ExpMin= 1.03D-01 ExpMax= 8.59D+03 ExpMxC= 1.30D+03 IAcc=1 IRadAn=         1 AccDes= 1.00D-06
 HarFok:  IExCor=3226 AccDes= 1.00D-06 IRadAn=         1 IDoV=1
 ScaDFX=  1.000000  1.000000  1.000000  1.000000
 <S**2> of initial guess= 0.7500
 Requested convergence on RMS density matrix=1.00D-08 within 128 cycles.
 Requested convergence on MAX density matrix=1.00D-06.
 Requested convergence on             energy=1.00D-06.
 No special actions if energy rises.
 Integral accuracy reduced to 1.0D-05 until final iterations.
 Initial convergence to 1.0D-05 achieved.  Increase integral accuracy.
 SCF Done:  E(UBMK+HF-BMK) =  -383.237430905     A.U. after   19 cycles
             Convg  =    0.7672D-08             -V/T =  2.0028
             S**2   =   0.7545
 Annihilation of the first spin contaminant:
 S**2 before annihilation     0.7545,   after     0.7500
 Range of M.O.s used for correlation:     1   180
 NBasis=   180 NAE=    29 NBE=    28 NFC=     0 NFV=     0
 NROrb=    180 NOA=    29 NOB=    28 NVA=   151 NVB=   152
 Symmetrizing basis deriv contribution to polar:
 IMax=3 JMax=2 DiffMx= 0.00D+00
 G2DrvN: will do   17 centers at a time, making    1 passes doing MaxLOS=2.
 FoFDir/FoFCou used for L=0 through L=2.
 DoAtom=TTTTTTTTTTTTTTTT
          Differentiating once with respect to electric field.
                with respect to dipole field.
          Differentiating once with respect to nuclear coordinates.
 Symmetry not used in FoFDir.
 MinBra= 0 MaxBra= 2 Meth= 1.
 IRaf=       0 NMat=  51 IRICut=      51 DoRegI=T DoRafI=T ISym2E= 0 JSym2E=0.
          There are  51 degrees of freedom in the 1st order CPHF.
    48 vectors were produced by pass  0.
 AX will form  48 AO Fock derivatives at one time.
    48 vectors were produced by pass  1.
    48 vectors were produced by pass  2.
    48 vectors were produced by pass  3.
    48 vectors were produced by pass  4.
    48 vectors were produced by pass  5.
    41 vectors were produced by pass  6.
    12 vectors were produced by pass  7.
     3 vectors were produced by pass  8.
 Inv2:  IOpt= 1 Iter= 1 AM= 3.66D-15 Conv= 1.00D-12.
 Inverted reduced A of dimension  344 with in-core refinement.
 Isotropic polarizability for W=    0.000000       56.56 Bohr**3.
 End of Minotr Frequency-dependent properties file   721 does not exist.

 **********************************************************************

            Population analysis using the SCF density.

 **********************************************************************

 Alpha  occ. eigenvalues --  -19.58234 -19.57351 -19.53888 -10.57233 -10.48636
 Alpha  occ. eigenvalues --  -10.48201 -10.46123  -1.24053  -1.13884  -0.99597
 Alpha  occ. eigenvalues --   -0.88240  -0.76202  -0.74080  -0.65365  -0.61574
 Alpha  occ. eigenvalues --   -0.56181  -0.55550  -0.51846  -0.49688  -0.48762
 Alpha  occ. eigenvalues --   -0.46705  -0.44320  -0.41174  -0.40693  -0.38924
 Alpha  occ. eigenvalues --   -0.37833  -0.34995  -0.32714  -0.26433
 Alpha virt. eigenvalues --    0.07530   0.08268   0.10519   0.12277   0.13312
 Alpha virt. eigenvalues --    0.13839   0.14927   0.16558   0.17818   0.19400
 Alpha virt. eigenvalues --    0.21762   0.23617   0.26421   0.27966   0.30444
 Alpha virt. eigenvalues --    0.34113   0.38022   0.39998   0.40747   0.44805
 Alpha virt. eigenvalues --    0.45901   0.47099   0.49214   0.52538   0.54726
 Alpha virt. eigenvalues --    0.56246   0.58054   0.60371   0.62735   0.63468
 Alpha virt. eigenvalues --    0.64158   0.64433   0.66462   0.67874   0.69952
 Alpha virt. eigenvalues --    0.72525   0.77134   0.79063   0.83140   0.85386
 Alpha virt. eigenvalues --    0.87720   0.90934   0.92782   0.95049   0.96186
 Alpha virt. eigenvalues --    1.00507   1.03460   1.04953   1.12391   1.16627
 Alpha virt. eigenvalues --    1.19226   1.23399   1.31129   1.34310   1.37966
 Alpha virt. eigenvalues --    1.40134   1.43745   1.45169   1.47046   1.49278
 Alpha virt. eigenvalues --    1.50611   1.52313   1.55228   1.56436   1.58946
 Alpha virt. eigenvalues --    1.59610   1.61769   1.64483   1.66869   1.69976
 Alpha virt. eigenvalues --    1.72405   1.76300   1.77353   1.78751   1.80096
 Alpha virt. eigenvalues --    1.83007   1.86429   1.88489   1.95236   1.97210
 Alpha virt. eigenvalues --    2.01097   2.03353   2.03836   2.05634   2.10057
 Alpha virt. eigenvalues --    2.16721   2.17321   2.19394   2.28612   2.30909
 Alpha virt. eigenvalues --    2.36032   2.43118   2.47102   2.47412   2.53407
 Alpha virt. eigenvalues --    2.55713   2.58395   2.59300   2.60260   2.61615
 Alpha virt. eigenvalues --    2.64688   2.67431   2.69102   2.69913   2.73510
 Alpha virt. eigenvalues --    2.75385   2.78847   2.80478   2.85341   2.88621
 Alpha virt. eigenvalues --    2.89653   2.96124   3.00519   3.01924   3.12638
 Alpha virt. eigenvalues --    3.15464   3.18900   3.21921   3.23935   3.34933
 Alpha virt. eigenvalues --    3.41398   3.42125   3.48469   3.56034   3.74947
 Alpha virt. eigenvalues --    3.80314   3.85177   3.89294   3.90623   3.91589
 Alpha virt. eigenvalues --    4.02067   4.04550   4.07716   4.31613   4.37831
 Alpha virt. eigenvalues --    4.84471   4.94620   5.01759   5.05494   5.33942
 Alpha virt. eigenvalues --    5.44307   5.49638   5.77303   5.90948  23.86615
 Alpha virt. eigenvalues --   24.01963  24.04104  24.13172  50.06910  50.13507
 Alpha virt. eigenvalues --   50.21270
  Beta  occ. eigenvalues --  -19.58239 -19.57347 -19.53853 -10.57142 -10.48751
  Beta  occ. eigenvalues --  -10.46609 -10.46105  -1.24041  -1.13795  -0.99563
  Beta  occ. eigenvalues --   -0.87489  -0.74572  -0.73369  -0.64237  -0.61524
  Beta  occ. eigenvalues --   -0.56012  -0.54832  -0.51412  -0.49411  -0.48607
  Beta  occ. eigenvalues --   -0.46337  -0.44272  -0.40614  -0.40216  -0.38812
  Beta  occ. eigenvalues --   -0.37556  -0.34849  -0.32699
  Beta virt. eigenvalues --   -0.04963   0.07607   0.08750   0.10781   0.12356
  Beta virt. eigenvalues --    0.13821   0.14181   0.15310   0.16901   0.17897
  Beta virt. eigenvalues --    0.19522   0.22360   0.24062   0.26604   0.28233
  Beta virt. eigenvalues --    0.30738   0.34445   0.38340   0.40768   0.41314
  Beta virt. eigenvalues --    0.45300   0.46134   0.49363   0.50094   0.53589
  Beta virt. eigenvalues --    0.56501   0.56764   0.58506   0.60556   0.63308
  Beta virt. eigenvalues --    0.63705   0.64452   0.64774   0.66698   0.68595
  Beta virt. eigenvalues --    0.70456   0.73172   0.77581   0.79285   0.83258
  Beta virt. eigenvalues --    0.85799   0.88152   0.91096   0.92827   0.95327
  Beta virt. eigenvalues --    0.96344   1.00833   1.03563   1.05433   1.14131
  Beta virt. eigenvalues --    1.17161   1.19728   1.24392   1.31590   1.34623
  Beta virt. eigenvalues --    1.38575   1.40315   1.43911   1.46690   1.47345
  Beta virt. eigenvalues --    1.49836   1.51384   1.53190   1.55331   1.57444
  Beta virt. eigenvalues --    1.59232   1.60448   1.62396   1.64631   1.67526
  Beta virt. eigenvalues --    1.70570   1.72690   1.76807   1.78172   1.80088
  Beta virt. eigenvalues --    1.80642   1.83310   1.86796   1.89318   1.96611
  Beta virt. eigenvalues --    1.98197   2.01589   2.03774   2.03859   2.07243
  Beta virt. eigenvalues --    2.10362   2.17591   2.18405   2.19802   2.29425
  Beta virt. eigenvalues --    2.31848   2.36334   2.43537   2.47314   2.48040
  Beta virt. eigenvalues --    2.53596   2.56294   2.58712   2.60028   2.60774
  Beta virt. eigenvalues --    2.62302   2.64892   2.67745   2.69430   2.70833
  Beta virt. eigenvalues --    2.74297   2.76294   2.79247   2.81167   2.87190
  Beta virt. eigenvalues --    2.88715   2.90911   2.97500   3.01026   3.02988
  Beta virt. eigenvalues --    3.12745   3.15937   3.19353   3.21965   3.24043
  Beta virt. eigenvalues --    3.35083   3.41421   3.42175   3.48697   3.56449
  Beta virt. eigenvalues --    3.74979   3.81104   3.87038   3.89339   3.91196
  Beta virt. eigenvalues --    3.91609   4.02172   4.05466   4.07808   4.32278
  Beta virt. eigenvalues --    4.38716   4.84480   4.94638   5.01769   5.05521
  Beta virt. eigenvalues --    5.33976   5.44312   5.49674   5.77376   5.90962
  Beta virt. eigenvalues --   23.86720  24.01891  24.05727  24.13227  50.06912
  Beta virt. eigenvalues --   50.13506  50.21274
          Condensed to atoms (all electrons):
              1          2          3          4          5          6
     1  O    7.942335   0.292842   0.075079  -0.056117   0.007191  -0.005893
     2  H    0.292842   0.457873  -0.036774  -0.005831  -0.001266   0.018902
     3  O    0.075079  -0.036774   8.118971   0.222913  -0.042132  -0.064532
     4  C   -0.056117  -0.005831   0.222913   4.821050   0.419379   0.289905
     5  H    0.007191  -0.001266  -0.042132   0.419379   0.551946  -0.045542
     6  O   -0.005893   0.018902  -0.064532   0.289905  -0.045542   7.936471
     7  H    0.000088  -0.000036   0.004172  -0.049283   0.008644   0.319902
     8  C    0.008693   0.000510  -0.046701   0.290214  -0.048594  -0.049373
     9  H   -0.000351  -0.000058   0.007374  -0.049815  -0.004602   0.005244
    10  C   -0.000235   0.000069   0.003463  -0.067501  -0.004323  -0.000443
    11  H   -0.000041   0.000005  -0.000067  -0.002827   0.003547  -0.000792
    12  H    0.000007  -0.000001  -0.000128   0.007745   0.000232  -0.000110
    13  H   -0.000007  -0.000062   0.000517  -0.011595  -0.001835   0.014413
    14  C   -0.000389  -0.000118  -0.004488  -0.065811   0.009660  -0.008116
    15  H   -0.000410   0.000097   0.009076  -0.002208   0.000612  -0.000114
    16  H    0.000004  -0.000006   0.000087   0.004305  -0.000031   0.000105
              7          8          9         10         11         12
     1  O    0.000088   0.008693  -0.000351  -0.000235  -0.000041   0.000007
     2  H   -0.000036   0.000510  -0.000058   0.000069   0.000005  -0.000001
     3  O    0.004172  -0.046701   0.007374   0.003463  -0.000067  -0.000128
     4  C   -0.049283   0.290214  -0.049815  -0.067501  -0.002827   0.007745
     5  H    0.008644  -0.048594  -0.004602  -0.004323   0.003547   0.000232
     6  O    0.319902  -0.049373   0.005244  -0.000443  -0.000792  -0.000110
     7  H    0.457244  -0.021170   0.000652  -0.000630   0.000084  -0.000127
     8  C   -0.021170   5.353364   0.390090   0.315403  -0.033936  -0.033525
     9  H    0.000652   0.390090   0.545735  -0.028701  -0.005243  -0.006372
    10  C   -0.000630   0.315403  -0.028701   4.975964   0.404150   0.406764
    11  H    0.000084  -0.033936  -0.005243   0.404150   0.543074  -0.024399
    12  H   -0.000127  -0.033525  -0.006372   0.406764  -0.024399   0.541040
    13  H    0.000820  -0.039347   0.008212   0.401918  -0.025377  -0.025747
    14  C    0.028468   0.266852  -0.040874  -0.073173   0.007834  -0.005127
    15  H    0.000491  -0.039606  -0.001290   0.004955  -0.000305   0.000194
    16  H   -0.000093  -0.043052   0.001315  -0.003963   0.000179   0.001773
             13         14         15         16
     1  O   -0.000007  -0.000389  -0.000410   0.000004
     2  H   -0.000062  -0.000118   0.000097  -0.000006
     3  O    0.000517  -0.004488   0.009076   0.000087
     4  C   -0.011595  -0.065811  -0.002208   0.004305
     5  H   -0.001835   0.009660   0.000612  -0.000031
     6  O    0.014413  -0.008116  -0.000114   0.000105
     7  H    0.000820   0.028468   0.000491  -0.000093
     8  C   -0.039347   0.266852  -0.039606  -0.043052
     9  H    0.008212  -0.040874  -0.001290   0.001315
    10  C    0.401918  -0.073173   0.004955  -0.003963
    11  H   -0.025377   0.007834  -0.000305   0.000179
    12  H   -0.025747  -0.005127   0.000194   0.001773
    13  H    0.545800  -0.001822  -0.000155  -0.000118
    14  C   -0.001822   5.378605   0.402776   0.410279
    15  H   -0.000155   0.402776   0.483022  -0.024200
    16  H   -0.000118   0.410279  -0.024200   0.504914
 Mulliken atomic charges:
              1
     1  O   -0.262796
     2  H    0.273853
     3  O   -0.246828
     4  C    0.255476
     5  H    0.147115
     6  O   -0.410027
     7  H    0.250772
     8  C   -0.269822
     9  H    0.178684
    10  C   -0.333716
    11  H    0.134113
    12  H    0.137781
    13  H    0.134387
    14  C   -0.304556
    15  H    0.167064
    16  H    0.148502
 Sum of Mulliken charges=   0.00000
 Atomic charges with hydrogens summed into heavy atoms:
              1
     1  O    0.011057
     2  H    0.000000
     3  O   -0.246828
     4  C    0.402591
     5  H    0.000000
     6  O   -0.159255
     7  H    0.000000
     8  C   -0.091138
     9  H    0.000000
    10  C    0.072565
    11  H    0.000000
    12  H    0.000000
    13  H    0.000000
    14  C    0.011010
    15  H    0.000000
    16  H    0.000000
 Sum of Mulliken charges=   0.00000
          Atomic-Atomic Spin Densities.
              1          2          3          4          5          6
     1  O    0.001891   0.000047  -0.000127  -0.000333  -0.000187  -0.000021
     2  H    0.000047  -0.000051   0.000024  -0.000003  -0.000018  -0.000006
     3  O   -0.000127   0.000024  -0.001934   0.000049   0.000334  -0.000039
     4  C   -0.000333  -0.000003   0.000049   0.061216  -0.002279  -0.001550
     5  H   -0.000187  -0.000018   0.000334  -0.002279  -0.002136   0.000818
     6  O   -0.000021  -0.000006  -0.000039  -0.001550   0.000818   0.016069
     7  H   -0.000151  -0.000060   0.000226  -0.004969   0.000197  -0.002322
     8  C   -0.000084  -0.000007   0.000894   0.007584   0.000761   0.002058
     9  H   -0.000126  -0.000006   0.000107  -0.017177   0.001144   0.000148
    10  C    0.000009   0.000002  -0.000035   0.008042  -0.000458  -0.000555
    11  H   -0.000001  -0.000001   0.000004  -0.000697  -0.000073   0.000070
    12  H    0.000000   0.000000  -0.000001   0.000660  -0.000030  -0.000019
    13  H   -0.000004  -0.000001   0.000000  -0.002555   0.000213   0.000075
    14  C   -0.000119  -0.000020  -0.000151  -0.031389   0.000529  -0.004670
    15  H    0.000002   0.000005   0.000312   0.000932  -0.000031   0.000108
    16  H    0.000000   0.000000  -0.000002   0.000084   0.000008  -0.000012
              7          8          9         10         11         12
     1  O   -0.000151  -0.000084  -0.000126   0.000009  -0.000001   0.000000
     2  H   -0.000060  -0.000007  -0.000006   0.000002  -0.000001   0.000000
     3  O    0.000226   0.000894   0.000107  -0.000035   0.000004  -0.000001
     4  C   -0.004969   0.007584  -0.017177   0.008042  -0.000697   0.000660
     5  H    0.000197   0.000761   0.001144  -0.000458  -0.000073  -0.000030
     6  O   -0.002322   0.002058   0.000148  -0.000555   0.000070  -0.000019
     7  H    0.002089  -0.002938   0.000848  -0.000742   0.000049  -0.000090
     8  C   -0.002938  -0.064594   0.016102   0.006868   0.000953   0.000639
     9  H    0.000848   0.016102   0.080957  -0.003840   0.000981  -0.001605
    10  C   -0.000742   0.006868  -0.003840   0.012036  -0.001089   0.000238
    11  H    0.000049   0.000953   0.000981  -0.001089  -0.002157  -0.000017
    12  H   -0.000090   0.000639  -0.001605   0.000238  -0.000017   0.000041
    13  H    0.000850  -0.001591   0.001189  -0.003147   0.000836  -0.000961
    14  C    0.017107  -0.047686  -0.023049  -0.012898   0.000225   0.000188
    15  H   -0.000265   0.000363  -0.000950  -0.000031   0.000009   0.000035
    16  H   -0.000052   0.000262  -0.000376   0.000387  -0.000069   0.000228
             13         14         15         16
     1  O   -0.000004  -0.000119   0.000002   0.000000
     2  H   -0.000001  -0.000020   0.000005   0.000000
     3  O    0.000000  -0.000151   0.000312  -0.000002
     4  C   -0.002555  -0.031389   0.000932   0.000084
     5  H    0.000213   0.000529  -0.000031   0.000008
     6  O    0.000075  -0.004670   0.000108  -0.000012
     7  H    0.000850   0.017107  -0.000265  -0.000052
     8  C   -0.001591  -0.047686   0.000363   0.000262
     9  H    0.001189  -0.023049  -0.000950  -0.000376
    10  C   -0.003147  -0.012898  -0.000031   0.000387
    11  H    0.000836   0.000225   0.000009  -0.000069
    12  H   -0.000961   0.000188   0.000035   0.000228
    13  H    0.002114   0.005362  -0.000075  -0.000025
    14  C    0.005362   1.186450  -0.005064  -0.002396
    15  H   -0.000075  -0.005064  -0.046304   0.002813
    16  H   -0.000025  -0.002396   0.002813  -0.051153
 Mulliken atomic spin densities:
              1
     1  O    0.000796
     2  H   -0.000094
     3  O   -0.000338
     4  C    0.017617
     5  H   -0.001208
     6  O    0.010152
     7  H    0.009776
     8  C   -0.080416
     9  H    0.054347
    10  C    0.004786
    11  H   -0.000978
    12  H   -0.000692
    13  H    0.002281
    14  C    1.082419
    15  H   -0.048142
    16  H   -0.050305
 Sum of Mulliken spin densities=   1.00000
 APT atomic charges:
              1
     1  O   -0.295694
     2  H    0.267647
     3  O   -0.398503
     4  C    0.795008
     5  H   -0.027451
     6  O   -0.663911
     7  H    0.291365
     8  C    0.027875
     9  H   -0.006761
    10  C    0.014652
    11  H    0.000709
    12  H   -0.001677
    13  H    0.015205
    14  C   -0.107794
    15  H    0.051930
    16  H    0.037400
 Sum of APT charges=   0.00000
 APT Atomic charges with hydrogens summed into heavy atoms:
              1
     1  O   -0.028047
     2  H    0.000000
     3  O   -0.398503
     4  C    0.767557
     5  H    0.000000
     6  O   -0.372546
     7  H    0.000000
     8  C    0.021114
     9  H    0.000000
    10  C    0.028889
    11  H    0.000000
    12  H    0.000000
    13  H    0.000000
    14  C   -0.018463
    15  H    0.000000
    16  H    0.000000
 Sum of APT charges=   0.00000
 Electronic spatial extent (au):  <R**2>=   849.2957
 Charge=     0.0000 electrons
 Dipole moment (field-independent basis, Debye):
    X=     2.1093    Y=    -0.0245    Z=     1.2003  Tot=     2.4270
 Quadrupole moment (field-independent basis, Debye-Ang):
   XX=   -43.5887   YY=   -45.3130   ZZ=   -41.0257
   XY=     1.9055   XZ=    -3.9456   YZ=     2.7073
 Traceless Quadrupole moment (field-independent basis, Debye-Ang):
   XX=    -0.2796   YY=    -2.0039   ZZ=     2.2834
   XY=     1.9055   XZ=    -3.9456   YZ=     2.7073
 Octapole moment (field-independent basis, Debye-Ang**2):
  XXX=   -13.2338  YYY=     0.0867  ZZZ=     5.6435  XYY=    -4.9218
  XXY=    -4.1347  XXZ=    13.1812  XZZ=    -5.8354  YZZ=    -0.0838
  YYZ=    -1.6311  XYZ=    -0.5205
 Hexadecapole moment (field-independent basis, Debye-Ang**3):
 XXXX=  -676.0151 YYYY=  -231.5302 ZZZZ=  -139.3219 XXXY=    20.3629
 XXXZ=   -29.6930 YYYX=    -2.8215 YYYZ=     3.3868 ZZZX=     0.0310
 ZZZY=    -6.0987 XXYY=  -156.0495 XXZZ=  -138.8211 YYZZ=   -64.4085
 XXYZ=    -1.5725 YYXZ=     2.6168 ZZXY=    -1.7098
 N-N= 3.337147149628D+02 E-N=-1.566821891074D+03  KE= 3.821743741812D+02
  Exact polarizability:  66.637   1.591  52.441  -0.139   2.980  50.587
 Approx polarizability:  72.457   3.176  63.500   1.018   1.133  63.946
                          Isotropic Fermi Contact Couplings
        Atom                 a.u.       MegaHertz       Gauss      10(-4) cm-1
     1  O(17)              0.00087      -0.53009      -0.18915      -0.17682
     2  H(1)              -0.00002      -0.07147      -0.02550      -0.02384
     3  O(17)             -0.00162       0.97998       0.34968       0.32689
     4  C(13)              0.03065      34.46080      12.29647      11.49489
     5  H(1)              -0.00066      -2.97239      -1.06062      -0.99148
     6  O(17)              0.00277      -1.67964      -0.59934      -0.56027
     7  H(1)              -0.00069      -3.10216      -1.10693      -1.03477
     8  C(13)             -0.03871     -43.52092     -15.52934     -14.51702
     9  H(1)               0.02736     122.31637      43.64552      40.80035
    10  C(13)              0.00705       7.92453       2.82767       2.64334
    11  H(1)              -0.00059      -2.61665      -0.93369      -0.87282
    12  H(1)              -0.00037      -1.64172      -0.58581      -0.54762
    13  H(1)              -0.00043      -1.93334      -0.68986      -0.64489
    14  C(13)              0.12310     138.39337      49.38219      46.16306
    15  H(1)              -0.01489     -66.56167     -23.75086     -22.20258
    16  H(1)              -0.01564     -69.91177     -24.94626     -23.32006
 --------------------------------------------------------
       Center         ----  Spin Dipole Couplings  ----
                      3XX-RR        3YY-RR        3ZZ-RR
 --------------------------------------------------------
     1   Atom        0.008303     -0.004307     -0.003996
     2   Atom        0.003217     -0.001508     -0.001709
     3   Atom        0.006832     -0.005832     -0.001000
     4   Atom        0.029536     -0.009794     -0.019742
     5   Atom       -0.001245      0.001967     -0.000722
     6   Atom       -0.028524      0.020774      0.007751
     7   Atom        0.001045      0.006880     -0.007925
     8   Atom       -0.013560     -0.002448      0.016008
     9   Atom       -0.009589     -0.001598      0.011187
    10   Atom       -0.000675      0.004433     -0.003757
    11   Atom       -0.002913      0.003499     -0.000587
    12   Atom        0.001779      0.000729     -0.002508
    13   Atom       -0.003844      0.008755     -0.004912
    14   Atom       -0.441130     -0.022610      0.463739
    15   Atom        0.008404      0.014739     -0.023144
    16   Atom        0.057956     -0.046712     -0.011244
 --------------------------------------------------------
                        XY            XZ            YZ
 --------------------------------------------------------
     1   Atom       -0.001696      0.000341      0.000123
     2   Atom        0.001611      0.000045     -0.000018
     3   Atom        0.004479      0.004570      0.001341
     4   Atom        0.026238     -0.000665      0.003093
     5   Atom        0.005077      0.002534      0.004425
     6   Atom        0.011223      0.002705      0.041949
     7   Atom        0.020052     -0.004834     -0.005975
     8   Atom        0.001183      0.002121      0.003408
     9   Atom        0.002173      0.004302      0.007917
    10   Atom       -0.008377     -0.005982      0.008046
    11   Atom       -0.002057     -0.001214      0.003864
    12   Atom       -0.006671     -0.004599      0.003879
    13   Atom       -0.006098     -0.000409      0.001427
    14   Atom        0.230087     -0.320323     -0.725558
    15   Atom       -0.059345     -0.035919     -0.009465
    16   Atom        0.029078      0.033741     -0.023360
 --------------------------------------------------------


 ---------------------------------------------------------------------------------
              Anisotropic Spin Dipole Couplings in Principal Axis System
 ---------------------------------------------------------------------------------

       Atom             a.u.   MegaHertz   Gauss  10(-4) cm-1        Axes

              Baa    -0.0046     0.331     0.118     0.111  0.1326  0.9516 -0.2774
     1 O(17)  Bbb    -0.0040     0.286     0.102     0.095  0.0118  0.2783  0.9604
              Bcc     0.0085    -0.618    -0.220    -0.206  0.9911 -0.1306  0.0257
 
              Baa    -0.0020    -1.072    -0.382    -0.357 -0.2940  0.9505  0.1010
     2 H(1)   Bbb    -0.0017    -0.910    -0.325    -0.304  0.0231 -0.0986  0.9949
              Bcc     0.0037     1.982     0.707     0.661  0.9555  0.2948  0.0070
 
              Baa    -0.0073     0.525     0.187     0.175 -0.3094  0.9507  0.0222
     3 O(17)  Bbb    -0.0030     0.218     0.078     0.073 -0.3639 -0.1400  0.9209
              Bcc     0.0103    -0.743    -0.265    -0.248  0.8785  0.2768  0.3893
 
              Baa    -0.0248    -3.326    -1.187    -1.109 -0.3767  0.7667 -0.5200
     4 C(13)  Bbb    -0.0179    -2.400    -0.856    -0.801 -0.2426  0.4601  0.8541
              Bcc     0.0427     5.726     2.043     1.910  0.8940  0.4479  0.0127
 
              Baa    -0.0051    -2.734    -0.976    -0.912  0.6959 -0.6659  0.2687
     5 H(1)   Bbb    -0.0034    -1.792    -0.639    -0.598 -0.5147 -0.2017  0.8333
              Bcc     0.0085     4.526     1.615     1.510  0.5007  0.7182  0.4831
 
              Baa    -0.0342     2.478     0.884     0.826  0.7527 -0.4894  0.4404
     6 O(17)  Bbb    -0.0237     1.715     0.612     0.572  0.6477  0.4299 -0.6291
              Bcc     0.0579    -4.193    -1.496    -1.399  0.1185  0.7587  0.6405
 
              Baa    -0.0163    -8.702    -3.105    -2.903  0.7512 -0.6590 -0.0366
     7 H(1)   Bbb    -0.0097    -5.152    -1.838    -1.719  0.1727  0.1428  0.9746
              Bcc     0.0260    13.854     4.944     4.621  0.6370  0.7385 -0.2211
 
              Baa    -0.0138    -1.851    -0.660    -0.617  0.9945 -0.0854 -0.0610
     8 C(13)  Bbb    -0.0030    -0.402    -0.144    -0.134  0.0729  0.9802 -0.1839
              Bcc     0.0168     2.253     0.804     0.752  0.0755  0.1784  0.9811
 
              Baa    -0.0105    -5.604    -2.000    -1.869  0.9824 -0.0985 -0.1589
     9 H(1)   Bbb    -0.0054    -2.870    -1.024    -0.957  0.0199  0.9001 -0.4353
              Bcc     0.0159     8.474     3.024     2.827  0.1859  0.4245  0.8862
 
              Baa    -0.0089    -1.195    -0.426    -0.398  0.2783 -0.3620  0.8897
    10 C(13)  Bbb    -0.0069    -0.923    -0.329    -0.308  0.8012  0.5984 -0.0071
              Bcc     0.0158     2.118     0.756     0.706 -0.5298  0.7148  0.4565
 
              Baa    -0.0035    -1.880    -0.671    -0.627  0.9683  0.2294  0.0985
    11 H(1)   Bbb    -0.0029    -1.555    -0.555    -0.519  0.0328 -0.5080  0.8607
              Bcc     0.0064     3.434     1.226     1.146 -0.2475  0.8302  0.4995
 
              Baa    -0.0056    -2.993    -1.068    -0.998  0.7283  0.4506  0.5163
    12 H(1)   Bbb    -0.0051    -2.708    -0.966    -0.903 -0.1294 -0.6494  0.7493
              Bcc     0.0107     5.701     2.034     1.902  0.6729 -0.6125 -0.4147
 
              Baa    -0.0063    -3.378    -1.205    -1.127  0.9165  0.3818 -0.1196
    13 H(1)   Bbb    -0.0050    -2.682    -0.957    -0.895  0.1449 -0.0382  0.9887
              Bcc     0.0114     6.060     2.162     2.021 -0.3729  0.9235  0.0904
 
              Baa    -0.5447   -73.095   -26.082   -24.382  0.1600  0.7765  0.6095
    14 C(13)  Bbb    -0.5428   -72.843   -25.992   -24.298  0.9550 -0.2780  0.1035
              Bcc     1.0875   145.938    52.074    48.680 -0.2498 -0.5655  0.7860
 
              Baa    -0.0711   -37.927   -13.533   -12.651  0.6394  0.5060  0.5790
    15 H(1)   Bbb    -0.0035    -1.864    -0.665    -0.622 -0.2913 -0.5374  0.7914
              Bcc     0.0746    39.791    14.198    13.273  0.7116 -0.6747 -0.1962
 
              Baa    -0.0717   -38.271   -13.656   -12.766 -0.3099  0.8160  0.4880
    16 H(1)   Bbb    -0.0029    -1.560    -0.557    -0.521 -0.1844 -0.5551  0.8111
              Bcc     0.0747    39.831    14.213    13.286  0.9327  0.1614  0.3225
 

 ---------------------------------------------------------------------------------

 Use density number 0.
 Entering OneElI...
 Calculate overlap and kinetic energy integrals
    NBasis = 187  MinDer = 2  MaxDer = 2
 Requested accuracy = 0.1000D-12
 PrsmSu:  NPrtUS=   1 ThrOK=F
 PRISM was handed   130760218 working-precision words and  2542 shell-pairs
 Entering OneElI...
 Calculate potential energy integrals
    NBasis = 187  MinDer = 2  MaxDer = 2
 Requested accuracy = 0.1000D-12
 PrsmSu:  NPrtUS=   8 ThrOK=T
 PRISM was handed    16301586 working-precision words and  2371 shell-pairs
 PRISM was handed    16301586 working-precision words and  2371 shell-pairs
 PRISM was handed    16301586 working-precision words and  2371 shell-pairs
 PRISM was handed    16301586 working-precision words and  2371 shell-pairs
 PRISM was handed    16301586 working-precision words and  2371 shell-pairs
 PRISM was handed    16301586 working-precision words and  2371 shell-pairs
 PRISM was handed    16301586 working-precision words and  2371 shell-pairs
 PRISM was handed    16301586 working-precision words and  2371 shell-pairs
 Polarizability after L701:
                1             2             3
      1  0.666372D+02
      2  0.159114D+01  0.524411D+02
      3 -0.138901D+00  0.297984D+01  0.505873D+02
 Dipole Derivatives after L701:
               1            2            3            4            5
      1-0.471607D+00-0.159506D-01 0.170624D+00 0.321834D+00-0.672391D-01
      2 0.111527D+00-0.311729D+00 0.262676D-02-0.265631D-01 0.303213D+00
      3 0.422474D-01-0.381403D-01-0.103747D+00-0.712315D-01 0.148119D-01
               6            7            8            9           10
      1-0.733117D-01-0.423000D+00 0.267264D+00-0.136024D+00 0.891820D+00
      2 0.245012D-01 0.139435D+00-0.391776D+00-0.278258D-01-0.933687D-01
      3 0.177894D+00-0.733397D-01 0.123936D+00-0.380734D+00 0.468092D-01
              11           12           13           14           15
      1-0.275422D+00 0.648985D-01 0.638494D-02 0.367105D-01 0.380029D-03
      2 0.622181D+00-0.210400D+00-0.410447D-01-0.505120D-01-0.457980D-01
      3-0.240798D+00 0.871024D+00-0.307381D-01-0.576174D-01-0.382270D-01
              16           17           18           19           20
      1-0.664232D+00 0.108756D+00 0.710487D-02 0.341777D+00-0.237798D-01
      2-0.185892D-01-0.481201D+00 0.268100D+00-0.297610D-02 0.224418D+00
      3 0.119684D+00 0.214128D+00-0.846300D+00-0.709763D-01-0.868422D-01
              21           22           23           24           25
      1-0.372981D-01-0.577883D-01-0.537148D-02-0.515856D-01 0.592895D-01
      2-0.251651D-01-0.451945D-01 0.981561D-01-0.645952D-01 0.200996D-01
      3 0.307899D+00-0.651559D-02 0.268395D-01 0.432566D-01-0.218381D-01
              26           27           28           29           30
      1 0.101095D-01-0.233352D-01-0.108912D-01-0.198856D-01 0.141008D-01
      2-0.555737D-02 0.242297D-01 0.158981D-01 0.724950D-02-0.161243D-01
      3 0.158335D-01-0.740143D-01-0.162118D-01 0.954135D-02 0.475969D-01
              31           32           33           34           35
      1 0.508858D-01 0.148285D-01-0.150715D-01-0.101210D+00-0.699392D-01
      2-0.218884D-01-0.302911D-01-0.991783D-01-0.355081D-01 0.211479D-01
      3-0.468618D-01-0.824237D-01-0.184676D-01 0.311433D-01 0.183966D-01
              36           37           38           39           40
      1 0.216506D-01 0.751505D-01 0.256201D-01-0.270587D-01-0.325469D-02
      2 0.979742D-02 0.388109D-02 0.310021D-01 0.821145D-01-0.403177D-01
      3 0.750319D-01 0.230713D-01 0.316194D-01-0.605382D-01 0.136579D+00
              41           42           43           44           45
      1-0.482083D-01 0.137193D+00 0.324167D-01 0.596770D-01-0.796979D-02
      2-0.125422D+00 0.198651D+00 0.609297D-01 0.282662D-01-0.586404D-01
      3 0.162968D+00-0.194705D+00-0.536651D-02-0.665027D-01 0.951083D-01
              46           47           48
      1-0.475761D-01 0.283076D-02-0.442970D-01
      2-0.263198D-01 0.608535D-01-0.622940D-01
      3-0.564550D-01-0.457499D-01 0.989224D-01
 Hessian after L701:
                1             2             3             4             5
      1  0.322663D+01
      2 -0.289992D+01  0.110501D+02
      3  0.589254D-01  0.150771D+01  0.847993D+01
      4 -0.635079D+01  0.429553D+00 -0.842561D+00  0.635974D+01
      5  0.284645D+00 -0.611617D+01 -0.149791D+01 -0.695115D-01  0.617658D+01
      6 -0.474507D+00 -0.149683D+01 -0.235374D+01  0.677320D+00  0.157751D+01
      7  0.187412D+01  0.304805D+01 -0.235850D+00 -0.224819D+00 -0.164358D+00
      8  0.303119D+01 -0.413721D+01  0.228622D+00 -0.242029D+00  0.101012D+00
      9 -0.335912D+00  0.200243D+00 -0.556143D+01  0.513751D-01 -0.424034D-01
     10  0.134350D+00 -0.286679D+00  0.295091D+00 -0.911034D-01 -0.408555D-02
     11 -0.167164D+00 -0.125033D+00  0.216762D-01 -0.784049D-02  0.390101D-02
     12  0.339526D+00  0.142293D-01  0.131968D-01 -0.957089D-02  0.212447D-02
     13  0.576996D-01 -0.304259D-01  0.184971D-01 -0.167386D-01  0.697600D-02
     14 -0.905044D-01 -0.453498D-01 -0.219582D-01  0.488043D-02 -0.241475D-02
     15 -0.553842D-01  0.224572D-01 -0.970041D-01  0.713805D-02 -0.622914D-02
     16  0.173461D+00 -0.375050D+00  0.527503D+00  0.254895D+00 -0.934899D-01
     17 -0.329797D+00 -0.227312D+00 -0.302030D+00 -0.137584D+00 -0.137602D+00
     18  0.395352D+00 -0.262383D+00 -0.997688D-01  0.130984D+00 -0.330035D-01
     19  0.332165D-01 -0.106536D-01  0.634263D-01  0.242210D-02  0.184009D-02
     20  0.173043D-01 -0.326227D-01  0.248328D-01  0.442960D-02 -0.533855D-03
     21  0.606233D-01 -0.130764D-01  0.393990D-01  0.510508D-02  0.330507D-02
     22  0.581381D+00  0.746813D-01  0.758950D-02  0.381478D-01  0.162687D-01
     23  0.767209D-01 -0.198496D+00  0.132500D-02  0.808607D-02 -0.140825D-01
     24 -0.530162D-02  0.420994D-02 -0.215030D+00 -0.109073D-01 -0.251700D-03
     25  0.182675D-01  0.996865D-02 -0.147587D-01  0.150459D-02  0.125504D-02
     26  0.185643D-01 -0.133662D-01 -0.433397D-02  0.162664D-02  0.124016D-03
     27 -0.354683D-01 -0.537938D-02 -0.978838D-02 -0.346993D-02 -0.291178D-02
     28  0.763044D-01 -0.357422D-01  0.729460D-02  0.109223D-01  0.671530D-03
     29 -0.913834D-02 -0.687882D-01  0.570199D-02  0.610946D-03 -0.477182D-02
     30 -0.901818D-03  0.129481D-02 -0.752915D-01 -0.392400D-02 -0.375854D-03
     31  0.902955D-02 -0.752121D-02 -0.251062D-02  0.915153D-03 -0.124869D-03
     32 -0.176555D-01  0.906424D-03 -0.286257D-03 -0.175988D-02 -0.153120D-02
     33 -0.158452D-01  0.929473D-02 -0.103420D-01 -0.209736D-02 -0.830039D-03
     34  0.202034D-01 -0.447189D-02  0.477852D-02  0.219848D-02  0.167671D-02
     35  0.532425D-02 -0.678578D-02  0.160773D-02  0.679351D-03  0.682626D-04
     36 -0.284189D-02  0.551348D-03 -0.672671D-02 -0.579726D-03 -0.299951D-03
     37  0.135310D-01 -0.859919D-02  0.768101D-02 -0.119351D-03  0.564571D-03
     38 -0.122966D-01 -0.249604D-02 -0.617669D-02 -0.829907D-03 -0.127884D-02
     39  0.166556D-01 -0.832400D-02  0.648315D-03  0.169025D-02  0.105595D-02
     40  0.118476D+00  0.828038D-01  0.871199D-01  0.993573D-02  0.136950D-01
     41  0.532884D-01 -0.804882D-01  0.132165D-01  0.395156D-02 -0.710095D-02
     42  0.328585D-01  0.128192D-01 -0.940981D-01 -0.233108D-02 -0.198359D-02
     43 -0.956199D-02  0.763828D-02 -0.128984D-03  0.170568D-03  0.670391D-03
     44  0.317335D-01  0.805063D-02  0.232945D-01  0.480209D-02  0.376209D-02
     45  0.127944D-01  0.106114D-01 -0.805659D-02  0.100202D-02  0.131922D-02
     46  0.236773D-01  0.637023D-02  0.179036D-01  0.271568D-02  0.330714D-02
     47  0.771218D-02 -0.498860D-02  0.471227D-02  0.934272D-03  0.343541D-04
     48  0.942688D-02  0.256909D-02 -0.189987D-02  0.826773D-03  0.890489D-03
                6             7             8             9            10
      6  0.205113D+01
      7 -0.561173D-01  0.509878D+00
      8 -0.723559D-01  0.208974D+01  0.834181D+01
      9  0.451119D+00 -0.147239D+01  0.104998D+01  0.143364D+02
     10 -0.597799D-01 -0.363232D+01 -0.484505D+01  0.105117D+01  0.185689D+02
     11 -0.304805D-02 -0.489119D+01 -0.355417D+01 -0.111621D+01  0.186641D+01
     12  0.316771D-01  0.109996D+01 -0.115205D+01 -0.923852D+01 -0.147113D+00
     13  0.797250D-02  0.103086D+00  0.172946D+00 -0.528004D-01 -0.519374D+01
     14  0.770257D-02  0.126657D+00 -0.661838D-01  0.199225D+00  0.386842D+00
     15  0.869317D-02 -0.783962D-01  0.204832D+00  0.329462D+00  0.360653D+00
     16  0.111329D-01  0.103817D+00 -0.244453D+00  0.325827D+00 -0.925345D+01
     17  0.427211D-02 -0.301489D+00  0.824742D-01 -0.379289D+00  0.581262D+00
     18 -0.163153D+00  0.306802D+00 -0.259274D+00  0.197060D+00 -0.440716D+00
     19 -0.917998D-02  0.145064D-01 -0.641790D-01  0.101740D+00  0.193858D+00
     20 -0.487541D-02 -0.147773D-01 -0.530024D-01 -0.101232D-01  0.163389D-01
     21 -0.108336D-01  0.111219D+00 -0.845114D-01  0.590516D-01 -0.603722D-01
     22 -0.430713D-01  0.270950D+00  0.143906D+00  0.135996D+00 -0.155971D+01
     23 -0.723405D-03  0.101131D+00 -0.247399D+00  0.209075D-01  0.186367D+01
     24 -0.121536D-01  0.235441D+00 -0.976716D-02 -0.117626D-01 -0.105173D+01
     25 -0.331912D-02  0.136876D+00  0.790999D-02 -0.506697D-01  0.101705D+00
     26 -0.373654D-02  0.418842D-01 -0.889449D-01 -0.138777D-01 -0.993401D-01
     27  0.776541D-02 -0.139066D+00 -0.667486D-02 -0.580788D-01  0.126585D+00
     28 -0.138008D-01  0.275906D+00 -0.208991D+00 -0.909357D-02  0.199990D+00
     29 -0.466404D-02 -0.177020D+00 -0.858712D-01  0.395651D-02  0.192624D+00
     30 -0.212832D-02 -0.139970D-01  0.672906D-02 -0.171346D+00 -0.201837D-01
     31 -0.168566D-02  0.115117D-01 -0.185046D-01 -0.769960D-02  0.345683D-02
     32  0.490849D-02 -0.406091D-01  0.974451D-02  0.110874D-01 -0.313366D-01
     33  0.482820D-02 -0.298016D-01  0.192063D-01 -0.777196D-02 -0.386697D-01
     34 -0.646706D-02  0.391547D-01 -0.108438D-01 -0.345638D-02  0.200741D+00
     35 -0.196415D-02  0.571996D-02 -0.957859D-02 -0.603318D-03  0.111320D-01
     36  0.761202D-03 -0.655692D-02  0.115502D-02 -0.100753D-01 -0.378784D-01
     37 -0.276827D-02  0.339543D-01 -0.279227D-01  0.133678D-01 -0.509318D-01
     38  0.313437D-02 -0.395368D-01  0.221380D-02 -0.955009D-02  0.418062D-01
     39 -0.538360D-02  0.361180D-01 -0.185914D-01 -0.878807D-02  0.658747D-02
     40 -0.209238D-01  0.406374D+00  0.142764D+00  0.171838D+00  0.328727D+00
     41 -0.221578D-03  0.435836D-01 -0.276614D+00  0.512852D-03  0.214820D+00
     42 -0.214498D-02  0.114565D+00  0.275622D-01 -0.250130D+00 -0.374193D-01
     43  0.261756D-02  0.129321D-01  0.581108D-01  0.548463D-01 -0.252573D-01
     44 -0.744375D-02  0.154806D+00 -0.366662D-02  0.799425D-01  0.232301D-01
     45 -0.349642D-02  0.985937D-01  0.588124D-01 -0.459493D-01  0.444506D-02
     46 -0.742230D-02  0.640793D-01  0.154097D-01  0.258570D-01  0.747690D-01
     47 -0.166421D-02  0.174085D-01 -0.146252D-01  0.620392D-02  0.683569D-01
     48 -0.294177D-02  0.294710D-01  0.632733D-02 -0.926162D-02  0.493257D-01
               11            12            13            14            15
     11  0.194401D+02
     12  0.354949D+01  0.189706D+02
     13  0.346939D+00  0.323275D+00  0.483100D+01
     14 -0.318288D+01  0.187058D+01 -0.354541D+00  0.306403D+01
     15  0.188017D+01 -0.352789D+01 -0.245756D+00 -0.232839D+01  0.344016D+01
     16  0.629654D+00 -0.484043D+00  0.185201D+00  0.567285D-02 -0.464230D-01
     17 -0.768919D+01 -0.402913D+01  0.157220D-01  0.252980D+00  0.153182D+00
     18 -0.395199D+01 -0.344032D+00 -0.295610D-01  0.196163D+00 -0.449514D+00
     19 -0.245607D-02  0.100825D-01 -0.342407D-01  0.192144D-01  0.467232D-01
     20  0.198459D+00  0.343045D-01  0.123700D-01 -0.946056D-02  0.740281D-01
     21 -0.120465D+00  0.254918D-01  0.395480D-01  0.940593D-01  0.167195D+00
     22  0.191974D+01 -0.113251D+01  0.106330D-01 -0.250351D+00 -0.131585D+00
     23 -0.536337D+01 -0.432914D+00 -0.260911D+00 -0.112396D+00 -0.143489D+00
     24 -0.409210D+00 -0.586862D+01 -0.135485D+00 -0.131900D+00  0.148755D+00
     25 -0.129635D+00  0.164971D+00 -0.497521D-02 -0.216792D-01  0.534933D-02
     26  0.369184D-01  0.147029D+00 -0.181155D-01 -0.934100D-02  0.999766D-02
     27  0.160973D+00  0.113507D-01  0.346145D-02 -0.212613D-02  0.320355D-02
     28  0.947581D-01 -0.803897D-01 -0.211043D-02  0.107613D-01  0.361412D-01
     29 -0.931624D-02 -0.187153D-02 -0.102254D-02 -0.509332D-02  0.108362D-01
     30 -0.766939D-02  0.411686D-01  0.195748D-01  0.632724D-02 -0.799474D-02
     31 -0.136305D-01 -0.174861D-01  0.428340D-01  0.817611D-03 -0.287528D-03
     32  0.511145D-03  0.245401D-01 -0.178227D-01 -0.236870D-01 -0.492828D-02
     33  0.274392D-01  0.496042D-02 -0.184112D-01 -0.618113D-02 -0.236831D-01
     34  0.314746D-02 -0.415827D-01  0.123185D-01  0.120734D-01  0.839291D-02
     35 -0.548107D-01 -0.362507D-02  0.453116D-02  0.149926D-02  0.308136D-02
     36  0.417905D-05 -0.423119D-01  0.881273D-04 -0.699394D-03 -0.336588D-02
     37  0.413695D-01 -0.206868D-01 -0.987484D-02  0.305325D-02 -0.306401D-02
     38 -0.511265D-02  0.138197D-01 -0.745964D-03 -0.113751D-02 -0.355747D-02
     39 -0.475116D-02  0.111345D-01 -0.592438D-03  0.718752D-02  0.791458D-02
     40  0.244165D+00 -0.413468D-01  0.196571D-01  0.138230D+00  0.900195D-01
     41  0.236372D+00 -0.762235D-01  0.116777D+00  0.116797D+00  0.108679D+00
     42 -0.790213D-01 -0.450296D-01  0.660334D-01  0.952446D-01 -0.147729D-02
     43 -0.106715D-01 -0.534944D-02 -0.417092D-02 -0.149499D-02 -0.234116D-02
     44  0.577889D-01  0.153291D-01  0.633802D-02  0.201009D-01  0.155366D-01
     45  0.205054D-01 -0.206266D-01  0.284038D-02  0.102631D-01  0.258454D-02
     46  0.764066D-01  0.422619D-01  0.341840D-02  0.103688D-01  0.881908D-02
     47  0.978908D-02  0.243570D-01  0.986044D-03  0.253219D-02  0.378910D-02
     48  0.321012D-01 -0.224972D-01  0.131569D-02  0.449354D-02  0.296669D-02
               16            17            18            19            20
     16  0.143012D+02
     17 -0.181010D+01  0.128545D+02
     18 -0.108066D+01  0.239423D+01  0.571552D+01
     19 -0.644949D+01  0.126514D+01  0.139645D+01  0.625738D+01
     20  0.123065D+01 -0.520782D+01  0.214120D+01 -0.130468D+01  0.511178D+01
     21  0.160188D+01  0.254395D+01 -0.426787D+01 -0.157705D+01 -0.230812D+01
     22  0.290573D+00  0.308866D+00 -0.162396D+00  0.611232D-01 -0.501764D-01
     23  0.276737D+00  0.303358D+00 -0.880298D-01 -0.296290D-01  0.291078D-01
     24 -0.182870D+00 -0.894657D-01 -0.276942D+00  0.716235D-01  0.115753D+00
     25 -0.332307D-01  0.430401D-01 -0.615732D-01 -0.364534D-02  0.912499D-03
     26  0.483105D-01  0.230092D-01 -0.100013D+00  0.237441D-03 -0.602636D-02
     27 -0.842582D-01 -0.124125D+00  0.108065D+00 -0.258548D-02  0.191180D-03
     28  0.213294D+00  0.261553D-01 -0.322381D+00 -0.109444D-01 -0.228128D-01
     29  0.901869D-01 -0.256379D+00 -0.654154D-01 -0.444243D-02 -0.214658D-01
     30 -0.417208D+00 -0.539316D-01 -0.397811D-01 -0.669669D-02  0.291493D-01
     31  0.277984D-02 -0.702885D-02 -0.250728D-01 -0.598585D-03 -0.168978D-02
     32 -0.308505D-01 -0.213337D-01  0.237584D-01  0.440758D-03  0.364030D-02
     33 -0.572982D-01  0.767901D-02  0.238706D-01 -0.752681D-03  0.878812D-02
     34  0.474494D-01  0.206339D-01 -0.232525D-01 -0.180284D-02 -0.639639D-02
     35  0.190144D-01 -0.828237D-02 -0.741268D-02 -0.115435D-03 -0.330014D-02
     36 -0.232795D-01 -0.841563D-02 -0.659768D-02 -0.395699D-03  0.253472D-02
     37  0.191793D+00 -0.356740D-02 -0.750987D-01  0.444447D-02 -0.123374D-01
     38 -0.653423D-01 -0.116807D+00  0.816668D-02 -0.551997D-02  0.158750D-02
     39  0.225960D-02 -0.141065D-02 -0.110179D+00 -0.525249D-02 -0.225407D-02
     40 -0.445641D-01  0.277738D+00 -0.120227D-01 -0.615405D-01  0.132368D+00
     41  0.234686D+00  0.459458D-01 -0.253239D-03  0.136286D+00 -0.232951D-02
     42 -0.100887D+00 -0.125945D+00 -0.233824D+00 -0.867700D-01 -0.102145D+00
     43 -0.378738D-01 -0.183794D-01 -0.327377D-02 -0.378016D-02  0.158135D-02
     44  0.430427D-01  0.864021D-01  0.171240D-02 -0.315567D-02 -0.437323D-02
     45 -0.701944D-03  0.124313D-02 -0.318718D-01 -0.594965D-03 -0.136195D-02
     46  0.541417D-01  0.693804D-01  0.641920D-02 -0.915518D-03 -0.308210D-02
     47  0.413304D-01  0.160546D-01  0.254287D-02  0.166669D-02 -0.363893D-02
     48  0.903369D-02  0.918183D-02 -0.209722D-01 -0.769020D-03 -0.190464D-02
               21            22            23            24            25
     21  0.414064D+01
     22  0.564359D-01  0.132042D+02
     23  0.100343D+00 -0.287922D+00  0.159439D+02
     24 -0.167474D+00  0.456028D+00 -0.897540D+00  0.173691D+02
     25 -0.806243D-02 -0.459356D+01 -0.686814D-01  0.161495D+00  0.432771D+01
     26 -0.123195D-01 -0.146340D+00 -0.414542D+01 -0.102263D+01  0.103504D+00
     27  0.278566D-01  0.337383D+00 -0.998450D+00 -0.224302D+01 -0.165158D+00
     28 -0.264330D-01 -0.311127D+01 -0.240233D+01 -0.856064D-01 -0.103451D-01
     29 -0.314983D-02 -0.232766D+01 -0.332176D+01  0.124048D+00  0.736762D-01
     30  0.181691D-01 -0.749982D-01  0.130280D+00 -0.546957D+01 -0.279346D-01
     31 -0.365539D-02  0.649527D-01  0.861131D-01  0.472189D-01  0.321556D-02
     32  0.870208D-02  0.194786D-01 -0.359342D-01 -0.222695D-01  0.184823D-01
     33  0.112370D-01  0.777089D-02 -0.186169D-01  0.896216D-01 -0.219245D-02
     34 -0.971485D-02 -0.266520D-01  0.156820D-01 -0.219571D-01 -0.265689D-01
     35 -0.310602D-02  0.779608D-01  0.759576D-01 -0.111658D-01  0.227505D-01
     36  0.260487D-02 -0.807568D-03 -0.274663D-02  0.647741D-01 -0.150047D-01
     37 -0.153901D-01  0.651954D-01  0.826068D-01 -0.732796D-01 -0.102061D-01
     38  0.111493D-01  0.408360D-01  0.312826D-01  0.621572D-01 -0.372118D-01
     39 -0.922124D-02 -0.810740D-02  0.606397D-02  0.111545D+00  0.398184D-01
     40 -0.166086D+00 -0.550654D+01  0.625263D+00  0.662997D+00  0.909071D-01
     41 -0.193809D+00  0.511789D+00 -0.291611D+01  0.252089D+01 -0.299604D-01
     42 -0.273773D-01  0.589131D+00  0.251274D+01 -0.359538D+01 -0.401235D-01
     43  0.562028D-02  0.137333D+00 -0.117013D-01  0.147716D-01 -0.179480D-03
     44 -0.173685D-01  0.656621D-01 -0.483725D-01 -0.124028D+00  0.115187D-02
     45 -0.439488D-02  0.547543D-01 -0.108499D+00  0.404227D-01  0.161795D-02
     46 -0.136630D-01  0.732016D-01 -0.748400D-01 -0.824408D-01  0.252432D-02
     47 -0.558882D-02 -0.116746D+00  0.197612D-01 -0.108835D+00  0.451704D-02
     48 -0.446686D-02 -0.916133D-01 -0.806519D-01  0.356797D-01  0.155448D-01
               26            27            28            29            30
     26  0.417060D+01
     27  0.121951D+01  0.178594D+01
     28  0.885385D-01 -0.254572D-01  0.126265D+02
     29 -0.738181D-02 -0.152650D-01  0.131104D+01  0.135479D+02
     30  0.162858D-03  0.130633D+00  0.531247D+00 -0.118728D+00  0.145088D+02
     31  0.255940D-01 -0.397360D-02 -0.409804D+01  0.187667D+00  0.191120D+00
     32 -0.308441D-01 -0.303893D-02  0.345267D+00 -0.285001D+01  0.128681D+01
     33  0.791174D-02  0.699782D-02  0.346036D+00  0.127415D+01 -0.283287D+01
     34  0.191384D-01 -0.835927D-02 -0.194128D+01  0.963996D+00 -0.366869D+00
     35  0.282223D-02  0.123115D-01  0.827223D+00 -0.364299D+01 -0.150527D+00
     36  0.714779D-02  0.867489D-02 -0.390520D+00 -0.184395D+00 -0.393946D+01
     37 -0.429902D-01  0.501808D-01 -0.427092D+01 -0.140087D+00  0.285589D+00
     38  0.420065D-01 -0.824068D-01 -0.143106D-01 -0.357525D+01 -0.124739D+01
     39 -0.735129D-01  0.498455D-01  0.496528D-01 -0.111886D+01 -0.217674D+01
     40 -0.420629D-01 -0.695727D-01  0.511207D-01 -0.108383D+00 -0.802984D-01
     41  0.391853D-01 -0.173272D+00  0.520952D-01  0.195352D+00  0.476524D-01
     42 -0.161691D+00  0.141835D+00  0.752073D-02  0.173259D-01  0.514938D-01
     43  0.110592D-02 -0.122136D-01 -0.268885D-03 -0.742226D-01 -0.330767D-01
     44 -0.464735D-02  0.811918D-02 -0.704804D-01  0.844940D-01  0.516914D-01
     45 -0.381410D-02  0.347927D-02 -0.298649D-01  0.491385D-01 -0.188406D-01
     46  0.345255D-03  0.319714D-01 -0.887229D-02  0.221697D-01  0.185578D-01
     47 -0.869681D-02  0.125436D-01 -0.184306D-02  0.212763D-01  0.185281D-01
     48  0.416540D-02  0.252323D-01  0.565426D-02  0.271999D-01 -0.162685D-01
               31            32            33            34            35
     31  0.392487D+01
     32 -0.147493D+00  0.273795D+01
     33 -0.960291D-01 -0.139419D+01  0.275053D+01
     34  0.104306D-01 -0.663838D-01 -0.288836D-01  0.161954D+01
     35 -0.710768D-01 -0.418093D-02 -0.186973D-01 -0.843841D+00  0.363241D+01
     36 -0.532202D-01 -0.414226D-01  0.569434D-01  0.459656D+00  0.115868D+00
     37  0.734631D-01 -0.349053D-02 -0.430512D-01  0.389795D-01 -0.550920D-01
     38 -0.327607D-02  0.899168D-01 -0.408331D-01 -0.567502D-01  0.161666D-01
     39 -0.630240D-02 -0.857277D-02 -0.105587D+00  0.591144D-01  0.537322D-01
     40 -0.473570D-01 -0.310730D-01 -0.250284D-01  0.117311D-01  0.304278D-02
     41 -0.343689D-01  0.115375D+00  0.112541D+00 -0.170037D-01 -0.476110D-02
     42 -0.240181D-01  0.105083D+00  0.249327D-01  0.224975D-02 -0.578049D-02
     43 -0.613351D-03 -0.492380D-02 -0.447059D-02  0.117433D-01 -0.281041D-02
     44  0.302586D-02  0.174563D-02  0.390605D-02 -0.133649D-01  0.309980D-03
     45  0.208528D-02 -0.244392D-03  0.111343D-02 -0.621291D-02  0.183850D-02
     46 -0.852682D-03  0.972937D-02  0.872433D-02 -0.181792D-01 -0.444204D-02
     47  0.149679D-02  0.772739D-02  0.843210D-02 -0.172917D-01  0.545758D-02
     48  0.151695D-02  0.100608D-01  0.521850D-02 -0.174359D-01  0.144425D-01
               36            37            38            39            40
     36  0.389060D+01
     37  0.834940D-01  0.394521D+01
     38  0.820058D-01  0.178605D+00  0.347990D+01
     39 -0.414094D-03 -0.198413D+00  0.118330D+01  0.226164D+01
     40 -0.807250D-02 -0.207303D-01 -0.292061D-01  0.854458D-02  0.941813D+01
     41  0.521135D-02 -0.867504D-02  0.192427D-01 -0.340901D-02 -0.433995D+00
     42 -0.206568D-01 -0.843953D-02  0.183934D-01 -0.155836D-01 -0.101698D+01
     43 -0.517314D-02  0.747774D-03 -0.784818D-02  0.573901D-02 -0.292881D+01
     44  0.480374D-02 -0.342721D-02  0.828858D-02 -0.673891D-02 -0.155027D+01
     45 -0.474790D-03 -0.428915D-03  0.159507D-02 -0.314258D-02 -0.534739D+00
     46  0.109278D-02 -0.454195D-02  0.116273D-01 -0.751182D-02 -0.184552D+01
     47  0.186976D-01 -0.104693D-04  0.114711D-01 -0.491191D-02  0.534925D+00
     48  0.572023D-02  0.308215D-03  0.619338D-02 -0.769161D-02  0.954550D+00
               41            42            43            44            45
     41  0.952481D+01
     42 -0.290493D+01  0.119096D+02
     43 -0.124725D+01 -0.420679D+00  0.298679D+01
     44 -0.297202D+01  0.408384D+00  0.123003D+01  0.269228D+01
     45  0.413089D+00 -0.414196D+01  0.417886D+00 -0.469131D+00  0.414543D+01
     46  0.403973D+00  0.925289D+00 -0.139201D+00  0.768781D-01 -0.234761D-01
     47 -0.403366D+01  0.183945D+00  0.801587D-01  0.698572D-01  0.146351D-01
     48  0.130327D+00 -0.370022D+01 -0.147740D-01  0.119911D-01  0.857826D-01
               46            47            48
     46  0.171956D+01
     47 -0.623601D+00  0.390165D+01
     48 -0.952382D+00 -0.177387D+00  0.362562D+01
 ReadGW:  IGet=0 IStart=         114 Next=        7241 LGW=        7127.
 ICntrl=12127.
 Symmetry not used in FoFDir.
 MinBra= 0 MaxBra= 2 Meth= 1.
 IRaf=       0 NMat=   1 IRICut=       1 DoRegI=T DoRafI=F ISym2E= 0 JSym2E=0.
 PrsmSu:  NPrtUS=   8 ThrOK=T
 PRISM was handed    16287499 working-precision words and  2453 shell-pairs
 PRISM was handed    16287499 working-precision words and  2453 shell-pairs
 PRISM was handed    16287499 working-precision words and  2453 shell-pairs
 PRISM was handed    16287499 working-precision words and  2453 shell-pairs
 PRISM was handed    16287499 working-precision words and  2453 shell-pairs
 PRISM was handed    16287499 working-precision words and  2453 shell-pairs
 PRISM was handed    16287499 working-precision words and  2453 shell-pairs
 PRISM was handed    16287499 working-precision words and  2453 shell-pairs
 Pruned (  75, 302) grid will be used in CalDFT.
 CkSvGd:  ISavGI=        -1 IRadAn=       4 IRASav=       4 ISavGd=        -1.
 CalDSu:  NPrtUS=   8 ThrOK=T
 IPart= 0 IRanGd=          0 ScrnBf=T ScrnGd=T RCrit=4.00D+00 DoMicB=T.
 IPart= 6 IRanGd=          0 ScrnBf=T ScrnGd=T RCrit=4.00D+00 DoMicB=T.
 IPart= 2 IRanGd=          0 ScrnBf=T ScrnGd=T RCrit=4.00D+00 DoMicB=T.
 CutRad = 1000.00    CtRdIn =    0.00    XCrit =  15.00   ICut = 0
 IPart= 4 IRanGd=          0 ScrnBf=T ScrnGd=T RCrit=4.00D+00 DoMicB=T.
 CutRad = 1000.00    CtRdIn =    0.00    XCrit =  15.00   ICut = 0
 CutRad = 1000.00    CtRdIn =    0.00    XCrit =  15.00   ICut = 0
 CutRad = 1000.00    CtRdIn =    0.00    XCrit =  15.00   ICut = 0
 IPart= 7 IRanGd=          0 ScrnBf=T ScrnGd=T RCrit=4.00D+00 DoMicB=T.
 IPart= 1 IRanGd=          0 ScrnBf=T ScrnGd=T RCrit=4.00D+00 DoMicB=T.
 IPart= 5 IRanGd=          0 ScrnBf=T ScrnGd=T RCrit=4.00D+00 DoMicB=T.
 IPart= 3 IRanGd=          0 ScrnBf=T ScrnGd=T RCrit=4.00D+00 DoMicB=T.
 CutRad = 1000.00    CtRdIn =    0.00    XCrit =  15.00   ICut = 0
 CutRad = 1000.00    CtRdIn =    0.00    XCrit =  15.00   ICut = 0
 CutRad = 1000.00    CtRdIn =    0.00    XCrit =  15.00   ICut = 0
 CutRad = 1000.00    CtRdIn =    0.00    XCrit =  15.00   ICut = 0
 IPart= 1        14410 of        15916 points in      32 batches and      104 microbatches, Max-NSigAt=      16 Max-NSgAt2=      16
 IPart= 0        14821 of        17828 points in      37 batches and       89 microbatches, Max-NSigAt=      16 Max-NSgAt2=      16
 IPart= 2        14206 of        16320 points in      34 batches and      100 microbatches, Max-NSigAt=      16 Max-NSgAt2=      16
 IPart= 5        13343 of        15046 points in      32 batches and      106 microbatches, Max-NSigAt=      16 Max-NSgAt2=      16
 IPart= 3        14285 of        16322 points in      34 batches and       86 microbatches, Max-NSigAt=      16 Max-NSgAt2=      16
 IPart= 4        14198 of        16206 points in      34 batches and      107 microbatches, Max-NSigAt=      16 Max-NSgAt2=      16
 IPart= 7        13472 of        15102 points in      30 batches and       89 microbatches, Max-NSigAt=      16 Max-NSgAt2=      16
 IPart= 6        13556 of        15342 points in      31 batches and       96 microbatches, Max-NSigAt=      16 Max-NSgAt2=      16
 Polarizability after L703:
                1             2             3
      1  0.666372D+02
      2  0.159114D+01  0.524411D+02
      3 -0.138901D+00  0.297984D+01  0.505873D+02
 Dipole Derivatives after L703:
               1            2            3            4            5
      1-0.471607D+00-0.159506D-01 0.170624D+00 0.321834D+00-0.672391D-01
      2 0.111527D+00-0.311729D+00 0.262676D-02-0.265631D-01 0.303213D+00
      3 0.422474D-01-0.381403D-01-0.103747D+00-0.712315D-01 0.148119D-01
               6            7            8            9           10
      1-0.733117D-01-0.423000D+00 0.267264D+00-0.136024D+00 0.891820D+00
      2 0.245012D-01 0.139435D+00-0.391776D+00-0.278258D-01-0.933687D-01
      3 0.177894D+00-0.733397D-01 0.123936D+00-0.380734D+00 0.468092D-01
              11           12           13           14           15
      1-0.275422D+00 0.648985D-01 0.638494D-02 0.367105D-01 0.380029D-03
      2 0.622181D+00-0.210400D+00-0.410447D-01-0.505120D-01-0.457980D-01
      3-0.240798D+00 0.871024D+00-0.307381D-01-0.576174D-01-0.382270D-01
              16           17           18           19           20
      1-0.664232D+00 0.108756D+00 0.710487D-02 0.341777D+00-0.237798D-01
      2-0.185892D-01-0.481201D+00 0.268100D+00-0.297610D-02 0.224418D+00
      3 0.119684D+00 0.214128D+00-0.846300D+00-0.709763D-01-0.868422D-01
              21           22           23           24           25
      1-0.372981D-01-0.577883D-01-0.537148D-02-0.515856D-01 0.592895D-01
      2-0.251651D-01-0.451945D-01 0.981561D-01-0.645952D-01 0.200996D-01
      3 0.307899D+00-0.651559D-02 0.268395D-01 0.432566D-01-0.218381D-01
              26           27           28           29           30
      1 0.101095D-01-0.233352D-01-0.108912D-01-0.198856D-01 0.141008D-01
      2-0.555737D-02 0.242297D-01 0.158981D-01 0.724950D-02-0.161243D-01
      3 0.158335D-01-0.740143D-01-0.162118D-01 0.954135D-02 0.475969D-01
              31           32           33           34           35
      1 0.508858D-01 0.148285D-01-0.150715D-01-0.101210D+00-0.699392D-01
      2-0.218884D-01-0.302911D-01-0.991783D-01-0.355081D-01 0.211479D-01
      3-0.468618D-01-0.824237D-01-0.184676D-01 0.311433D-01 0.183966D-01
              36           37           38           39           40
      1 0.216506D-01 0.751505D-01 0.256201D-01-0.270587D-01-0.325469D-02
      2 0.979742D-02 0.388109D-02 0.310021D-01 0.821145D-01-0.403177D-01
      3 0.750319D-01 0.230713D-01 0.316194D-01-0.605382D-01 0.136579D+00
              41           42           43           44           45
      1-0.482083D-01 0.137193D+00 0.324167D-01 0.596770D-01-0.796979D-02
      2-0.125422D+00 0.198651D+00 0.609297D-01 0.282662D-01-0.586404D-01
      3 0.162968D+00-0.194705D+00-0.536651D-02-0.665027D-01 0.951083D-01
              46           47           48
      1-0.475761D-01 0.283076D-02-0.442970D-01
      2-0.263198D-01 0.608535D-01-0.622940D-01
      3-0.564550D-01-0.457499D-01 0.989224D-01
 Hessian after L703:
                1             2             3             4             5
      1  0.313223D+00
      2  0.104749D+00  0.127859D+00
      3 -0.669411D-02 -0.145666D+00  0.539715D+00
      4 -0.369057D-01 -0.103318D-01 -0.166340D-01  0.660646D-01
      5 -0.256228D-01 -0.463788D-01  0.118208D+00  0.344750D-01  0.563374D-01
      6  0.336589D-01  0.139417D+00 -0.489155D+00 -0.276084D-01 -0.135400D+00
      7 -0.219499D+00 -0.124945D+00  0.313105D-01 -0.276166D-01 -0.942127D-02
      8 -0.594587D-01 -0.981413D-01  0.230539D-01 -0.205339D-01 -0.119606D-01
      9 -0.273243D-01  0.166010D-02 -0.504360D-01  0.392573D-01  0.198383D-01
     10 -0.615279D-01  0.196432D-01 -0.502006D-02 -0.279467D-02  0.171042D-02
     11 -0.228904D-01  0.997354D-02  0.651659D-02 -0.528268D-02  0.430122D-02
     12  0.160687D-02  0.374236D-02 -0.546568D-02  0.102557D-01 -0.307739D-02
     13  0.534349D-02  0.891370D-03  0.392100D-03 -0.379783D-03  0.167601D-04
     14 -0.281758D-02  0.467218D-02  0.169778D-02  0.424312D-03 -0.454135D-03
     15  0.577975D-04  0.105216D-02 -0.596007D-03 -0.120853D-03 -0.446543D-03
     16  0.419273D-02  0.443931D-02 -0.467940D-02  0.289405D-02 -0.426761D-03
     17 -0.269323D-02  0.211895D-02 -0.230693D-02  0.162662D-03 -0.155892D-02
     18  0.101276D-02 -0.553438D-03  0.357992D-02 -0.337886D-02  0.225088D-03
     19 -0.145820D-02  0.588295D-03 -0.110058D-03 -0.989974D-03 -0.883563D-03
     20  0.159968D-03 -0.709525D-03 -0.759065D-04 -0.109536D-03  0.485585D-03
     21  0.639027D-03 -0.313642D-03 -0.346082D-03 -0.737842D-03  0.299050D-03
     22 -0.126251D-02  0.365680D-02  0.148635D-02 -0.604709D-03  0.272522D-03
     23  0.103622D-01 -0.315729D-03 -0.137826D-02  0.821701D-03 -0.571998D-03
     24 -0.402443D-02  0.904587D-03  0.123802D-02 -0.380185D-03  0.386713D-03
     25  0.854270D-03  0.296862D-03 -0.686164D-03  0.389858D-03 -0.137558D-03
     26 -0.971480D-04 -0.861149D-04 -0.452733D-03  0.208042D-03 -0.786564D-04
     27  0.248482D-03 -0.274904D-03  0.781214D-03 -0.349680D-03 -0.288562D-04
     28 -0.182322D-02  0.639804D-03  0.431164D-03 -0.901917D-04  0.859917D-04
     29 -0.322116D-02  0.248777D-03  0.458398D-03 -0.335250D-05  0.345911D-04
     30  0.571025D-03 -0.125770D-03  0.728131D-03 -0.151012D-03 -0.139373D-03
     31  0.525637D-04 -0.129247D-03 -0.957600D-04 -0.276741D-04  0.304434D-04
     32  0.134492D-03  0.814585D-04  0.491124D-04 -0.183306D-04 -0.203631D-04
     33  0.944080D-04  0.232553D-04 -0.400510D-04  0.732937D-05 -0.184085D-04
     34 -0.834021D-03  0.174902D-03  0.234628D-03  0.191797D-04  0.287816D-05
     35  0.105150D-02 -0.443054D-04 -0.111941D-03  0.564575D-04 -0.546229D-04
     36 -0.509011D-04 -0.739393D-04  0.608544D-04 -0.587394D-04  0.171176D-04
     37 -0.541927D-04 -0.203898D-03  0.194100D-03 -0.247729D-03  0.673273D-04
     38  0.759933D-04  0.101409D-03 -0.152182D-03  0.107538D-03 -0.105637D-05
     39 -0.576396D-04 -0.177482D-04  0.418425D-04 -0.293995D-04  0.206602D-04
     40 -0.632334D-04  0.719658D-03  0.379616D-04  0.265475D-03 -0.145827D-03
     41  0.642765D-03 -0.407457D-03 -0.279330D-03  0.784343D-04  0.126132D-03
     42  0.508341D-03 -0.472476D-03 -0.103732D-03 -0.222584D-03  0.167988D-03
     43 -0.855861D-04  0.503866D-04 -0.170758D-03  0.251594D-04 -0.846495D-04
     44 -0.103909D-03  0.658846D-03  0.270368D-03 -0.859952D-04 -0.111578D-03
     45  0.103736D-03  0.461076D-03 -0.157197D-03  0.105245D-03  0.661462D-05
     46 -0.152153D-03 -0.239559D-03  0.349358D-05 -0.131250D-05  0.610883D-04
     47 -0.270898D-03  0.369279D-03  0.169252D-03  0.314929D-04 -0.942162D-04
     48 -0.350030D-03  0.237403D-03  0.155320D-03  0.460152D-04 -0.586851D-04
                6             7             8             9            10
      6  0.481831D+00
      7 -0.636016D-02  0.420106D+00
      8 -0.122803D-02  0.159830D-01  0.344861D+00
      9  0.880578D-02 -0.246992D-02 -0.532819D-01  0.113314D+00
     10  0.215980D-02 -0.113495D+00  0.250513D-01  0.420593D-02  0.496431D+00
     11 -0.333982D-02  0.764957D-01 -0.180335D+00 -0.390414D-02  0.658876D-01
     12  0.362477D-02 -0.358201D-03 -0.109749D-01 -0.663439D-01  0.625037D-02
     13 -0.512495D-04 -0.716697D-02  0.325552D-01  0.132045D-01 -0.632851D-01
     14  0.211440D-03  0.786808D-02 -0.352300D-01 -0.141227D-01 -0.389878D-01
     15 -0.364419D-03 -0.570041D-03  0.336007D-02  0.861162D-02 -0.280280D-01
     16  0.189229D-03 -0.316112D-02  0.212995D-01 -0.292351D-01 -0.820592D-01
     17 -0.838115D-03  0.153934D-01 -0.305438D-01  0.520605D-01 -0.279873D-01
     18 -0.412023D-02 -0.218221D-01  0.420099D-01 -0.206930D-01  0.322455D-01
     19 -0.148060D-02  0.558100D-04 -0.140964D-02  0.135684D-02  0.301207D-02
     20  0.102580D-03  0.104408D-02 -0.127399D-02  0.633730D-03  0.673823D-02
     21  0.208422D-03  0.350739D-04  0.428253D-03  0.366074D-02 -0.167499D-01
     22 -0.322098D-03 -0.412782D-01 -0.716234D-02  0.852588D-03 -0.141488D+00
     23  0.103729D-02  0.184877D-01  0.119915D-01 -0.250489D-02 -0.373198D-01
     24 -0.797321D-03  0.211422D-02 -0.302435D-02  0.211844D-02  0.826205D-02
     25  0.311434D-03 -0.566798D-03  0.328197D-03  0.203691D-03  0.103633D-02
     26  0.704827D-04  0.149314D-02  0.665283D-03 -0.466163D-03  0.181018D-02
     27 -0.961648D-04 -0.105537D-02 -0.226126D-03  0.471281D-03 -0.685999D-03
     28 -0.278346D-03 -0.393444D-02 -0.288341D-02  0.927925D-03 -0.286050D-01
     29 -0.284206D-03 -0.310563D-02 -0.182821D-02  0.386572D-03 -0.363219D-02
     30  0.452861D-04  0.207476D-03  0.604233D-03 -0.436063D-03  0.531194D-02
     31  0.342420D-04  0.318506D-03 -0.315053D-03 -0.181002D-03  0.106664D-02
     32 -0.168853D-04 -0.274915D-03  0.416843D-03  0.372044D-03 -0.126138D-02
     33 -0.122095D-04 -0.121049D-04  0.476031D-03  0.237172D-03 -0.487295D-03
     34 -0.136737D-03 -0.112196D-02 -0.679492D-03  0.262466D-03 -0.603557D-03
     35  0.118028D-03  0.846393D-03  0.110266D-02 -0.154897D-03  0.192543D-02
     36 -0.257815D-04 -0.116287D-03  0.188363D-03  0.250215D-03 -0.490206D-03
     37 -0.722836D-04  0.416466D-03 -0.435335D-03  0.371549D-03  0.566451D-03
     38  0.494042D-04 -0.335003D-04  0.575438D-04 -0.119228D-03 -0.939362D-03
     39 -0.632423D-05 -0.209331D-03 -0.179978D-03  0.529584D-04  0.281724D-03
     40 -0.128308D-05 -0.912622D-03 -0.118626D-02 -0.894132D-03 -0.959237D-02
     41  0.120171D-03 -0.114404D-05 -0.875483D-04 -0.115421D-02 -0.150706D-01
     42 -0.194358D-04 -0.251823D-03 -0.129189D-02  0.296783D-03 -0.963122D-02
     43  0.174522D-04 -0.211761D-02 -0.744502D-03 -0.461616D-03  0.124922D-02
     44  0.280216D-04 -0.313825D-03  0.174969D-03  0.456168D-03  0.263840D-02
     45  0.125267D-03 -0.754737D-03  0.434137D-04 -0.128907D-03  0.289579D-03
     46 -0.599137D-04 -0.266178D-04 -0.408452D-03 -0.767866D-04  0.887666D-04
     47 -0.471973D-04  0.483755D-03  0.130647D-03  0.300747D-03 -0.206317D-03
     48 -0.438840D-04  0.312774D-03  0.430853D-04  0.219144D-03  0.208575D-02
               11            12            13            14            15
     11  0.576322D+00
     12  0.110983D+00  0.566632D+00
     13 -0.485587D-01 -0.359352D-01  0.675685D-01
     14 -0.192434D+00 -0.130752D+00  0.351377D-01  0.217344D+00
     15 -0.122162D+00 -0.154520D+00  0.333637D-01  0.130215D+00  0.184237D+00
     16 -0.227955D-01  0.157193D-02  0.421904D-02  0.234880D-02 -0.966262D-02
     17 -0.111536D+00  0.171320D-01  0.280875D-02  0.114050D-01 -0.191453D-01
     18  0.448145D-01 -0.213711D+00  0.349007D-02  0.148519D-01 -0.390023D-01
     19  0.355275D-02  0.123600D-02  0.157504D-02 -0.822870D-03  0.282239D-02
     20  0.123223D-01  0.118708D-01 -0.892653D-03  0.795115D-03  0.204257D-02
     21 -0.292175D-01 -0.400673D-01  0.939170D-03  0.393402D-02 -0.543636D-02
     22 -0.382822D-01  0.113042D-01 -0.526913D-02 -0.279456D-02  0.136118D-02
     23 -0.101678D+00 -0.170155D-02 -0.208798D-01 -0.779800D-02  0.444596D-02
     24 -0.997300D-04 -0.744163D-01 -0.159157D-01 -0.711247D-02  0.551118D-02
     25 -0.121845D-01  0.285916D-01  0.772427D-03  0.138822D-03 -0.727238D-03
     26 -0.590332D-02  0.153874D-01  0.505969D-03  0.230852D-04 -0.337961D-03
     27  0.467298D-02 -0.902818D-02  0.422713D-03  0.321340D-04  0.425752D-03
     28  0.215339D-01  0.192973D-02  0.132855D-02  0.914556D-03 -0.141873D-03
     29  0.128200D-01 -0.254315D-02 -0.102062D-02  0.711942D-03  0.187460D-03
     30 -0.515439D-02 -0.193589D-03 -0.829100D-03  0.460099D-04  0.120512D-03
     31  0.152936D-02  0.146416D-02 -0.564590D-03 -0.285209D-03 -0.249192D-03
     32 -0.119716D-03 -0.328138D-03  0.477290D-03  0.597677D-03  0.988791D-04
     33 -0.702848D-03 -0.346854D-03  0.473357D-03  0.173471D-03  0.184428D-03
     34  0.481131D-02 -0.981432D-03  0.253583D-03  0.135177D-03 -0.644015D-04
     35 -0.522117D-02  0.453265D-03  0.223405D-03  0.877716D-04  0.201364D-03
     36  0.420766D-03 -0.707729D-03  0.201793D-03  0.238777D-03  0.824372D-04
     37  0.119469D-02 -0.293793D-02 -0.576377D-04 -0.169692D-03  0.160122D-03
     38 -0.335774D-03  0.108775D-02  0.163741D-03 -0.450715D-05 -0.999583D-04
     39  0.111482D-02 -0.987316D-03 -0.616166D-04  0.482762D-04 -0.295401D-04
     40 -0.263386D-01 -0.241253D-01 -0.444485D-02 -0.122482D-02  0.193039D-02
     41 -0.152535D-01 -0.606878D-02 -0.321712D-03  0.429553D-03  0.132156D-03
     42 -0.215363D-02 -0.159057D-02  0.125749D-02  0.673469D-03  0.422872D-03
     43  0.313795D-03  0.798421D-03  0.428435D-04  0.189852D-03 -0.145142D-03
     44  0.646079D-04 -0.767152D-03 -0.630457D-04  0.156280D-03  0.407305D-04
     45 -0.560202D-03  0.944639D-03 -0.744574D-04  0.348320D-04 -0.393490D-04
     46  0.101354D-02 -0.670965D-03  0.645788D-04 -0.548478D-04  0.137485D-04
     47 -0.298679D-02 -0.444326D-02 -0.104369D-02 -0.301589D-03  0.415477D-03
     48 -0.122832D-02 -0.382281D-02 -0.877679D-03 -0.169776D-03  0.392178D-03
               16            17            18            19            20
     16  0.178430D+00
     17  0.162811D+00  0.383623D+00
     18  0.119234D+00  0.100894D+00  0.524548D+00
     19 -0.976691D-01 -0.142468D+00 -0.136922D+00  0.965042D-01
     20 -0.146845D+00 -0.245167D+00 -0.216161D+00  0.140056D+00  0.235908D+00
     21 -0.115850D+00 -0.173610D+00 -0.232267D+00  0.131157D+00  0.199004D+00
     22 -0.502878D-03 -0.337308D-02  0.441105D-02  0.327554D-03 -0.449128D-03
     23 -0.148423D-01 -0.833136D-02  0.141594D-01  0.148298D-02  0.583099D-03
     24  0.323656D-01  0.228363D-01 -0.211514D-01  0.273549D-02  0.249991D-02
     25 -0.685539D-02 -0.381704D-02  0.379886D-02 -0.108979D-03 -0.500624D-03
     26 -0.366766D-02 -0.113716D-02  0.247218D-02 -0.303588D-03 -0.816604D-03
     27  0.172736D-02  0.845833D-03  0.639140D-03 -0.466227D-03 -0.143503D-03
     28  0.140636D-04  0.129539D-02 -0.164608D-02 -0.441041D-03 -0.315252D-03
     29 -0.217550D-03 -0.274488D-03  0.155266D-02 -0.441196D-03 -0.419838D-04
     30 -0.947173D-03  0.465767D-03 -0.286175D-03  0.510411D-03 -0.611874D-03
     31 -0.229026D-03 -0.439625D-03 -0.300658D-03  0.189940D-03  0.104634D-03
     32  0.205382D-03  0.172336D-03  0.309912D-04 -0.451044D-04 -0.211230D-03
     33  0.536328D-03  0.269413D-03  0.180559D-03 -0.393036D-03  0.839785D-04
     34  0.148812D-03 -0.133386D-03  0.325264D-03 -0.947209D-04 -0.738701D-04
     35 -0.504248D-03  0.658819D-03 -0.382886D-03  0.126612D-03 -0.729136D-04
     36  0.944025D-03 -0.539654D-03  0.596932D-03 -0.235321D-03  0.246374D-03
     37  0.367552D-03 -0.888348D-03  0.122014D-02 -0.556484D-03  0.826845D-03
     38 -0.103999D-02  0.439248D-03 -0.823045D-03  0.614602D-03 -0.265819D-03
     39  0.144070D-02 -0.904895D-03  0.408708D-03 -0.324389D-05 -0.685758D-04
     40  0.384451D-03 -0.477279D-03 -0.203472D-02 -0.158168D-04  0.125458D-03
     41 -0.267658D-03 -0.475097D-03 -0.455492D-02  0.572479D-04 -0.169984D-04
     42  0.258745D-02  0.247862D-02  0.120202D-02 -0.619473D-03  0.323122D-03
     43 -0.338705D-03  0.128040D-03  0.212843D-03  0.722567D-04 -0.897972D-04
     44 -0.667644D-03  0.524315D-03  0.834945D-03  0.140460D-03 -0.132940D-02
     45 -0.211199D-03 -0.135540D-04 -0.520889D-03  0.161266D-03  0.495409D-03
     46  0.164346D-03 -0.322073D-03  0.153973D-03 -0.402590D-03  0.220400D-03
     47  0.170364D-03  0.829910D-04  0.630423D-03 -0.245364D-03 -0.188123D-03
     48 -0.108488D-04  0.376077D-03  0.595906D-03  0.251134D-03 -0.241468D-03
               21            22            23            24            25
     21  0.272072D+00
     22  0.333341D-03  0.472299D+00
     23 -0.128797D-02 -0.226997D-01  0.487992D+00
     24  0.169769D-02  0.169053D-01 -0.158089D-01  0.528644D+00
     25 -0.960322D-03 -0.435078D-01  0.844691D-02 -0.158818D-01  0.535082D-01
     26 -0.395639D-03  0.458831D-02 -0.821037D-01  0.840665D-01 -0.640908D-02
     27  0.353779D-03 -0.105051D-01  0.996553D-01 -0.245876D+00  0.148337D-01
     28  0.420734D-03 -0.137028D+00  0.548982D-01 -0.136198D-02 -0.308927D-02
     29 -0.424726D-03  0.545838D-01 -0.134269D+00  0.349705D-02  0.128548D-01
     30 -0.163448D-03 -0.216869D-02  0.193256D-02 -0.776307D-01 -0.225657D-01
     31 -0.144398D-03  0.374259D-02  0.166754D-01  0.184505D-01  0.103120D-02
     32  0.130443D-03 -0.528165D-02 -0.153743D-01 -0.160002D-01 -0.628704D-03
     33  0.112945D-03  0.261287D-03  0.171940D-02  0.649307D-03  0.446298D-03
     34 -0.130228D-03 -0.215495D-01 -0.103159D-01  0.457953D-02  0.637032D-03
[...]
   X11        3.77466  -0.00001   0.00000  -0.00103  -0.00097   3.77369
   Y11       -2.88444  -0.00002   0.00000  -0.00140  -0.00146  -2.88590
   Z11       -2.34464   0.00001   0.00000   0.00213   0.00219  -2.34245
   X12        5.95487   0.00000   0.00000  -0.00021  -0.00017   5.95471
   Y12       -0.59913  -0.00001   0.00000  -0.00015  -0.00021  -0.59934
   Z12       -1.23164  -0.00001   0.00000  -0.00200  -0.00190  -1.23355
   X13        4.20771   0.00000   0.00000   0.00171   0.00171   4.20942
   Y13       -2.46187   0.00000   0.00000   0.00188   0.00182  -2.46005
   Z13        0.94872   0.00001   0.00000   0.00130   0.00136   0.95009
   X14        2.52507   0.00000   0.00000  -0.00022  -0.00023   2.52484
   Y14        2.59395   0.00000   0.00000   0.00000  -0.00007   2.59388
   Z14        1.05532  -0.00002   0.00000   0.00025   0.00029   1.05561
   X15        1.08691   0.00001   0.00000  -0.00027  -0.00029   1.08663
   Y15        4.00362   0.00001   0.00000   0.00001  -0.00006   4.00357
   Z15        1.44345  -0.00003   0.00000   0.00001   0.00002   1.44347
   X16        4.42614   0.00001   0.00000   0.00013   0.00010   4.42624
   Y16        2.91286   0.00001   0.00000   0.00107   0.00101   2.91387
   Z16        1.75609  -0.00003   0.00000  -0.00113  -0.00106   1.75503
         Item               Value     Threshold  Converged?
 Maximum Force            0.000042     0.000450     YES
 RMS     Force            0.000014     0.000300     YES
 Maximum Displacement     0.002190     0.001800     NO 
 RMS     Displacement     0.000788     0.001200     YES
 Predicted change in Energy=-3.285538D-08
 GradGradGradGradGradGradGradGradGradGradGradGradGradGradGradGradGradGrad


 Test job not archived.
 1\1\GINC-NODE28\Freq\UBMK\CBSB7\C4H9O3(2)\NYEE\11-Jul-2014\0\\# freq n
 osymm bmk/cbsb7 iop(7/33=1)\\Title Card Required\\0,2\O,-2.543797,0.01
 8267,-0.347601\H,-2.61909,-0.260103,0.574841\O,-1.259889,0.627473,-0.3
 66014\C,-0.300592,-0.381087,-0.186412\H,-0.4953,-1.192261,-0.895142\O,
 -0.41033,-0.944745,1.084658\H,-0.022046,-0.324673,1.712094\C,1.069799,
 0.283461,-0.442534\H,0.993308,0.734753,-1.44542\C,2.180165,-0.782534,-
 0.459102\H,1.997462,-1.526378,-1.24073\H,3.151184,-0.317048,-0.651758\
 H,2.226624,-1.302767,0.502043\C,1.336209,1.372658,0.558451\H,0.57517,2
 .118627,0.763842\H,2.342212,1.541419,0.929284\\Version=AM64L-G03RevD.0
 1\HF=-383.2374309\S2=0.754464\S2-1=0.\S2A=0.750014\RMSD=7.672e-09\RMSF
 =1.396e-05\ZeroPoint=0.132401\Thermal=0.1409446\Dipole=0.8298495,-0.00
 96385,0.4722363\DipoleDeriv=-0.471607,0.1115273,0.0422474,-0.0159506,-
 0.3117287,-0.0381403,0.1706237,0.0026268,-0.1037474,0.321834,-0.026563
 1,-0.0712315,-0.0672391,0.3032134,0.0148119,-0.0733117,0.0245012,0.177
 8941,-0.4229997,0.1394345,-0.0733397,0.2672636,-0.3917763,0.1239362,-0
 .1360238,-0.0278258,-0.380734,0.8918199,-0.0933687,0.0468092,-0.275422
 5,0.6221807,-0.2407978,0.0648985,-0.2104,0.871024,0.0063849,-0.0410447
 ,-0.0307381,0.0367105,-0.050512,-0.0576174,0.00038,-0.045798,-0.038227
 ,-0.6642321,-0.0185892,0.1196837,0.1087565,-0.4812006,0.2141276,0.0071
 049,0.2681,-0.8462999,0.3417771,-0.0029761,-0.0709763,-0.0237798,0.224
 4181,-0.0868422,-0.0372981,-0.0251651,0.3078993,-0.0577883,-0.0451945,
 -0.0065156,-0.0053715,0.0981561,0.0268395,-0.0515856,-0.0645952,0.0432
 566,0.0592895,0.0200996,-0.0218381,0.0101095,-0.0055574,0.0158335,-0.0
 233352,0.0242297,-0.0740143,-0.0108912,0.0158981,-0.0162118,-0.0198856
 ,0.0072495,0.0095414,0.0141008,-0.0161243,0.0475969,0.0508858,-0.02188
 84,-0.0468618,0.0148285,-0.0302911,-0.0824237,-0.0150715,-0.0991783,-0
 .0184676,-0.1012095,-0.0355081,0.0311433,-0.0699392,0.0211479,0.018396
 6,0.0216506,0.0097974,0.0750319,0.0751505,0.0038811,0.0230713,0.025620
 1,0.0310021,0.0316194,-0.0270587,0.0821145,-0.0605382,-0.0032547,-0.04
 03177,0.1365793,-0.0482083,-0.1254215,0.1629678,0.1371929,0.1986514,-0
 .194705,0.0324167,0.0609297,-0.0053665,0.059677,0.0282662,-0.0665027,-
 0.0079698,-0.0586404,0.0951083,-0.0475761,-0.0263198,-0.056455,0.00283
 08,0.0608535,-0.0457499,-0.044297,-0.062294,0.0989224\Polar=66.637223,
 1.5911352,52.4410658,-0.1389013,2.9798357,50.587265\PG=C01 [X(C4H9O3)]
 \NImag=0\\0.31322299,0.10474892,0.12785874,-0.00669411,-0.14566558,0.5
 3971464,-0.03690570,-0.01033181,-0.01663401,0.06606463,-0.02562281,-0.
 04637876,0.11820750,0.03447501,0.05633736,0.03365895,0.13941657,-0.489
 15515,-0.02760844,-0.13539973,0.48183140,-0.21949930,-0.12494500,0.031
 31052,-0.02761661,-0.00942127,-0.00636016,0.42010599,-0.05945872,-0.09
 814130,0.02305387,-0.02053394,-0.01196058,-0.00122803,0.01598295,0.344
 86054,-0.02732429,0.00166010,-0.05043604,0.03925731,0.01983826,0.00880
 578,-0.00246992,-0.05328187,0.11331375,-0.06152793,0.01964319,-0.00502
 006,-0.00279467,0.00171042,0.00215980,-0.11349454,0.02505132,0.0042059
 3,0.49643127,-0.02289043,0.00997354,0.00651659,-0.00528268,0.00430122,
 -0.00333982,0.07649569,-0.18033462,-0.00390414,0.06588760,0.57632152,0
 .00160687,0.00374236,-0.00546568,0.01025570,-0.00307739,0.00362477,-0.
 00035820,-0.01097494,-0.06634386,0.00625037,0.11098318,0.56663150,0.00
 534349,0.00089137,0.00039210,-0.00037978,0.00001676,-0.00005125,-0.007
 16697,0.03255516,0.01320453,-0.06328506,-0.04855869,-0.03593515,0.0675
 6848,-0.00281758,0.00467218,0.00169778,0.00042431,-0.00045414,0.000211
 44,0.00786808,-0.03523000,-0.01412273,-0.03898776,-0.19243393,-0.13075
 238,0.03513773,0.21734357,0.00005780,0.00105216,-0.00059601,-0.0001208
 5,-0.00044654,-0.00036442,-0.00057004,0.00336007,0.00861162,-0.0280280
 0,-0.12216223,-0.15451988,0.03336374,0.13021520,0.18423690,0.00419273,
 0.00443931,-0.00467940,0.00289405,-0.00042676,0.00018923,-0.00316112,0
 .02129951,-0.02923508,-0.08205922,-0.02279549,0.00157193,0.00421904,0.
 00234880,-0.00966262,0.17843037,-0.00269323,0.00211895,-0.00230693,0.0
 0016266,-0.00155892,-0.00083811,0.01539344,-0.03054375,0.05206051,-0.0
 2798727,-0.11153602,0.01713200,0.00280875,0.01140499,-0.01914533,0.162
 81101,0.38362254,0.00101276,-0.00055344,0.00357992,-0.00337886,0.00022
 509,-0.00412023,-0.02182208,0.04200987,-0.02069301,0.03224549,0.044814
 50,-0.21371087,0.00349007,0.01485195,-0.03900233,0.11923407,0.10089352
 ,0.52454827,-0.00145820,0.00058829,-0.00011006,-0.00098997,-0.00088356
 ,-0.00148060,0.00005581,-0.00140964,0.00135684,0.00301207,0.00355275,0
 .00123600,0.00157504,-0.00082287,0.00282239,-0.09766907,-0.14246796,-0
 .13692213,0.09650420,0.00015997,-0.00070952,-0.00007591,-0.00010954,0.
 00048558,0.00010258,0.00104408,-0.00127399,0.00063373,0.00673823,0.012
 32226,0.01187079,-0.00089265,0.00079512,0.00204257,-0.14684509,-0.2451
 6740,-0.21616128,0.14005634,0.23590793,0.00063903,-0.00031364,-0.00034
 608,-0.00073784,0.00029905,0.00020842,0.00003507,0.00042825,0.00366074
 ,-0.01674986,-0.02921752,-0.04006728,0.00093917,0.00393402,-0.00543636
 ,-0.11585040,-0.17360957,-0.23226651,0.13115656,0.19900415,0.27207162,
 -0.00126251,0.00365680,0.00148635,-0.00060471,0.00027252,-0.00032210,-
 0.04127818,-0.00716234,0.00085259,-0.14148836,-0.03828222,0.01130424,-
 0.00526913,-0.00279456,0.00136118,-0.00050288,-0.00337308,0.00441105,0
 .00032755,-0.00044913,0.00033334,0.47229879,0.01036225,-0.00031573,-0.
 00137826,0.00082170,-0.00057200,0.00103729,0.01848773,0.01199151,-0.00
 250489,-0.03731984,-0.10167831,-0.00170155,-0.02087975,-0.00779800,0.0
 0444596,-0.01484229,-0.00833136,0.01415944,0.00148298,0.00058310,-0.00
 128797,-0.02269967,0.48799249,-0.00402443,0.00090459,0.00123802,-0.000
 38019,0.00038671,-0.00079732,0.00211422,-0.00302435,0.00211844,0.00826
 205,-0.00009973,-0.07441628,-0.01591571,-0.00711247,0.00551118,0.03236
 562,0.02283631,-0.02115144,0.00273549,0.00249991,0.00169769,0.01690531
 ,-0.01580893,0.52864444,0.00085427,0.00029686,-0.00068616,0.00038986,-
 0.00013756,0.00031143,-0.00056680,0.00032820,0.00020369,0.00103633,-0.
 01218455,0.02859160,0.00077243,0.00013882,-0.00072724,-0.00685539,-0.0
 0381704,0.00379886,-0.00010898,-0.00050062,-0.00096032,-0.04350779,0.0
 0844691,-0.01588182,0.05350819,-0.00009715,-0.00008611,-0.00045273,0.0
 0020804,-0.00007866,0.00007048,0.00149314,0.00066528,-0.00046616,0.001
 81018,-0.00590332,0.01538739,0.00050597,0.00002309,-0.00033796,-0.0036
 6766,-0.00113716,0.00247218,-0.00030359,-0.00081660,-0.00039564,0.0045
 8831,-0.08210373,0.08406651,-0.00640908,0.09657858,0.00024848,-0.00027
 490,0.00078121,-0.00034968,-0.00002886,-0.00009616,-0.00105537,-0.0002
 2613,0.00047128,-0.00068600,0.00467298,-0.00902818,0.00042271,0.000032
 13,0.00042575,0.00172736,0.00084583,0.00063914,-0.00046623,-0.00014350
 ,0.00035378,-0.01050509,0.09965527,-0.24587587,0.01483368,-0.09949624,
 0.27218533,-0.00182322,0.00063980,0.00043116,-0.00009019,0.00008599,-0
 .00027835,-0.00393444,-0.00288341,0.00092793,-0.02860504,0.02153393,0.
 00192973,0.00132855,0.00091456,-0.00014187,0.00001406,0.00129539,-0.00
 164608,-0.00044104,-0.00031525,0.00042073,-0.13702764,0.05489823,-0.00
 136198,-0.00308927,0.00261193,0.00028298,0.52569094,-0.00322116,0.0002
 4878,0.00045840,-0.00000335,0.00003459,-0.00028421,-0.00310563,-0.0018
 2821,0.00038657,-0.00363219,0.01282004,-0.00254315,-0.00102062,0.00071
 194,0.00018746,-0.00021755,-0.00027449,0.00155266,-0.00044120,-0.00004
 198,-0.00042473,0.05458381,-0.13426928,0.00349705,0.01285480,-0.011208
 70,-0.00089846,0.05765158,0.52580921,0.00057103,-0.00012577,0.00072813
 ,-0.00015101,-0.00013937,0.00004529,0.00020748,0.00060423,-0.00043606,
 0.00531194,-0.00515439,-0.00019359,-0.00082910,0.00004601,0.00012051,-
 0.00094717,0.00046577,-0.00028618,0.00051041,-0.00061187,-0.00016345,-
 0.00216869,0.00193256,-0.07763067,-0.02256572,0.02063759,0.00215750,0.
 00025458,0.00136694,0.57804321,0.00005256,-0.00012925,-0.00009576,-0.0
 0002767,0.00003044,0.00003424,0.00031851,-0.00031505,-0.00018100,0.001
 06664,0.00152936,0.00146416,-0.00056459,-0.00028521,-0.00024919,-0.000
 22903,-0.00043962,-0.00030066,0.00018994,0.00010463,-0.00014440,0.0037
 4259,0.01667542,0.01845053,0.00103120,-0.00082549,-0.00021639,-0.05661
 665,-0.03278744,-0.03461676,0.05972389,0.00013449,0.00008146,0.0000491
 1,-0.00001833,-0.00002036,-0.00001689,-0.00027492,0.00041684,0.0003720
 4,-0.00126138,-0.00011972,-0.00032814,0.00047729,0.00059768,0.00009888
 ,0.00020538,0.00017234,0.00003099,-0.00004510,-0.00021123,0.00013044,-
 0.00528165,-0.01537426,-0.01600017,-0.00062870,0.00035467,0.00029735,-
 0.03118105,-0.16574874,-0.12671504,0.03196472,0.18041781,0.00009441,0.
 00002326,-0.00004005,0.00000733,-0.00001841,-0.00001221,-0.00001210,0.
 00047603,0.00023717,-0.00048730,-0.00070285,-0.00034685,0.00047336,0.0
 0017347,0.00018443,0.00053633,0.00026941,0.00018056,-0.00039304,0.0000
 8398,0.00011295,0.00026129,0.00171940,0.00064931,0.00044630,0.00015963
 ,0.00059666,-0.03354958,-0.12816375,-0.18459637,0.03745083,0.14065305,
 0.19627687,-0.00083402,0.00017490,0.00023463,0.00001918,0.00000288,-0.
 00013674,-0.00112196,-0.00067949,0.00026247,-0.00060356,0.00481131,-0.
 00098143,0.00025358,0.00013518,-0.00006440,0.00014881,-0.00013339,0.00
 032526,-0.00009472,-0.00007387,-0.00013023,-0.02154953,-0.01031586,0.0
 0457953,0.00063703,-0.00028585,-0.00046255,-0.25324845,-0.10288474,0.0
 4186880,-0.00407183,-0.00160015,0.00094527,0.27633505,0.00105150,-0.00
 004431,-0.00011194,0.00005646,-0.00005462,0.00011803,0.00084639,0.0011
 0266,-0.00015490,0.00192543,-0.00522117,0.00045326,0.00022341,0.000087
 77,0.00020136,-0.00050425,0.00065882,-0.00038289,0.00012661,-0.0000729
 1,0.00002749,0.02348212,0.00962013,-0.00552962,-0.00093547,0.00102469,
 0.00002975,-0.10479105,-0.09687952,0.02102157,-0.01881896,-0.00933069,
 0.00552541,0.11021003,0.10458982,-0.00005090,-0.00007394,0.00006085,-0
 .00005874,0.00001712,-0.00002578,-0.00011629,0.00018836,0.00025022,-0.
 00049021,0.00042077,-0.00070773,0.00020179,0.00023878,0.00008244,0.000
 94403,-0.00053965,0.00059693,-0.00023532,0.00024637,0.00012757,-0.0011
 6594,-0.00043600,-0.00113011,-0.00030611,-0.00046574,0.00008293,0.0418
 2571,0.02084662,-0.05608901,-0.02217273,-0.00973807,0.00476739,-0.0455
 9398,-0.02252478,0.05577490,-0.00005419,-0.00020390,0.00019410,-0.0002
 4773,0.00006733,-0.00007228,0.00041647,-0.00043534,0.00037155,0.000566
 45,0.00119469,-0.00293793,-0.00005764,-0.00016969,0.00016012,0.0003675
 5,-0.00088835,0.00122014,-0.00055648,0.00082685,0.00042557,-0.00228615
 ,0.01256129,-0.02247018,-0.00350410,0.00369461,0.00057322,-0.04755894,
 0.00215734,-0.00667583,-0.00114563,0.00317862,-0.00558449,0.00239368,-
 0.01295713,0.02659844,0.05098796,0.00007599,0.00010141,-0.00015218,0.0
 0010754,-0.00000106,0.00004940,-0.00003350,0.00005754,-0.00011923,-0.0
 0093936,-0.00033577,0.00108775,0.00016374,-0.00000451,-0.00009996,-0.0
 0103999,0.00043925,-0.00082304,0.00061460,-0.00026582,-0.00010290,0.00
 165868,-0.01186959,0.02049596,0.00348260,-0.00253117,-0.00078787,0.002
 99883,-0.10608397,0.10947803,-0.00052552,0.01181377,-0.02047823,0.0014
 8347,-0.00689179,0.01187315,-0.00751629,0.11437415,-0.00005764,-0.0000
 1775,0.00004184,-0.00002940,0.00002066,-0.00000632,-0.00020933,-0.0001
 7998,0.00005296,0.00028172,0.00111482,-0.00098732,-0.00006162,0.000048
 28,-0.00002954,0.00144070,-0.00090490,0.00040871,-0.00000324,-0.000068
 58,-0.00001977,-0.00103856,-0.00113626,0.00183381,0.00055549,-0.000383
 05,0.00106530,-0.00884563,0.11014808,-0.25668004,-0.00002385,0.0115994
 5,-0.01913870,-0.00044950,0.00082363,-0.00376228,0.00834239,-0.1210792
 3,0.27627559,-0.00006323,0.00071966,0.00003796,0.00026548,-0.00014583,
 -0.00000128,-0.00091262,-0.00118626,-0.00089413,-0.00959237,-0.0263386
 0,-0.02412534,-0.00444485,-0.00122482,0.00193039,0.00038445,-0.0004772
 8,-0.00203472,-0.00001582,0.00012546,0.00080005,-0.08876873,-0.0144982
 3,-0.02475792,-0.00047274,-0.00292565,-0.00442989,0.00461492,0.0202310
 8,0.01940802,-0.00405276,0.00461111,-0.00010610,0.00098789,0.00048650,
 0.00078030,0.00055590,-0.00003410,0.00021739,0.60437411,0.00064277,-0.
 00040746,-0.00027933,0.00007843,0.00012613,0.00012017,-0.00000114,-0.0
 0008755,-0.00115421,-0.01507064,-0.01525353,-0.00606878,-0.00032171,0.
 00042955,0.00013216,-0.00026766,-0.00047510,-0.00455492,0.00005725,-0.
 00001700,0.00133564,-0.00430758,-0.13962642,-0.08182675,-0.00014379,0.
 00662881,-0.00235660,-0.00025631,-0.02282037,-0.01994712,0.00256213,-0
 .00248668,0.00000444,-0.00133736,0.00119009,0.00027874,-0.00144231,0.0
 0150404,-0.00035553,-0.09340882,0.39769361,0.00050834,-0.00047248,-0.0
 0010373,-0.00022258,0.00016799,-0.00001944,-0.00025182,-0.00129189,0.0
 0029678,-0.00963122,-0.00215363,-0.00159057,0.00125749,0.00067347,0.00
 042287,0.00258745,0.00247862,0.00120202,-0.00061947,0.00032312,0.00002
 635,-0.01901676,-0.08216375,-0.12168856,-0.00800701,-0.02212116,-0.023
 17771,0.00264158,-0.00485365,-0.00351932,-0.00044995,0.00020890,0.0008
 6539,-0.00105811,0.00065364,0.00030608,-0.00032911,0.00091351,0.000863
 33,0.10392576,0.19822329,0.24603421,-0.00008559,0.00005039,-0.00017076
 ,0.00002516,-0.00008465,0.00001745,-0.00211761,-0.00074450,-0.00046162
 ,0.00124922,0.00031380,0.00079842,0.00004284,0.00018985,-0.00014514,-0
 .00033870,0.00012804,0.00021284,0.00007226,-0.00008980,0.00001337,0.00
 687660,-0.00525222,-0.00232990,0.00029225,-0.00001463,-0.00024880,-0.0
 0002314,-0.00097417,-0.00084496,0.00045405,-0.00033905,-0.00015590,0.0
 0030086,-0.00005341,-0.00021239,-0.00004281,-0.00013968,0.00001575,-0.
 19672440,0.14667470,0.02964765,0.20063871,-0.00010391,0.00065885,0.000
 27037,-0.00008600,-0.00011158,0.00002802,-0.00031382,0.00017497,0.0004
 5617,0.00263840,0.00006461,-0.00076715,-0.00006305,0.00015628,0.000040
 73,-0.00066764,0.00052431,0.00083494,0.00014046,-0.00132940,0.00026138
 ,0.01342674,-0.00819867,0.00060336,0.00010410,-0.00015580,-0.00075429,
 -0.00166900,-0.00202795,-0.00363576,0.00103923,-0.00076711,0.00001464,
 0.00006450,0.00020760,0.00001861,-0.00008752,0.00010516,0.00005559,0.1
 4931393,-0.17964300,-0.05643144,-0.15735464,0.18354700,0.00010374,0.00
 046108,-0.00015720,0.00010525,0.00000661,0.00012527,-0.00075474,0.0000
 4341,-0.00012891,0.00028958,-0.00056020,0.00094464,-0.00007446,0.00003
 483,-0.00003935,-0.00021120,-0.00001355,-0.00052089,0.00016127,0.00049
 541,0.00002552,0.01597063,-0.01289750,0.00105413,-0.00002648,0.0011899
 8,0.00072417,-0.00253176,-0.00220085,-0.00251482,0.00096307,-0.0009589
 3,0.00027400,-0.00001373,0.00010172,-0.00012330,0.00002887,-0.00015831
 ,0.00013590,0.02419085,-0.05049257,-0.03965858,-0.03148712,0.05865050,
 0.03473125,-0.00015215,-0.00023956,0.00000349,-0.00000131,0.00006109,-
 0.00005991,-0.00002662,-0.00040845,-0.00007679,0.00008877,0.00101354,-
 0.00067097,0.00006458,-0.00005485,0.00001375,0.00016435,-0.00032207,0.
 00015397,-0.00040259,0.00022040,-0.00018984,0.00030007,0.00207135,0.00
 170937,-0.00041650,-0.00038309,0.00033155,0.00080955,0.00080945,0.0006
 6699,0.00012878,0.00005872,0.00007339,0.00044797,-0.00034817,0.0000523
 4,0.00016566,-0.00035701,-0.00013469,-0.30613522,-0.03345797,-0.100982
 24,-0.01061972,-0.00638177,-0.00671376,0.31558439,-0.00027090,0.000369
 28,0.00016925,0.00003149,-0.00009422,-0.00004720,0.00048376,0.00013065
 ,0.00030075,-0.00020632,-0.00298679,-0.00444326,-0.00104369,-0.0003015
 9,0.00041548,0.00017036,0.00008299,0.00063042,-0.00024536,-0.00018812,
 -0.00006846,-0.01731877,-0.00004990,-0.00588838,-0.00089548,-0.0012538
 6,-0.00056647,-0.00153416,0.00155865,0.00077662,0.00022061,0.00020423,
 0.00026052,0.00042845,0.00001342,-0.00035033,0.00001982,-0.00041164,0.
 00031476,-0.03524816,-0.04675513,-0.03415453,0.01768996,0.00679471,0.0
 0629836,0.03771838,0.04288733,-0.00035003,0.00023740,0.00015532,0.0000
 4602,-0.00005869,-0.00004388,0.00031277,0.00004309,0.00021914,0.002085
 75,-0.00122832,-0.00382281,-0.00087768,-0.00016978,0.00039218,-0.00001
 085,0.00037608,0.00059591,0.00025113,-0.00024147,0.00001482,-0.0186688
 4,-0.00363481,-0.00005676,0.00041982,0.00013491,-0.00130512,-0.0003591
 7,0.00092501,0.00101486,0.00008785,0.00031701,-0.00001053,0.00067469,-
 0.00025173,-0.00021109,0.00015545,-0.00009684,-0.00005348,-0.09494135,
 -0.03305863,-0.06025914,0.00535109,0.00035432,0.00512817,0.10582333,0.
 03635246,0.05824241\\-0.00001843,0.00000323,-0.00004168,0.00000243,-0.
 00002109,-0.00001327,0.00000768,-0.00000901,0.00000362,-0.00000742,0.0
 0000194,-0.00001064,0.00001013,0.00000919,-0.00002034,-0.00000052,-0.0
 0001861,-0.00002624,0.00000172,-0.00001381,0.00000486,0.00000532,0.000
 00296,0.00001123,0.00000578,0.00001832,0.00001414,0.00000530,0.0000107
 7,-0.00000004,0.00001233,0.00001935,-0.00000748,0.00000465,0.00001451,
 0.00001377,-0.00000114,-0.00000067,-0.00000528,-0.00000491,0.00000180,
 0.00001856,-0.00001143,-0.00001037,0.00002701,-0.00001150,-0.00000853,
 0.00003177\\\@


 EXPERIMENTALISTS THINK SILICON IS REALLY FUN TO USE
     ITS PLACE IN NOVEL COMPOUNDS IS CERTAIN TO AMUSE
 THEY SIT ALL DAY IN LABORATORIES MAKING ALL THIS SLUDGE
     "LOADED WITH THE SILICON THEY SAY", TO ME IT LOOKS LIKE FUDGE.
 FOR HAPPY THOUGH THEY BE WITH CRUD, I'D LIKE TO KNOW A LITTLE
      ABOUT THE PI BONDS ON THE EDGE AND SIGMAS IN THE MIDDLE.

 SO LETS DERIVE A WAVEFUNCTION.....6-31G*
     USE AN OPTIMAL GEOMETRY AND SEE WHERE ELECTRONS ARE.
 BUT WHAT OF CORRELATION?  ASKS THE WIRY LITTLE SKEPTIC.
     WE'LL THROW IN PERTURBATION AS AN ELECTRON ANTISEPTIC.
 AND WHEN THE PROGRAM GIVES US ANSWERS IN THEM WE CAN TRUST
     SINCE NOBODY CAN MAKE THE STUFF, WE HAVE NO CHOICE, WE MUST.

 SO THEORY GUYS HAVE GOT IT MADE, IN ROOMS FREE OF POLLUTION.
     INSTEAD OF PROBLEMS WITH THE REFLUX, THEY HAVE ONLY SOLUTIONS.
 AND WHEN THE FEDS ANNOUNCE THE LIST OF CARCINOGENIC TERRORS,
     THE THEORISTS SIT SAFELY AT THEIR TERMINALS FIXING ERRORS.
 IN OTHER WORDS, EXPERIMENTALISTS WILL LIKELY DIE OF CANCER
     FROM WORKING HARD YET FRUITLESSLY...TILL THEORY GIVES THE ANSWER.
          -- THOMAS A. HOLME, 1983
 Job cpu time:  0 days  1 hours 44 minutes 20.1 seconds.
 File lengths (MBytes):  RWF=    125 Int=      0 D2E=      0 Chk=      8 Scr=      1
 Normal termination of Gaussian 03 at Fri Jul 11 20:11:46 2014.
