 Entering Gaussian System, Link 0=g03
 Input=TS06freq.gjf
 Output=TS06freq.log
 Initial command:
 /opt/g03/l1.exe /scratch/nyee/Gau-8601.inp -scrdir=/scratch/nyee/
 Entering Link 1 = /opt/g03/l1.exe PID=      8603.
  
 Copyright (c) 1988,1990,1992,1993,1995,1998,2003,2004, Gaussian, Inc.
                  All Rights Reserved.
  
 This is the Gaussian(R) 03 program.  It is based on the
 the Gaussian(R) 98 system (copyright 1998, Gaussian, Inc.),
 the Gaussian(R) 94 system (copyright 1995, Gaussian, Inc.),
 the Gaussian 92(TM) system (copyright 1992, Gaussian, Inc.),
 the Gaussian 90(TM) system (copyright 1990, Gaussian, Inc.),
 the Gaussian 88(TM) system (copyright 1988, Gaussian, Inc.),
 the Gaussian 86(TM) system (copyright 1986, Carnegie Mellon
 University), and the Gaussian 82(TM) system (copyright 1983,
 Carnegie Mellon University). Gaussian is a federally registered
 trademark of Gaussian, Inc.
  
 This software contains proprietary and confidential information,
 including trade secrets, belonging to Gaussian, Inc.
  
 This software is provided under written license and may be
 used, copied, transmitted, or stored only in accord with that
 written license.
  
 The following legend is applicable only to US Government
 contracts under FAR:
  
                    RESTRICTED RIGHTS LEGEND
  
 Use, reproduction and disclosure by the US Government is
 subject to restrictions as set forth in subparagraphs (a)
 and (c) of the Commercial Computer Software - Restricted
 Rights clause in FAR 52.227-19.
  
 Gaussian, Inc.
 340 Quinnipiac St., Bldg. 40, Wallingford CT 06492
  
  
 ---------------------------------------------------------------
 Warning -- This program may not be used in any manner that
 competes with the business of Gaussian, Inc. or will provide
 assistance to any competitor of Gaussian, Inc.  The licensee
 of this program is prohibited from giving any competitor of
 Gaussian, Inc. access to this program.  By using this program,
 the user acknowledges that Gaussian, Inc. is engaged in the
 business of creating and licensing software in the field of
 computational chemistry and represents and warrants to the
 licensee that it is not a competitor of Gaussian, Inc. and that
 it will not use this program in any manner prohibited above.
 ---------------------------------------------------------------
  

 Cite this work as:
 Gaussian 03, Revision D.01,
 M. J. Frisch, G. W. Trucks, H. B. Schlegel, G. E. Scuseria, 
 M. A. Robb, J. R. Cheeseman, J. A. Montgomery, Jr., T. Vreven, 
 K. N. Kudin, J. C. Burant, J. M. Millam, S. S. Iyengar, J. Tomasi, 
 V. Barone, B. Mennucci, M. Cossi, G. Scalmani, N. Rega, 
 G. A. Petersson, H. Nakatsuji, M. Hada, M. Ehara, K. Toyota, 
 R. Fukuda, J. Hasegawa, M. Ishida, T. Nakajima, Y. Honda, O. Kitao, 
 H. Nakai, M. Klene, X. Li, J. E. Knox, H. P. Hratchian, J. B. Cross, 
 V. Bakken, C. Adamo, J. Jaramillo, R. Gomperts, R. E. Stratmann, 
 O. Yazyev, A. J. Austin, R. Cammi, C. Pomelli, J. W. Ochterski, 
 P. Y. Ayala, K. Morokuma, G. A. Voth, P. Salvador, J. J. Dannenberg, 
 V. G. Zakrzewski, S. Dapprich, A. D. Daniels, M. C. Strain, 
 O. Farkas, D. K. Malick, A. D. Rabuck, K. Raghavachari, 
 J. B. Foresman, J. V. Ortiz, Q. Cui, A. G. Baboul, S. Clifford, 
 J. Cioslowski, B. B. Stefanov, G. Liu, A. Liashenko, P. Piskorz, 
 I. Komaromi, R. L. Martin, D. J. Fox, T. Keith, M. A. Al-Laham, 
 C. Y. Peng, A. Nanayakkara, M. Challacombe, P. M. W. Gill, 
 B. Johnson, W. Chen, M. W. Wong, C. Gonzalez, and J. A. Pople, 
 Gaussian, Inc., Wallingford CT, 2004.
 
 ******************************************
 Gaussian 03:  AM64L-G03RevD.01 13-Oct-2005
                11-Jul-2014 
 ******************************************
 %chk=TS06_1.chk
 %mem=1000mb
 %nproc=8
 Will use up to    8 processors via shared memory.
 -------------------------------------
 # freq nosymm b3lyp/cbsb7 iop(7/33=1)
 -------------------------------------
 1/10=4,30=1,38=1/1,3;
 2/15=1,17=6,18=5,40=1/2;
 3/5=4,6=6,7=700,11=2,16=1,25=1,30=1,74=-5/1,2,3;
 4//1;
 5/5=2,38=5/2;
 8/6=4,10=90,11=11/1;
 11/6=1,8=1,9=11,15=111,16=1,31=1/1,2,10;
 10/6=1,31=1/2;
 6/7=2,8=2,9=2,10=2,18=1,28=1/1;
 7/8=1,10=1,25=1,30=1,33=1/1,2,3,16;
 1/10=4,30=1/3;
 99//99;
 -------------------
 Title Card Required
 -------------------
 Symbolic Z-matrix:
 Charge =  0 Multiplicity = 2
 C                    -0.3395   -0.81307  -0.12841 
 H                    -0.05285  -0.16278  -0.96803 
 C                    -0.00916  -0.07855   1.175 
 H                     1.04963   0.19039   1.20624 
 H                    -0.60365   0.83196   1.26133 
 H                    -0.22352  -0.70769   2.04298 
 C                     0.40963  -2.14169  -0.28162 
 H                     0.16699  -2.82489   0.5356 
 H                     0.15621  -2.63903  -1.22295 
 H                     1.48993  -1.97659  -0.27524 
 C                    -1.84461  -0.98638  -0.32566 
 H                    -2.10472  -1.66354  -1.15504 
 O                    -2.64562  -0.01068  -0.08353 
 O                    -2.31431  -1.94769   0.98222 
 O                    -3.40423  -2.72178   0.62812 
 H                    -4.10074  -2.38154   1.2113 
 

 GradGradGradGradGradGradGradGradGradGradGradGradGradGradGradGradGradGrad
 Berny optimization.
 Initialization pass.
 Trust Radius=3.00D-01 FncErr=1.00D-07 GrdErr=1.00D-07
 Number of steps in this run=   2 maximum allowed number of steps=   2.
 GradGradGradGradGradGradGradGradGradGradGradGradGradGradGradGradGradGrad

                          Input orientation:                          
 ---------------------------------------------------------------------
 Center     Atomic     Atomic              Coordinates (Angstroms)
 Number     Number      Type              X           Y           Z
 ---------------------------------------------------------------------
    1          6             0       -0.339499   -0.813072   -0.128409
    2          1             0       -0.052845   -0.162784   -0.968028
    3          6             0       -0.009155   -0.078552    1.174996
    4          1             0        1.049625    0.190390    1.206235
    5          1             0       -0.603645    0.831961    1.261326
    6          1             0       -0.223519   -0.707691    2.042980
    7          6             0        0.409633   -2.141694   -0.281623
    8          1             0        0.166987   -2.824889    0.535595
    9          1             0        0.156214   -2.639031   -1.222951
   10          1             0        1.489934   -1.976594   -0.275237
   11          6             0       -1.844606   -0.986376   -0.325664
   12          1             0       -2.104716   -1.663544   -1.155041
   13          8             0       -2.645624   -0.010678   -0.083529
   14          8             0       -2.314305   -1.947687    0.982222
   15          8             0       -3.404230   -2.721779    0.628119
   16          1             0       -4.100744   -2.381541    1.211295
 ---------------------------------------------------------------------
                    Distance matrix (angstroms):
                    1          2          3          4          5
     1  C    0.000000
     2  H    1.100002   0.000000
     3  C    1.532159   2.145124   0.000000
     4  H    2.172067   2.463248   1.092850   0.000000
     5  H    2.169624   2.502582   1.090828   1.774246   0.000000
     6  H    2.177036   3.064673   1.093236   1.768499   1.768052
     7  C    1.532942   2.145023   2.560015   2.839353   3.500007
     8  H    2.178265   3.065291   2.825283   3.212587   3.806982
     9  H    2.185836   2.498097   3.511915   3.834677   4.335528
    10  H    2.173055   2.479926   2.820108   2.661663   3.825190
    11  C    1.527839   2.073968   2.538701   3.479665   2.713830
    12  H    2.212073   2.549006   3.511787   4.354602   3.784123
    13  O    2.442143   2.743716   2.922236   3.919029   2.586185
    14  O    2.533912   3.479016   2.973978   3.992190   3.275775
    15  O    3.688912   4.508650   4.337310   5.352735   4.568730
    16  H    4.289740   5.104686   4.695336   5.756836   4.749610
                    6          7          8          9         10
     6  H    0.000000
     7  C    2.803752   0.000000
     8  H    2.628161   1.092464   0.000000
     9  H    3.813211   1.094378   1.768373   0.000000
    10  H    3.149630   1.092863   1.768401   1.765161   0.000000
    11  C    2.883758   2.533435   2.858042   2.745847   3.478826
    12  H    3.831435   2.704337   3.060655   2.463329   3.713969
    13  O    3.297645   3.730290   4.026646   4.007096   4.583058
    14  O    2.652204   3.009116   2.669414   3.382929   4.006778
    15  O    4.021853   3.963544   3.573903   4.013735   5.032315
    16  H    4.304224   4.757082   4.343576   4.910555   5.799090
                   11         12         13         14         15
    11  C    0.000000
    12  H    1.101853   0.000000
    13  O    1.285397   2.042715   0.000000
    14  O    1.689764   2.166231   2.235532   0.000000
    15  O    2.520665   2.447092   2.903790   1.382948   0.000000
    16  H    3.065760   3.177923   3.068377   1.852584   0.970045
                   16
    16  H    0.000000
 Symmetry turned off by external request.
 Stoichiometry    C4H9O3(2)
 Framework group  C1[X(C4H9O3)]
 Deg. of freedom    42
 Full point group                 C1
 Rotational constants (GHZ):      3.6474258      1.8813094      1.5686924
 Standard basis: CBSB7 (5D, 7F)
 Integral buffers will be    131072 words long.
 Raffenetti 2 integral format.
 Two-electron integral symmetry is turned off.
   180 basis functions,   296 primitive gaussians,   187 cartesian basis functions
    29 alpha electrons       28 beta electrons
       nuclear repulsion energy       328.4467322411 Hartrees.
 NAtoms=   16 NActive=   16 NUniq=   16 SFac= 7.50D-01 NAtFMM=   80 NAOKFM=F Big=F
 One-electron integrals computed using PRISM.
 NBasis=   180 RedAO= T  NBF=   180
 NBsUse=   180 1.00D-06 NBFU=   180
 Harris functional with IExCor=  402 diagonalized for initial guess.
 ExpMin= 1.03D-01 ExpMax= 8.59D+03 ExpMxC= 1.30D+03 IAcc=1 IRadAn=         1 AccDes= 1.00D-06
 HarFok:  IExCor= 402 AccDes= 1.00D-06 IRadAn=         1 IDoV=1
 ScaDFX=  1.000000  1.000000  1.000000  1.000000
 <S**2> of initial guess= 0.7500
 Requested convergence on RMS density matrix=1.00D-08 within 128 cycles.
 Requested convergence on MAX density matrix=1.00D-06.
 Requested convergence on             energy=1.00D-06.
 No special actions if energy rises.
 Integral accuracy reduced to 1.0D-05 until final iterations.
 EnCoef did     2 forward-backward iterations
 Initial convergence to 1.0D-05 achieved.  Increase integral accuracy.
 SCF Done:  E(UB+HF-LYP) =  -383.451298749     A.U. after   25 cycles
             Convg  =    0.6116D-08             -V/T =  2.0033
             S**2   =   0.7676
 Annihilation of the first spin contaminant:
 S**2 before annihilation     0.7676,   after     0.7501
 Range of M.O.s used for correlation:     1   180
 NBasis=   180 NAE=    29 NBE=    28 NFC=     0 NFV=     0
 NROrb=    180 NOA=    29 NOB=    28 NVA=   151 NVB=   152

 **** Warning!!: The smallest beta delta epsilon is  0.95412127D-01

 Symmetrizing basis deriv contribution to polar:
 IMax=3 JMax=2 DiffMx= 0.00D+00
 G2DrvN: will do   17 centers at a time, making    1 passes doing MaxLOS=2.
 FoFDir/FoFCou used for L=0 through L=2.
 DoAtom=TTTTTTTTTTTTTTTT
          Differentiating once with respect to electric field.
                with respect to dipole field.
          Differentiating once with respect to nuclear coordinates.
 Symmetry not used in FoFDir.
 MinBra= 0 MaxBra= 2 Meth= 1.
 IRaf=       0 NMat=  51 IRICut=      51 DoRegI=T DoRafI=T ISym2E= 0 JSym2E=0.
          There are  51 degrees of freedom in the 1st order CPHF.
    48 vectors were produced by pass  0.
 AX will form  48 AO Fock derivatives at one time.
    48 vectors were produced by pass  1.
    48 vectors were produced by pass  2.
    48 vectors were produced by pass  3.
    48 vectors were produced by pass  4.
    48 vectors were produced by pass  5.
    29 vectors were produced by pass  6.
     3 vectors were produced by pass  7.
     3 vectors were produced by pass  8.
 Inv2:  IOpt= 1 Iter= 1 AM= 7.23D-15 Conv= 1.00D-12.
 Inverted reduced A of dimension  323 with in-core refinement.
 Isotropic polarizability for W=    0.000000       65.36 Bohr**3.
 End of Minotr Frequency-dependent properties file   721 does not exist.

 **********************************************************************

            Population analysis using the SCF density.

 **********************************************************************

 Alpha  occ. eigenvalues --  -19.23273 -19.22170 -19.12723 -10.27230 -10.18456
 Alpha  occ. eigenvalues --  -10.16435 -10.15725  -1.18390  -1.04119  -0.90358
 Alpha  occ. eigenvalues --   -0.80336  -0.69106  -0.65548  -0.58187  -0.56706
 Alpha  occ. eigenvalues --   -0.49898  -0.49652  -0.46386  -0.45088  -0.44446
 Alpha  occ. eigenvalues --   -0.40073  -0.38903  -0.37510  -0.37066  -0.34779
 Alpha  occ. eigenvalues --   -0.34211  -0.32879  -0.29752  -0.26566
 Alpha virt. eigenvalues --    0.00172   0.03113   0.05100   0.06906   0.08273
 Alpha virt. eigenvalues --    0.08530   0.10474   0.11226   0.12804   0.14785
 Alpha virt. eigenvalues --    0.15108   0.20149   0.22693   0.23992   0.25510
 Alpha virt. eigenvalues --    0.28346   0.30679   0.33448   0.36471   0.38142
 Alpha virt. eigenvalues --    0.41337   0.41612   0.44552   0.49363   0.52246
 Alpha virt. eigenvalues --    0.54500   0.56422   0.56964   0.57246   0.58233
 Alpha virt. eigenvalues --    0.58640   0.59940   0.60700   0.62293   0.64028
 Alpha virt. eigenvalues --    0.66001   0.69516   0.71365   0.73702   0.77735
 Alpha virt. eigenvalues --    0.80985   0.84699   0.86155   0.90955   0.91814
 Alpha virt. eigenvalues --    0.97377   0.97993   0.98403   1.00844   1.04111
 Alpha virt. eigenvalues --    1.09366   1.18358   1.21447   1.24084   1.32650
 Alpha virt. eigenvalues --    1.34473   1.36741   1.39023   1.41146   1.45160
 Alpha virt. eigenvalues --    1.46103   1.46834   1.49493   1.49865   1.50813
 Alpha virt. eigenvalues --    1.51157   1.52072   1.53670   1.59073   1.59303
 Alpha virt. eigenvalues --    1.64248   1.65153   1.68817   1.72980   1.73905
 Alpha virt. eigenvalues --    1.78510   1.79322   1.80802   1.86299   1.89764
 Alpha virt. eigenvalues --    1.91111   1.96495   2.01993   2.04958   2.08774
 Alpha virt. eigenvalues --    2.10392   2.12982   2.22570   2.28218   2.29800
 Alpha virt. eigenvalues --    2.35036   2.37103   2.39277   2.40618   2.43596
 Alpha virt. eigenvalues --    2.45811   2.49012   2.49813   2.50774   2.52747
 Alpha virt. eigenvalues --    2.53696   2.57993   2.59005   2.61123   2.61697
 Alpha virt. eigenvalues --    2.63485   2.66557   2.72106   2.73105   2.78241
 Alpha virt. eigenvalues --    2.80603   2.86064   2.88109   2.90602   2.96249
 Alpha virt. eigenvalues --    3.00126   3.04448   3.09233   3.17934   3.19532
 Alpha virt. eigenvalues --    3.26450   3.31000   3.37226   3.47704   3.57121
 Alpha virt. eigenvalues --    3.63185   3.76167   3.78187   3.78236   3.81500
 Alpha virt. eigenvalues --    3.83003   3.85531   3.92435   4.25675   4.29944
 Alpha virt. eigenvalues --    4.64081   4.70773   4.81796   4.84023   4.95200
 Alpha virt. eigenvalues --    4.98056   5.30049   5.54749   5.74920  23.73214
 Alpha virt. eigenvalues --   23.81903  23.92417  23.94022  49.71302  49.72634
 Alpha virt. eigenvalues --   49.92667
  Beta  occ. eigenvalues --  -19.21895 -19.21822 -19.11282 -10.27440 -10.18451
  Beta  occ. eigenvalues --  -10.16432 -10.15727  -1.16709  -1.01446  -0.87896
  Beta  occ. eigenvalues --   -0.80167  -0.69101  -0.65116  -0.57190  -0.56221
  Beta  occ. eigenvalues --   -0.49377  -0.47151  -0.44887  -0.44541  -0.43245
  Beta  occ. eigenvalues --   -0.39713  -0.38775  -0.36936  -0.35590  -0.34592
  Beta  occ. eigenvalues --   -0.32223  -0.30207  -0.25398
  Beta virt. eigenvalues --   -0.15856   0.00974   0.03585   0.05724   0.07515
  Beta virt. eigenvalues --    0.08440   0.08605   0.10639   0.11245   0.12884
  Beta virt. eigenvalues --    0.14800   0.15122   0.20201   0.22934   0.24043
  Beta virt. eigenvalues --    0.25772   0.28358   0.30791   0.33512   0.36565
  Beta virt. eigenvalues --    0.38244   0.41368   0.41713   0.44586   0.49708
  Beta virt. eigenvalues --    0.52208   0.54581   0.56482   0.57011   0.57312
  Beta virt. eigenvalues --    0.58302   0.58709   0.60090   0.60754   0.62344
  Beta virt. eigenvalues --    0.64076   0.66260   0.69536   0.71775   0.74914
  Beta virt. eigenvalues --    0.78484   0.81602   0.85995   0.87559   0.91232
  Beta virt. eigenvalues --    0.93823   0.97799   0.98217   0.98857   1.01447
  Beta virt. eigenvalues --    1.04217   1.09622   1.18488   1.21664   1.24168
  Beta virt. eigenvalues --    1.32960   1.34658   1.36964   1.39508   1.41215
  Beta virt. eigenvalues --    1.45244   1.46238   1.46892   1.49646   1.50519
  Beta virt. eigenvalues --    1.50838   1.51200   1.52161   1.53735   1.59130
  Beta virt. eigenvalues --    1.59463   1.64359   1.65243   1.68927   1.72959
  Beta virt. eigenvalues --    1.74042   1.78784   1.79393   1.80848   1.86431
  Beta virt. eigenvalues --    1.89884   1.91300   1.96505   2.02018   2.05082
  Beta virt. eigenvalues --    2.08790   2.10454   2.13182   2.22649   2.28326
  Beta virt. eigenvalues --    2.29903   2.35106   2.37225   2.39445   2.41263
  Beta virt. eigenvalues --    2.43788   2.45910   2.49313   2.49898   2.51049
  Beta virt. eigenvalues --    2.52925   2.54378   2.58316   2.59946   2.61380
  Beta virt. eigenvalues --    2.62301   2.63918   2.67071   2.72397   2.73635
  Beta virt. eigenvalues --    2.79756   2.81990   2.87304   2.91237   2.92913
  Beta virt. eigenvalues --    2.97630   3.00309   3.05280   3.09676   3.20359
  Beta virt. eigenvalues --    3.22083   3.27540   3.32570   3.37857   3.48099
  Beta virt. eigenvalues --    3.58637   3.64367   3.76507   3.78229   3.78535
  Beta virt. eigenvalues --    3.81529   3.83135   3.86208   3.92696   4.25765
  Beta virt. eigenvalues --    4.29955   4.64816   4.72776   4.83297   4.89582
  Beta virt. eigenvalues --    4.97130   5.02245   5.30496   5.55893   5.75737
  Beta virt. eigenvalues --   23.72991  23.81907  23.92412  23.94019  49.71670
  Beta virt. eigenvalues --   49.73996  49.94109
          Condensed to atoms (all electrons):
              1          2          3          4          5          6
     1  C    5.350444   0.402852   0.309338  -0.032615  -0.040960  -0.037691
     2  H    0.402852   0.584404  -0.035637  -0.008727  -0.003443   0.007864
     3  C    0.309338  -0.035637   4.895631   0.404373   0.400173   0.408206
     4  H   -0.032615  -0.008727   0.404373   0.583139  -0.026378  -0.030144
     5  H   -0.040960  -0.003443   0.400173  -0.026378   0.551244  -0.026499
     6  H   -0.037691   0.007864   0.408206  -0.030144  -0.026499   0.571352
     7  C    0.295038  -0.034042  -0.061769  -0.004557   0.009123  -0.005709
     8  H   -0.038387   0.008484  -0.005330  -0.000781  -0.000083   0.004735
     9  H   -0.036444  -0.004407   0.008267  -0.000102  -0.000390  -0.000014
    10  H   -0.025789  -0.007563  -0.004893   0.003263  -0.000250  -0.000679
    11  C    0.281101  -0.041493  -0.045962   0.007921  -0.008329  -0.008664
    12  H   -0.089717  -0.003206   0.009779  -0.000331   0.001705   0.000309
    13  O   -0.081224   0.001285   0.000493  -0.000194   0.020331   0.000101
    14  O   -0.032470   0.003315  -0.006776  -0.000084   0.000188   0.006075
    15  O    0.004616  -0.000192   0.000048   0.000005  -0.000058  -0.000147
    16  H   -0.000031   0.000035  -0.000058  -0.000002  -0.000013   0.000039
              7          8          9         10         11         12
     1  C    0.295038  -0.038387  -0.036444  -0.025789   0.281101  -0.089717
     2  H   -0.034042   0.008484  -0.004407  -0.007563  -0.041493  -0.003206
     3  C   -0.061769  -0.005330   0.008267  -0.004893  -0.045962   0.009779
     4  H   -0.004557  -0.000781  -0.000102   0.003263   0.007921  -0.000331
     5  H    0.009123  -0.000083  -0.000390  -0.000250  -0.008329   0.001705
     6  H   -0.005709   0.004735  -0.000014  -0.000679  -0.008664   0.000309
     7  C    4.914588   0.406540   0.398710   0.398779  -0.051156   0.001970
     8  H    0.406540   0.563894  -0.028405  -0.028754  -0.007863  -0.000509
     9  H    0.398710  -0.028405   0.585374  -0.028660  -0.003077   0.006599
    10  H    0.398779  -0.028754  -0.028660   0.578503   0.006010  -0.000669
    11  C   -0.051156  -0.007863  -0.003077   0.006010   4.741367   0.403685
    12  H    0.001970  -0.000509   0.006599  -0.000669   0.403685   0.617625
    13  O    0.004666   0.000187   0.000062  -0.000228   0.444950  -0.040813
    14  O    0.004256   0.008133  -0.000425   0.000085   0.067790  -0.027898
    15  O   -0.000166  -0.000430  -0.000074   0.000005  -0.039429   0.007795
    16  H   -0.000067   0.000121  -0.000005   0.000002   0.001279  -0.000905
             13         14         15         16
     1  C   -0.081224  -0.032470   0.004616  -0.000031
     2  H    0.001285   0.003315  -0.000192   0.000035
     3  C    0.000493  -0.006776   0.000048  -0.000058
     4  H   -0.000194  -0.000084   0.000005  -0.000002
     5  H    0.020331   0.000188  -0.000058  -0.000013
     6  H    0.000101   0.006075  -0.000147   0.000039
     7  C    0.004666   0.004256  -0.000166  -0.000067
     8  H    0.000187   0.008133  -0.000430   0.000121
     9  H    0.000062  -0.000425  -0.000074  -0.000005
    10  H   -0.000228   0.000085   0.000005   0.000002
    11  C    0.444950   0.067790  -0.039429   0.001279
    12  H   -0.040813  -0.027898   0.007795  -0.000905
    13  O    7.987506  -0.032755   0.000266   0.002149
    14  O   -0.032755   8.172108   0.057520  -0.033194
    15  O    0.000266   0.057520   7.865272   0.291024
    16  H    0.002149  -0.033194   0.291024   0.449691
 Mulliken atomic charges:
              1
     1  C   -0.228061
     2  H    0.130472
     3  C   -0.275883
     4  H    0.105212
     5  H    0.123638
     6  H    0.110868
     7  C   -0.276204
     8  H    0.118448
     9  H    0.102992
    10  H    0.110837
    11  C    0.251872
    12  H    0.114582
    13  O   -0.306784
    14  O   -0.185867
    15  O   -0.186057
    16  H    0.289936
 Sum of Mulliken charges=   0.00000
 Atomic charges with hydrogens summed into heavy atoms:
              1
     1  C   -0.097589
     2  H    0.000000
     3  C    0.063834
     4  H    0.000000
     5  H    0.000000
     6  H    0.000000
     7  C    0.056072
     8  H    0.000000
     9  H    0.000000
    10  H    0.000000
    11  C    0.366454
    12  H    0.000000
    13  O   -0.306784
    14  O   -0.185867
    15  O    0.103880
    16  H    0.000000
 Sum of Mulliken charges=   0.00000
          Atomic-Atomic Spin Densities.
              1          2          3          4          5          6
     1  C   -0.021392  -0.001719   0.003102  -0.000191   0.000930  -0.000406
     2  H   -0.001719  -0.003496  -0.000130  -0.000219   0.000126  -0.000090
     3  C    0.003102  -0.000130  -0.004041   0.000149   0.000656   0.000283
     4  H   -0.000191  -0.000219   0.000149   0.000889  -0.000229   0.000134
     5  H    0.000930   0.000126   0.000656  -0.000229  -0.000649  -0.000069
     6  H   -0.000406  -0.000090   0.000283   0.000134  -0.000069   0.000051
     7  C    0.004233   0.001378  -0.000309  -0.000153  -0.000104  -0.000209
     8  H   -0.000064  -0.000125   0.000321   0.000063  -0.000016   0.000094
     9  H    0.000021  -0.000003  -0.000055  -0.000002  -0.000007   0.000003
    10  H   -0.000052  -0.000239   0.000165   0.000150  -0.000005   0.000076
    11  C    0.020424   0.000699  -0.001859   0.000013  -0.000299   0.000319
    12  H    0.003859  -0.000477   0.000018   0.000012  -0.000137   0.000064
    13  O   -0.000218   0.000884   0.000190   0.000002  -0.001327   0.000379
    14  O   -0.002832   0.000342   0.000230  -0.000011   0.000204  -0.000380
    15  O   -0.000026  -0.000025   0.000011   0.000001  -0.000008   0.000009
    16  H   -0.000020  -0.000006   0.000008   0.000001  -0.000002   0.000016
              7          8          9         10         11         12
     1  C    0.004233  -0.000064   0.000021  -0.000052   0.020424   0.003859
     2  H    0.001378  -0.000125  -0.000003  -0.000239   0.000699  -0.000477
     3  C   -0.000309   0.000321  -0.000055   0.000165  -0.001859   0.000018
     4  H   -0.000153   0.000063  -0.000002   0.000150   0.000013   0.000012
     5  H   -0.000104  -0.000016  -0.000007  -0.000005  -0.000299  -0.000137
     6  H   -0.000209   0.000094   0.000003   0.000076   0.000319   0.000064
     7  C    0.000795  -0.001102   0.000208  -0.001212  -0.001660  -0.001474
     8  H   -0.001102  -0.000163   0.000071   0.000426   0.000446   0.000320
     9  H    0.000208   0.000071  -0.000211   0.000088  -0.000094  -0.000113
    10  H   -0.001212   0.000426   0.000088   0.002069   0.000179   0.000106
    11  C   -0.001660   0.000446  -0.000094   0.000179  -0.132616   0.002142
    12  H   -0.001474   0.000320  -0.000113   0.000106   0.002142   0.013807
    13  O   -0.000323   0.000076  -0.000003   0.000005  -0.008046   0.000363
    14  O   -0.000803  -0.000230   0.000097  -0.000012  -0.000855  -0.006608
    15  O   -0.000003  -0.000082  -0.000003   0.000001   0.003384   0.002509
    16  H   -0.000018   0.000013   0.000001   0.000001   0.000694   0.000341
             13         14         15         16
     1  C   -0.000218  -0.002832  -0.000026  -0.000020
     2  H    0.000884   0.000342  -0.000025  -0.000006
     3  C    0.000190   0.000230   0.000011   0.000008
     4  H    0.000002  -0.000011   0.000001   0.000001
     5  H   -0.001327   0.000204  -0.000008  -0.000002
     6  H    0.000379  -0.000380   0.000009   0.000016
     7  C   -0.000323  -0.000803  -0.000003  -0.000018
     8  H    0.000076  -0.000230  -0.000082   0.000013
     9  H   -0.000003   0.000097  -0.000003   0.000001
    10  H    0.000005  -0.000012   0.000001   0.000001
    11  C   -0.008046  -0.000855   0.003384   0.000694
    12  H    0.000363  -0.006608   0.002509   0.000341
    13  O    0.598146  -0.050716   0.006032   0.001089
    14  O   -0.050716   0.567306  -0.059694  -0.001927
    15  O    0.006032  -0.059694   0.159458  -0.000186
    16  H    0.001089  -0.001927  -0.000186  -0.001901
 Mulliken atomic spin densities:
              1
     1  C    0.005647
     2  H   -0.003098
     3  C   -0.001259
     4  H    0.000610
     5  H   -0.000936
     6  H    0.000275
     7  C   -0.000755
     8  H    0.000049
     9  H   -0.000002
    10  H    0.001744
    11  C   -0.117131
    12  H    0.014734
    13  O    0.546533
    14  O    0.444110
    15  O    0.111377
    16  H   -0.001898
 Sum of Mulliken spin densities=   1.00000
 APT atomic charges:
              1
     1  C    0.059004
     2  H   -0.039031
     3  C    0.024055
     4  H   -0.018459
     5  H    0.017881
     6  H   -0.000809
     7  C    0.026390
     8  H    0.007164
     9  H   -0.021156
    10  H   -0.010877
    11  C    0.314064
    12  H   -0.036874
    13  O   -0.385807
    14  O    0.195125
    15  O   -0.438005
    16  H    0.307334
 Sum of APT charges=   0.00000
 APT Atomic charges with hydrogens summed into heavy atoms:
              1
     1  C    0.019974
     2  H    0.000000
     3  C    0.022668
     4  H    0.000000
     5  H    0.000000
     6  H    0.000000
     7  C    0.001522
     8  H    0.000000
     9  H    0.000000
    10  H    0.000000
    11  C    0.277190
    12  H    0.000000
    13  O   -0.385807
    14  O    0.195125
    15  O   -0.130671
    16  H    0.000000
 Sum of APT charges=   0.00000
 Electronic spatial extent (au):  <R**2>=  1617.7988
 Charge=     0.0000 electrons
 Dipole moment (field-independent basis, Debye):
    X=     0.1247    Y=    -1.1919    Z=     0.2167  Tot=     1.2178
 Quadrupole moment (field-independent basis, Debye-Ang):
   XX=   -37.9439   YY=   -43.8455   ZZ=   -40.9913
   XY=     5.7019   XZ=    -4.3269   YZ=    -1.3950
 Traceless Quadrupole moment (field-independent basis, Debye-Ang):
   XX=     2.9830   YY=    -2.9186   ZZ=    -0.0643
   XY=     5.7019   XZ=    -4.3269   YZ=    -1.3950
 Octapole moment (field-independent basis, Debye-Ang**2):
  XXX=   124.0800  YYY=   169.4646  ZZZ=   -35.7205  XYY=    50.4975
  XXY=    23.5670  XXZ=    13.2711  XZZ=    45.9439  YZZ=    48.5257
  YYZ=    -8.8379  XYZ=    10.5336
 Hexadecapole moment (field-independent basis, Debye-Ang**3):
 XXXX=  -743.6959 YYYY=  -754.4420 ZZZZ=  -187.5099 XXXY=   -94.6996
 XXXZ=   -63.9114 YYYX=  -258.5706 YYYZ=    30.2382 ZZZX=    51.2389
 ZZZY=    31.6235 XXYY=  -241.9030 XXZZ=  -159.7094 YYZZ=  -138.6379
 XXYZ=   -45.7828 YYXZ=    -3.4309 ZZXY=   -62.1086
 N-N= 3.284467322411D+02 E-N=-1.556503688536D+03  KE= 3.821893758198D+02
  Exact polarizability:  67.719   8.009  71.815  -3.237  -4.402  56.556
 Approx polarizability:  86.449   7.587 118.574  -2.840 -15.787  82.501
                          Isotropic Fermi Contact Couplings
        Atom                 a.u.       MegaHertz       Gauss      10(-4) cm-1
     1  C(13)             -0.00034      -0.38343      -0.13682      -0.12790
     2  H(1)              -0.00214      -9.55047      -3.40784      -3.18569
     3  C(13)             -0.00108      -1.20961      -0.43162      -0.40348
     4  H(1)               0.00026       1.15659       0.41270       0.38580
     5  H(1)               0.00007       0.29773       0.10624       0.09931
     6  H(1)               0.00007       0.29732       0.10609       0.09917
     7  C(13)              0.00187       2.10421       0.75083       0.70189
     8  H(1)               0.00001       0.02323       0.00829       0.00775
     9  H(1)               0.00006       0.26507       0.09458       0.08842
    10  H(1)               0.00064       2.88158       1.02822       0.96119
    11  C(13)             -0.03265     -36.70977     -13.09896     -12.24506
    12  H(1)               0.00546      24.40953       8.70993       8.14214
    13  O(17)              0.03422     -20.74259      -7.40147      -6.91898
    14  O(17)              0.00367      -2.22185      -0.79281      -0.74113
    15  O(17)              0.01923     -11.65587      -4.15911      -3.88798
    16  H(1)              -0.00160      -7.16817      -2.55778      -2.39104
 --------------------------------------------------------
       Center         ----  Spin Dipole Couplings  ----
                      3XX-RR        3YY-RR        3ZZ-RR
 --------------------------------------------------------
     1   Atom        0.012699     -0.004821     -0.007878
     2   Atom        0.005838     -0.003267     -0.002571
     3   Atom        0.006369     -0.001907     -0.004462
     4   Atom        0.002944     -0.001130     -0.001815
     5   Atom        0.003410     -0.000946     -0.002464
     6   Atom        0.004169     -0.002254     -0.001915
     7   Atom        0.006928     -0.004614     -0.002314
     8   Atom        0.006086     -0.002208     -0.003877
     9   Atom        0.001548     -0.001486     -0.000062
    10   Atom        0.002713     -0.001371     -0.001342
    11   Atom        0.040455      0.015025     -0.055480
    12   Atom       -0.005462      0.000350      0.005111
    13   Atom       -0.990631     -0.196237      1.186869
    14   Atom       -0.722647      0.918062     -0.195415
    15   Atom       -0.307195      0.313506     -0.006311
    16   Atom        0.015782     -0.010277     -0.005505
 --------------------------------------------------------
                        XY            XZ            YZ
 --------------------------------------------------------
     1   Atom       -0.003791     -0.000561     -0.001622
     2   Atom        0.000250     -0.004414     -0.000709
     3   Atom        0.003324      0.002263     -0.000870
     4   Atom        0.001393      0.001063      0.000023
     5   Atom        0.005405      0.005038      0.001745
     6   Atom        0.002958      0.005475      0.000943
     7   Atom       -0.001557     -0.003987      0.000697
     8   Atom       -0.003897     -0.001732      0.000019
     9   Atom       -0.001812     -0.002967      0.001101
    10   Atom       -0.000516     -0.000984      0.000042
    11   Atom       -0.050153      0.017157      0.068361
    12   Atom       -0.005913     -0.007514      0.001800
    13   Atom        0.331487     -0.513808     -1.450626
    14   Atom       -0.850420      0.607739     -1.354881
    15   Atom       -0.160174      0.070274     -0.455512
    16   Atom       -0.002583     -0.020947     -0.001306
 --------------------------------------------------------


 ---------------------------------------------------------------------------------
              Anisotropic Spin Dipole Couplings in Principal Axis System
 ---------------------------------------------------------------------------------

       Atom             a.u.   MegaHertz   Gauss  10(-4) cm-1        Axes

              Baa    -0.0088    -1.180    -0.421    -0.393  0.1042  0.4599  0.8818
     1 C(13)  Bbb    -0.0047    -0.630    -0.225    -0.210  0.1732  0.8647 -0.4715
              Bcc     0.0135     1.810     0.646     0.604  0.9794 -0.2019 -0.0104
 
              Baa    -0.0047    -2.498    -0.891    -0.833  0.3522  0.3686  0.8603
     2 H(1)   Bbb    -0.0031    -1.638    -0.585    -0.547 -0.1855  0.9284 -0.3219
              Bcc     0.0078     4.137     1.476     1.380  0.9173  0.0462 -0.3954
 
              Baa    -0.0057    -0.761    -0.272    -0.254 -0.2827  0.4459  0.8493
     3 C(13)  Bbb    -0.0021    -0.288    -0.103    -0.096 -0.1936  0.8406 -0.5058
              Bcc     0.0078     1.050     0.374     0.350  0.9395  0.3074  0.1513
 
              Baa    -0.0021    -1.146    -0.409    -0.382 -0.2857  0.3701  0.8840
     4 H(1)   Bbb    -0.0014    -0.758    -0.271    -0.253 -0.1782  0.8858 -0.4285
              Bcc     0.0036     1.905     0.680     0.635  0.9416  0.2800  0.1871
 
              Baa    -0.0059    -3.162    -1.128    -1.055 -0.6080  0.4248  0.6708
     5 H(1)   Bbb    -0.0034    -1.819    -0.649    -0.607 -0.1495  0.7685 -0.6221
              Bcc     0.0093     4.981     1.777     1.661  0.7798  0.4785  0.4037
 
              Baa    -0.0053    -2.847    -1.016    -0.950 -0.5430  0.2788  0.7921
     6 H(1)   Bbb    -0.0029    -1.563    -0.558    -0.521 -0.0874  0.9194 -0.3835
              Bcc     0.0083     4.410     1.573     1.471  0.8352  0.2775  0.4749
 
              Baa    -0.0048    -0.650    -0.232    -0.217  0.0826  0.9865 -0.1415
     7 C(13)  Bbb    -0.0038    -0.508    -0.181    -0.169  0.3600  0.1028  0.9273
              Bcc     0.0086     1.158     0.413     0.386  0.9293 -0.1275 -0.3467
 
              Baa    -0.0046    -2.436    -0.869    -0.812  0.3197  0.5223  0.7906
     8 H(1)   Bbb    -0.0033    -1.755    -0.626    -0.585  0.2115  0.7740 -0.5969
              Bcc     0.0079     4.190     1.495     1.398  0.9236 -0.3580 -0.1370
 
              Baa    -0.0025    -1.333    -0.476    -0.445  0.6342  0.5811  0.5099
     9 H(1)   Bbb    -0.0021    -1.097    -0.391    -0.366 -0.1601  0.7440 -0.6487
              Bcc     0.0046     2.430     0.867     0.810  0.7564 -0.3298 -0.5649
 
              Baa    -0.0016    -0.854    -0.305    -0.285  0.2490  0.3971  0.8834
    10 H(1)   Bbb    -0.0014    -0.746    -0.266    -0.249  0.0153  0.9103 -0.4136
              Bcc     0.0030     1.600     0.571     0.534  0.9684 -0.1165 -0.2206
 
              Baa    -0.1088   -14.601    -5.210    -4.870 -0.2748 -0.5476  0.7903
    11 C(13)  Bbb     0.0216     2.905     1.036     0.969  0.6979  0.4518  0.5557
              Bcc     0.0872    11.697     4.174     3.902 -0.6614  0.7043  0.2580
 
              Baa    -0.0112    -5.976    -2.132    -1.993  0.8545  0.3826  0.3514
    12 H(1)   Bbb     0.0002     0.133     0.048     0.044 -0.1498  0.8292 -0.5386
              Bcc     0.0109     5.842     2.085     1.949 -0.4974  0.4075  0.7658
 
              Baa    -1.1158    80.742    28.811    26.933 -0.5565  0.7533  0.3504
    13 O(17)  Bbb    -1.1030    79.811    28.479    26.622  0.8095  0.3966  0.4329
              Bcc     2.2188  -160.553   -57.289   -53.555 -0.1871 -0.5246  0.8305
 
              Baa    -1.1296    81.738    29.166    27.265 -0.6243  0.2339  0.7454
    14 O(17)  Bbb    -1.0701    77.430    27.629    25.828  0.7050  0.5799  0.4084
              Bcc     2.1997  -159.169   -56.795   -53.093 -0.3367  0.7804 -0.5269
 
              Baa    -0.3683    26.647     9.508     8.889  0.7364  0.4868  0.4697
    15 O(17)  Bbb    -0.2983    21.583     7.701     7.199 -0.6539  0.3342  0.6788
              Bcc     0.6665   -48.230   -17.210   -16.088 -0.1735  0.8070 -0.5645
 
              Baa    -0.0191   -10.166    -3.627    -3.391  0.5107  0.2717  0.8157
    16 H(1)   Bbb    -0.0096    -5.144    -1.835    -1.716 -0.1096  0.9616 -0.2516
              Bcc     0.0287    15.310     5.463     5.107  0.8528 -0.0391 -0.5208
 

 ---------------------------------------------------------------------------------

 Use density number 0.
 Entering OneElI...
 Calculate overlap and kinetic energy integrals
    NBasis = 187  MinDer = 2  MaxDer = 2
 Requested accuracy = 0.1000D-12
 PrsmSu:  NPrtUS=   1 ThrOK=F
 PRISM was handed   130760358 working-precision words and  2548 shell-pairs
 Entering OneElI...
 Calculate potential energy integrals
    NBasis = 187  MinDer = 2  MaxDer = 2
 Requested accuracy = 0.1000D-12
 PrsmSu:  NPrtUS=   8 ThrOK=T
 PRISM was handed    16302214 working-precision words and  2361 shell-pairs
 PRISM was handed    16302214 working-precision words and  2361 shell-pairs
 PRISM was handed    16302214 working-precision words and  2361 shell-pairs
 PRISM was handed    16302214 working-precision words and  2361 shell-pairs
 PRISM was handed    16302214 working-precision words and  2361 shell-pairs
 PRISM was handed    16302214 working-precision words and  2361 shell-pairs
 PRISM was handed    16302214 working-precision words and  2361 shell-pairs
 PRISM was handed    16302214 working-precision words and  2361 shell-pairs
 Polarizability after L701:
                1             2             3
      1  0.677188D+02
      2  0.800876D+01  0.718154D+02
      3 -0.323734D+01 -0.440203D+01  0.565564D+02
 Dipole Derivatives after L701:
               1            2            3            4            5
      1-0.110306D+00-0.523083D-01-0.112946D-01-0.124641D-02-0.626916D-02
      2-0.587222D-01 0.184400D+00-0.267002D-01 0.111146D-01-0.287578D-01
      3 0.372267D-01 0.377981D-02 0.102919D+00 0.188273D-01 0.671947D-01
               6            7            8            9           10
      1-0.194987D-02 0.379845D-01 0.580907D-01 0.647716D-03-0.161519D+00
      2 0.633653D-01 0.177538D-01 0.876985D-02-0.216833D-01-0.804999D-01
      3-0.870884D-01-0.203860D-01-0.585652D-01 0.254094D-01-0.267883D-01
              11           12           13           14           15
      1-0.550646D-01-0.184668D-02 0.570195D-01 0.704744D-01 0.145400D-01
      2 0.638012D-01-0.190677D-01 0.117689D+00-0.456827D-01 0.135076D-02
      3-0.257037D-01 0.423409D-01 0.222428D-01-0.487129D-01 0.423063D-01
              16           17           18           19           20
      1 0.686147D-01-0.267626D-01 0.151582D-01 0.127148D-01-0.267291D-02
      2-0.356090D-01-0.121486D-01 0.418508D-01 0.202145D-01-0.999694D-02
      3 0.381446D-01 0.110027D+00-0.588926D-01-0.190524D-01-0.925444D-03
              21           22           23           24           25
      1-0.256282D-01 0.666222D-01 0.242263D-02 0.233514D-01 0.599822D-01
      2-0.305801D-01-0.452198D-01-0.457319D-02 0.916905D-01-0.232152D-01
      3 0.764527D-01 0.562644D-01 0.481893D-01-0.405575D-01-0.700999D-01
              26           27           28           29           30
      1 0.289849D-02-0.335785D-01-0.172226D+00-0.271444D-01-0.441904D-02
      2-0.180712D-01-0.107890D+00-0.532667D-02 0.570130D-01-0.904674D-02
      3-0.805039D-01-0.105377D+00 0.403101D-02-0.351404D-02 0.825820D-01
              31           32           33           34           35
      1 0.113823D+01-0.297871D+00-0.114010D+00-0.341072D-01-0.503090D-01
      2 0.319616D+00-0.485271D+00 0.395556D+00-0.700626D-01 0.150474D-01
      3-0.299605D+00 0.686862D+00 0.289238D+00-0.219268D-01-0.203917D+00
              36           37           38           39           40
      1 0.649280D-02-0.826047D+00 0.305829D+00 0.176932D+00 0.165490D+00
      2-0.104248D+00-0.294938D+00 0.529455D-01 0.603265D-01 0.831720D+00
      3-0.915614D-01 0.338550D+00-0.388379D+00-0.384320D+00-0.336508D+00
              41           42           43           44           45
      1 0.324071D+00 0.517249D-01-0.611917D+00-0.241372D+00-0.618974D-01
      2 0.516985D+00-0.155762D+00-0.743386D+00-0.572309D+00 0.306254D-01
      3-0.306590D+00-0.971010D-01 0.286544D+00 0.280647D+00-0.129790D+00
              46           47           48
      1 0.310715D+00-0.401112D-02-0.342222D-01
      2 0.388702D-01 0.277848D+00-0.209788D+00
      3-0.746457D-02-0.798884D-01 0.333439D+00
 Hessian after L701:
                1             2             3             4             5
      1  0.131046D+02
      2  0.949315D-01  0.162889D+02
      3 -0.386356D+00 -0.827343D+00  0.167315D+02
      4 -0.453897D+01  0.488599D+00 -0.620240D+00  0.425339D+01
      5  0.407474D+00 -0.367376D+01 -0.132122D+01 -0.579441D+00  0.355283D+01
      6 -0.522695D+00 -0.133448D+01 -0.297746D+01  0.783886D+00  0.161856D+01
      7 -0.563444D+01  0.670885D+00  0.975882D+00  0.844451D-01  0.919500D-02
      8  0.581560D+00 -0.437696D+01  0.221686D+01  0.128098D-01  0.983513D-01
      9  0.846718D+00  0.219567D+01 -0.216381D+01 -0.486102D-01 -0.103439D+00
     10  0.462683D-01  0.194102D-01 -0.230554D-01  0.330375D-02 -0.116649D-01
     11 -0.295110D-01  0.599820D-01 -0.562492D-02 -0.681823D-02  0.199543D-01
     12 -0.667173D-01 -0.303984D-02  0.364411D-01 -0.353234D-01 -0.111808D-01
     13  0.115368D+00 -0.623230D-01 -0.258016D-01  0.895574D-02  0.579167D-02
     14  0.800461D-02  0.493005D-01 -0.592335D-01 -0.261564D-03 -0.311118D-02
     15  0.313956D-01 -0.878864D-01  0.216155D-01  0.786214D-02 -0.160174D-01
     16  0.994374D-01  0.102265D-01 -0.106166D-01 -0.305718D-01  0.161845D-02
     17  0.858580D-02  0.107544D+00 -0.687790D-01  0.366960D-02 -0.227319D-01
     18  0.456852D-01  0.139743D-01  0.192345D-01 -0.211834D-01 -0.464841D-01
     19 -0.457831D+01 -0.217664D+01 -0.340306D+00  0.681760D-01  0.790873D-01
     20 -0.207500D+01 -0.183436D+01  0.537698D+00  0.706875D-01 -0.368091D-01
     21 -0.316938D+00  0.565023D+00 -0.555970D+01 -0.307258D-01 -0.154951D-01
     22  0.965527D-01  0.702874D-01 -0.339902D-01 -0.340734D-01 -0.953208D-02
     23  0.360188D-02  0.537911D-02  0.298662D-01  0.234828D-02  0.101334D+00
     24  0.228552D-02 -0.313165D-01  0.122234D+00  0.292642D-03 -0.811544D-01
     25  0.754981D-01  0.529138D-01  0.496730D-01  0.107428D-01  0.897840D-02
     26 -0.109955D-02 -0.152771D-04 -0.393365D-01  0.521085D-02 -0.317308D-01
     27  0.499398D-02 -0.162910D-01  0.946179D-01  0.356191D-02  0.211416D-02
     28  0.109115D+00 -0.370062D-02 -0.417346D-01 -0.120324D-01  0.303883D-01
     29  0.521093D-01  0.109345D-01  0.159997D-01  0.341878D-01 -0.235332D-01
     30 -0.760963D-02  0.700837D-02  0.304132D-01 -0.121260D-01  0.133869D-01
     31  0.232151D+00  0.269725D+00  0.576841D+00  0.634183D-01 -0.630449D-01
     32  0.225196D+00 -0.639595D+01 -0.702920D-02 -0.873871D-01  0.484470D-01
     33  0.661466D+00 -0.245993D-01 -0.628324D+01  0.106898D+00  0.445093D-01
     34 -0.130792D+00 -0.274878D+00 -0.409534D+00 -0.133458D-01 -0.133846D-01
     35 -0.261761D+00  0.247250D+00 -0.189184D+00 -0.990658D-02  0.165780D-02
     36 -0.479528D+00 -0.234120D+00  0.615652D-01  0.755962D-03  0.365565D-02
     37  0.674260D+00  0.411706D+00  0.480143D+00  0.928258D-01  0.373147D-01
     38  0.509878D+00 -0.458517D+00 -0.240290D+00 -0.176712D-01 -0.592241D-01
     39  0.417228D+00 -0.170079D+00  0.187743D+00 -0.570934D-01 -0.132388D-01
     40  0.521732D-01  0.183259D+00 -0.106933D+00  0.365745D-01  0.765889D-01
     41  0.211883D+00  0.109351D-01  0.198366D-02  0.695842D-01  0.238564D-01
     42 -0.133892D+00 -0.115538D-01 -0.157144D+00 -0.688406D-01 -0.632213D-01
     43  0.255278D+00  0.237586D+00 -0.792946D-01  0.285424D-02  0.155846D-01
     44  0.265870D+00 -0.323834D-01 -0.461896D-01  0.150999D-01  0.602201D-02
     45 -0.779481D-01 -0.382949D-01 -0.159055D+00 -0.539539D-02 -0.692720D-02
     46  0.218347D-01  0.800906D-02 -0.467686D-02  0.430735D-02  0.504675D-02
     47 -0.172136D-02 -0.831207D-02  0.182707D-02 -0.710790D-03 -0.154925D-02
     48 -0.180890D-01 -0.266541D-02 -0.493381D-02 -0.371838D-02 -0.384035D-02
                6             7             8             9            10
      6  0.264549D+01
      7 -0.564131D-01  0.142897D+02
      8 -0.874662D-01 -0.776288D+00  0.143467D+02
      9  0.186168D-01 -0.853562D+00 -0.135943D+01  0.135898D+02
     10 -0.314045D-01 -0.164070D+01  0.646311D+00  0.141485D+00  0.141109D+01
     11 -0.131524D-01  0.734575D+00 -0.396291D+01  0.320204D-01 -0.817954D+00
     12 -0.492112D-01  0.230102D+00  0.489041D-01 -0.413709D+01 -0.318115D+00
     13 -0.182353D-02 -0.358639D+01 -0.119408D+01 -0.131578D+00 -0.586317D-01
     14 -0.433470D-02 -0.146623D+01 -0.234556D+01  0.185651D+00  0.464775D-01
     15 -0.209135D-01 -0.238301D+00  0.299367D+00 -0.436914D+01  0.126067D-01
     16 -0.859375D-02 -0.440607D+01  0.248550D+00 -0.367042D+00 -0.557653D-02
     17 -0.377068D-01  0.332412D+00 -0.358485D+01 -0.123940D+01 -0.596253D-01
     18  0.138967D+00 -0.574062D+00 -0.147736D+01 -0.249427D+01  0.721091D-01
     19 -0.293581D-01  0.518628D-02  0.143412D-01  0.144298D-01  0.261527D-02
     20 -0.261916D-01 -0.888422D-01  0.105385D+00  0.714047D-01  0.274552D-01
     21  0.128948D+00 -0.693091D-01  0.129457D+00  0.477885D-01  0.193222D-01
     22  0.758388D-02 -0.155754D-01  0.198673D-01  0.296660D-02  0.257703D-02
     23 -0.893106D-01 -0.372669D-02  0.495985D-02  0.677667D-03  0.998338D-02
     24  0.201169D-01  0.328607D-02 -0.143835D-01 -0.796444D-02 -0.626538D-02
     25 -0.132099D-02 -0.539598D-01 -0.729893D-02 -0.870766D-02  0.119897D-02
     26 -0.101125D-01 -0.103297D-02  0.766712D-01  0.125579D+00  0.725462D-02
     27  0.363229D-02 -0.412338D-02  0.130454D+00  0.741901D-01  0.948900D-02
     28 -0.613838D-02  0.848676D-02 -0.194714D-01 -0.118590D-01 -0.243132D-01
     29  0.179429D-01 -0.143183D-02 -0.123764D-01  0.669395D-02  0.694500D-03
     30  0.141492D-01 -0.872484D-02  0.131383D-01 -0.574043D-02  0.169369D-02
     31  0.718393D-01  0.287809D+00  0.170565D+00  0.130093D+00  0.132431D+00
     32  0.449200D-01  0.218930D+00  0.825551D-02  0.754151D-01  0.796614D-01
     33  0.656891D-01  0.128739D+00  0.260113D-01 -0.647668D-01  0.922218D-01
     34 -0.378418D-02  0.447639D-01  0.746827D-01  0.117870D+00  0.100343D-02
     35 -0.692255D-02  0.896662D-01 -0.354821D-02  0.897047D-01  0.491555D-02
     36  0.840316D-03  0.141375D+00  0.900579D-01  0.795264D-01  0.591956D-02
     37 -0.985184D-01  0.375984D+00 -0.186042D+00  0.223174D+00  0.646160D-01
     38  0.128041D-01 -0.147315D+00 -0.285194D+00 -0.442216D-01 -0.449375D-02
     39 -0.159416D-01  0.266472D+00 -0.707884D-01 -0.230669D+00  0.185885D-01
     40 -0.832050D-01  0.174005D+00  0.292465D+00 -0.592341D-01  0.447429D-01
     41 -0.695230D-01  0.294382D+00 -0.630089D-01 -0.419972D-01  0.349609D-01
     42  0.272413D-01  0.266869D-01  0.294564D-01 -0.235163D+00  0.258627D-02
     43 -0.139421D-01  0.479945D-01  0.110735D+00  0.117555D-01  0.127815D-01
     44 -0.159315D-01  0.134090D+00 -0.808285D-03  0.320604D-02  0.181703D-01
     45 -0.401389D-02  0.433576D-01  0.292590D-01 -0.100183D+00  0.725486D-02
     46 -0.611227D-02  0.187879D-01  0.112946D-01 -0.790017D-02  0.658431D-02
     47  0.911493D-03  0.730384D-03 -0.508501D-02  0.245951D-02 -0.155750D-02
     48  0.385542D-02 -0.114050D-01 -0.353738D-02 -0.116409D-02 -0.443585D-02
               11            12            13            14            15
     11  0.377218D+01
     12 -0.148147D+00  0.408856D+01
     13  0.712256D-01  0.105382D-02  0.346377D+01
     14  0.655142D-01  0.334879D-02  0.119572D+01  0.209790D+01
     15 -0.210759D-02  0.702946D-01  0.923794D-01 -0.419876D+00  0.434493D+01
     16 -0.869203D-01  0.816127D-01  0.757789D-01  0.514041D-01 -0.341492D-01
     17  0.377259D-01  0.402524D-01  0.473232D-02 -0.443365D-01  0.707204D-01
     18  0.509957D-01  0.513595D-01 -0.892047D-02  0.629521D-01  0.542827D-01
     19  0.182984D-01  0.712794D-02 -0.331499D-01 -0.719498D-01 -0.369979D-01
     20  0.163282D-01  0.694399D-02 -0.664992D-01  0.141807D+00  0.943768D-01
     21  0.157208D-01 -0.199167D-01 -0.362124D-01  0.101004D+00 -0.760604D-02
     22  0.286479D-02  0.505744D-03 -0.236276D-02  0.378162D-03 -0.100263D-04
     23  0.411564D-02  0.353662D-03 -0.575782D-02  0.126760D-01  0.194124D-02
     24 -0.503980D-02 -0.240838D-02  0.279876D-02 -0.576253D-02 -0.269237D-02
     25  0.238120D-02  0.154903D-02 -0.534198D-03  0.303316D-02  0.200952D-02
     26  0.392052D-02  0.416083D-02 -0.266313D-02 -0.276282D-04 -0.365730D-02
     27  0.683622D-02  0.262792D-02 -0.384598D-02  0.425768D-02 -0.531618D-03
     28 -0.200441D-01 -0.116407D-01  0.658854D-02 -0.112861D-01 -0.307812D-02
     29  0.203466D-01  0.232367D-01 -0.192517D-02  0.978845D-03  0.948658D-03
     30  0.255466D-01  0.165493D-02 -0.149721D-02  0.193710D-02 -0.101308D-02
     31  0.785959D-01  0.885300D-01 -0.259036D-01 -0.123810D-01 -0.268760D-01
     32 -0.203495D-01  0.303391D-01 -0.217603D-01  0.299055D-01 -0.862994D-02
     33  0.348792D-01 -0.770040D-02 -0.307309D-01 -0.861635D-02 -0.205430D-01
     34 -0.113778D-02 -0.286585D-02 -0.237383D-02  0.150348D-01  0.117082D-01
     35  0.536080D-03  0.825893D-04  0.911123D-02  0.192887D-01  0.202467D-01
     36  0.139531D-02 -0.357496D-03  0.894103D-02  0.292973D-01  0.136636D-01
     37  0.127470D-01  0.180625D-01  0.643809D-01  0.150837D+00  0.171342D+00
     38 -0.180600D-01  0.431795D-03  0.395331D-01 -0.121005D+00  0.338765D-01
     39  0.381402D-02 -0.111854D-01  0.131377D+00  0.881169D-01 -0.426255D-01
     40  0.284999D-01  0.375079D-02 -0.189831D-01  0.650374D-01  0.609043D-02
     41  0.165258D-03  0.268829D-02  0.220938D-01  0.730305D-01  0.111595D-01
     42  0.147792D-02 -0.162892D-01  0.260139D-02  0.145508D-01 -0.293593D-01
     43  0.106985D-01  0.214922D-02 -0.531539D-02  0.183683D-01  0.339798D-02
     44  0.150640D-02  0.166468D-02  0.583217D-02  0.253052D-01  0.564618D-02
     45  0.279291D-02 -0.605123D-02  0.391887D-03  0.114210D-01 -0.922997D-02
     46  0.249891D-02  0.218847D-03 -0.118972D-02  0.781428D-02  0.620259D-03
     47 -0.956306D-03 -0.395279D-04  0.973374D-03 -0.166277D-02 -0.108653D-03
     48 -0.140765D-02 -0.718388D-03  0.866707D-03 -0.471315D-02 -0.112770D-02
               16            17            18            19            20
     16  0.421530D+01
     17 -0.289293D+00  0.358667D+01
     18  0.284071D+00  0.127064D+01  0.222159D+01
     19 -0.693603D-02 -0.127671D-02 -0.260955D-02  0.135181D+02
     20 -0.117421D-01 -0.167372D-01 -0.848776D-03  0.125909D+01  0.130448D+02
     21 -0.197901D-01 -0.198331D-01  0.119034D-02  0.670774D+00 -0.423213D+00
     22 -0.208763D-01 -0.983908D-02 -0.603743D-02 -0.435824D+01  0.306237D+00
     23 -0.114523D-01  0.249344D-01  0.536128D-01  0.515896D+00 -0.320296D+01
     24 -0.319879D-02  0.285295D-01 -0.218690D-02 -0.526851D+00 -0.134144D+01
     25 -0.243609D-02 -0.586203D-03  0.673399D-03 -0.413779D+01  0.234662D+00
     26 -0.123967D-02 -0.252323D-02  0.846571D-02  0.356843D+00 -0.359963D+01
     27 -0.245681D-02 -0.871048D-03  0.134469D-01  0.607458D+00  0.110643D+01
     28  0.424672D-02  0.434901D-02 -0.134455D-01 -0.146611D+01  0.387999D+00
     29 -0.289606D-03 -0.249456D-02  0.933422D-04  0.260919D+00 -0.406774D+01
     30 -0.223126D-02 -0.166907D-02  0.248550D-02  0.375517D-02 -0.591967D-02
     31 -0.162350D-01 -0.201972D-01 -0.192599D-01  0.142651D+00  0.886746D-01
     32 -0.935121D-02  0.603144D-04 -0.126177D-01  0.463285D-01 -0.134675D+00
     33 -0.351032D-01 -0.363709D-01 -0.188504D-01 -0.122849D-01  0.121337D-01
     34 -0.507697D-03 -0.498674D-03  0.821699D-02  0.516326D-01 -0.556904D-02
     35  0.174873D-02 -0.499258D-02  0.902203D-02  0.105399D-01 -0.446777D-01
     36  0.523516D-02 -0.200162D-02  0.151156D-01  0.837488D-01 -0.390462D-02
     37  0.157222D-01 -0.382000D-01  0.770131D-01  0.195896D+00 -0.271940D+00
     38 -0.137851D-01 -0.151675D-01 -0.280235D-01 -0.320859D+00  0.499150D-01
     39  0.376262D-01 -0.292228D-01  0.272046D-01 -0.324947D-01  0.222772D-01
     40  0.703119D-01  0.612472D-01  0.126105D+00  0.394048D+00  0.571635D-01
     41  0.947120D-01 -0.483776D-01  0.760700D-01 -0.189061D-01 -0.301241D+00
     42  0.610061D-01  0.231429D-01 -0.294014D-01 -0.328121D+00 -0.295371D-01
     43  0.559298D-02  0.625682D-02  0.245808D-01  0.182705D+00  0.780721D-01
     44  0.154402D-01 -0.146813D-01  0.209620D-01  0.337204D-01 -0.110065D+00
     45  0.143852D-01  0.656312D-03  0.476326D-02 -0.634886D-01 -0.137183D-01
     46  0.281529D-02 -0.173739D-02  0.706362D-02  0.194808D-01  0.955690D-02
     47  0.373087D-03 -0.400047D-04 -0.145368D-02 -0.543004D-02 -0.930132D-02
     48 -0.754610D-03  0.190501D-02 -0.493278D-02 -0.147816D-01 -0.648409D-02
               21            22            23            24            25
     21  0.150167D+02
     22 -0.343907D+00  0.412506D+01
     23 -0.151076D+01 -0.268674D+00  0.298120D+01
     24 -0.282766D+01  0.364224D+00  0.144570D+01  0.286388D+01
     25  0.417007D+00  0.853714D-01  0.201722D-02  0.206925D-01  0.395903D+01
     26  0.116560D+01  0.681576D-02  0.953740D-01  0.305993D-01 -0.186862D+00
     27 -0.220516D+01 -0.247104D-01  0.121600D-01 -0.973112D-01 -0.335636D+00
     28  0.747145D-01 -0.621876D-02 -0.679582D-01  0.504504D-01 -0.518137D-02
     29 -0.109734D-02 -0.678943D-01  0.426921D-01  0.245605D-01 -0.466664D-01
     30 -0.409401D+01  0.803190D-01  0.437950D-01  0.486864D-01 -0.824824D-01
     31  0.633160D-01 -0.199898D-01  0.145153D-01  0.157155D-01 -0.742226D-02
     32 -0.338280D-01  0.307518D-01 -0.163673D-01 -0.162826D-01 -0.336528D-02
     33 -0.337881D-01 -0.910289D-02  0.568902D-02  0.772455D-02 -0.169518D-01
     34  0.598608D-01 -0.909665D-03 -0.486674D-02  0.728098D-02  0.516949D-01
     35  0.233089D-02  0.609620D-03 -0.528717D-02  0.321284D-02 -0.271971D-01
     36 -0.789023D-02  0.222792D-02 -0.843883D-02  0.896040D-02  0.920754D-02
     37 -0.294488D-01  0.531307D-02 -0.458485D-01  0.268487D-01  0.301599D-02
     38  0.230285D-01 -0.233305D-01  0.289040D-01 -0.274225D-01 -0.226698D-01
     39 -0.176699D+00  0.472139D-02 -0.763429D-02 -0.137348D-01 -0.102412D-01
     40 -0.377269D+00  0.110432D+00 -0.116544D+00  0.159753D-01  0.501068D-02
     41  0.705562D-02 -0.560342D-01 -0.578519D-01 -0.685597D-02 -0.101401D-01
     42 -0.144534D+00 -0.424167D-01  0.213606D-01 -0.933233D-01 -0.272804D-01
     43 -0.713090D-01  0.270901D-01 -0.177594D-01  0.223785D-01  0.144350D-01
     44 -0.767792D-02 -0.141933D-02 -0.196257D-01 -0.106552D-02  0.129337D-02
     45 -0.116915D+00 -0.166287D-03 -0.260870D-02 -0.196050D-01 -0.167269D-01
     46 -0.100851D-01  0.584269D-02 -0.577452D-02  0.408656D-02  0.133520D-02
     47  0.267754D-02 -0.108916D-02  0.525887D-03 -0.187677D-02 -0.492856D-03
     48 -0.756900D-03 -0.220773D-02  0.359084D-02 -0.471161D-02 -0.146456D-02
               26            27            28            29            30
     26  0.344850D+01
     27 -0.130822D+01  0.206854D+01
     28 -0.481291D-01 -0.594251D-01  0.109041D+01
     29  0.539518D-01 -0.203781D-01 -0.181774D+00  0.403761D+01
     30 -0.328221D-01  0.382428D-01  0.513080D-01 -0.627888D-01  0.403854D+01
     31 -0.160652D-01 -0.362350D-01  0.165548D+00 -0.568300D-01 -0.247452D-02
     32 -0.139085D-01  0.267418D-01 -0.604108D-01 -0.281847D-01 -0.115090D-02
     33  0.221498D-01  0.980743D-02 -0.276874D-02 -0.466098D-02 -0.428724D-01
     34 -0.440419D-01 -0.170037D-01  0.348566D-03  0.150334D-02 -0.147763D-03
     35 -0.179928D-01  0.708830D-04  0.673451D-02  0.343434D-03  0.937773D-03
     36 -0.880781D-02 -0.377864D-01  0.716099D-02  0.109453D-02  0.114833D-03
     37 -0.387209D-01 -0.362934D-01  0.371629D-01 -0.250400D-02 -0.499623D-03
     38  0.224405D-01  0.370783D-01 -0.252262D-01 -0.813186D-02  0.299952D-03
     39  0.175789D-01 -0.132777D-02 -0.346139D-02 -0.816924D-04 -0.102940D-01
     40 -0.255205D-01 -0.623101D-01  0.600483D-01  0.323641D-02 -0.148444D-01
     41 -0.185985D-01  0.183467D-01  0.384182D-02 -0.170610D-01 -0.102677D-02
     42  0.221700D-01  0.287213D-01 -0.219297D-01 -0.652044D-03 -0.123086D-01
     43 -0.778057D-02 -0.362896D-01  0.247206D-01  0.573057D-02 -0.374049D-02
     44 -0.168616D-01 -0.154962D-02  0.716025D-02 -0.644371D-02 -0.906721D-03
     45  0.422761D-02  0.339701D-02 -0.296339D-02 -0.501347D-03 -0.791547D-02
     46 -0.296819D-02 -0.717412D-02  0.717711D-02  0.934287D-03 -0.697657D-03
     47  0.426502D-03  0.282925D-02 -0.247221D-02 -0.892200D-03  0.233971D-03
     48  0.242728D-02  0.489248D-02 -0.518930D-02 -0.410008D-03 -0.139279D-03
               31            32            33            34            35
     31  0.148732D+02
     32  0.520402D+01  0.159858D+02
     33  0.120261D+01 -0.132013D+01  0.231254D+02
     34 -0.491222D+01  0.530885D+00  0.626384D+00  0.487579D+01
     35  0.510747D+00 -0.367037D+01  0.162539D+01 -0.697540D+00  0.344128D+01
     36  0.703851D+00  0.183306D+01 -0.268938D+01 -0.481448D+00 -0.178648D+01
     37 -0.777556D+01 -0.741103D+01 -0.145384D+01 -0.303552D-01  0.334863D+00
     38 -0.746717D+01 -0.469080D+01  0.256452D+01  0.361689D+00  0.384407D-01
     39 -0.137374D+01  0.242714D+01 -0.137755D+02  0.179154D+00  0.936945D-01
     40 -0.281351D+01  0.124491D+01 -0.123089D+01  0.103617D+00 -0.183681D-01
     41  0.115000D+01 -0.122823D+01 -0.279161D+01 -0.345014D-02  0.400205D-01
     42 -0.120654D+01 -0.275642D+01 -0.282089D+00 -0.522739D-01  0.171287D+00
     43 -0.375600D+00 -0.119599D-01  0.226038D-01 -0.339052D-01  0.535030D-01
     44  0.149629D+00  0.154424D+00 -0.140521D+00  0.640139D-01 -0.427656D-01
     45 -0.126679D+00 -0.255354D+00 -0.203364D-02 -0.480733D-01 -0.411965D-01
     46  0.491911D-01  0.245870D-01 -0.492508D-01 -0.444134D-02 -0.766559D-02
     47 -0.778852D-03 -0.280820D-01 -0.877005D-02 -0.244198D-02  0.813531D-03
     48 -0.609865D-01 -0.261716D-01  0.121779D-01  0.465605D-02  0.780209D-02
               36            37            38            39            40
     36  0.218022D+01
     37  0.185730D+00  0.722425D+01
     38  0.838048D-01  0.683236D+01  0.410006D+01
     39  0.336586D+00  0.437513D+00 -0.130247D+01  0.142189D+02
     40 -0.970221D-01 -0.558556D+00 -0.946737D-02  0.632751D-01  0.167597D+01
     41  0.113546D+00 -0.144448D-01  0.683268D+00 -0.725638D+00 -0.626871D+01
     42  0.332422D-01  0.908907D-01 -0.742798D+00 -0.173647D+00 -0.224044D-01
     43 -0.925657D-01 -0.381409D+00  0.232707D+00 -0.455287D-01  0.679658D+00
     44 -0.117709D+00  0.208719D+00  0.726074D+00 -0.311811D+00  0.478893D+01
     45  0.550877D-03 -0.600952D-01 -0.296595D+00 -0.317039D+00  0.208396D+01
     46 -0.358782D-02 -0.755168D-02  0.758245D-01 -0.333906D-01 -0.155410D-01
     47  0.554229D-02  0.201876D-01  0.699762D-02 -0.216578D-01 -0.362729D+00
     48  0.503045D-02 -0.320249D-01 -0.740236D-01 -0.176205D-02 -0.245045D+00
               41            42            43            44            45
     41  0.382875D+01
     42  0.162476D+01  0.643412D+01
     43  0.478202D+01  0.191684D+01  0.283582D+01
     44 -0.295204D+01  0.168145D+01 -0.462703D+01  0.816168D+01
     45  0.177943D+01 -0.559122D+01  0.406918D+00 -0.197500D+01  0.111040D+02
     46 -0.291798D+00 -0.196909D+00 -0.329270D+01 -0.107952D+01 -0.215474D+01
     47  0.263826D-01  0.145275D-01 -0.886736D+00 -0.587933D+01  0.802405D+00
     48  0.160865D-02  0.241154D+00 -0.206795D+01  0.905427D+00 -0.477948D+01
               46            47            48
     46  0.318406D+01
     47  0.124390D+01  0.590007D+01
     48  0.246253D+01 -0.799508D+00  0.453262D+01
 ReadGW:  IGet=0 IStart=         114 Next=        7248 LGW=        7134.
 ICntrl=12127.
 Symmetry not used in FoFDir.
 MinBra= 0 MaxBra= 2 Meth= 1.
 IRaf=       0 NMat=   1 IRICut=       1 DoRegI=T DoRafI=F ISym2E= 0 JSym2E=0.
 PrsmSu:  NPrtUS=   8 ThrOK=T
 PRISM was handed    16287966 working-precision words and  2451 shell-pairs
 PRISM was handed    16287966 working-precision words and  2451 shell-pairs
 PRISM was handed    16287966 working-precision words and  2451 shell-pairs
 PRISM was handed    16287966 working-precision words and  2451 shell-pairs
 PRISM was handed    16287966 working-precision words and  2451 shell-pairs
 PRISM was handed    16287966 working-precision words and  2451 shell-pairs
 PRISM was handed    16287966 working-precision words and  2451 shell-pairs
 PRISM was handed    16287966 working-precision words and  2451 shell-pairs
 Pruned (  75, 302) grid will be used in CalDFT.
 CkSvGd:  ISavGI=        -1 IRadAn=       4 IRASav=       4 ISavGd=        -1.
 CalDSu:  NPrtUS=   8 ThrOK=T
 IPart= 0 IRanGd=          0 ScrnBf=T ScrnGd=T RCrit=4.00D+00 DoMicB=T.
 IPart= 3 IRanGd=          0 ScrnBf=T ScrnGd=T RCrit=4.00D+00 DoMicB=T.
 IPart= 7 IRanGd=          0 ScrnBf=T ScrnGd=T RCrit=4.00D+00 DoMicB=T.
 IPart= 5 IRanGd=          0 ScrnBf=T ScrnGd=T RCrit=4.00D+00 DoMicB=T.
 IPart= 1 IRanGd=          0 ScrnBf=T ScrnGd=T RCrit=4.00D+00 DoMicB=T.
 IPart= 4 IRanGd=          0 ScrnBf=T ScrnGd=T RCrit=4.00D+00 DoMicB=T.
 CutRad = 1000.00    CtRdIn =    0.00    XCrit =  15.00   ICut = 0
 IPart= 2 IRanGd=          0 ScrnBf=T ScrnGd=T RCrit=4.00D+00 DoMicB=T.
 CutRad = 1000.00    CtRdIn =    0.00    XCrit =  15.00   ICut = 0
 CutRad = 1000.00    CtRdIn =    0.00    XCrit =  15.00   ICut = 0
 CutRad = 1000.00    CtRdIn =    0.00    XCrit =  15.00   ICut = 0
 CutRad = 1000.00    CtRdIn =    0.00    XCrit =  15.00   ICut = 0
 IPart= 6 IRanGd=          0 ScrnBf=T ScrnGd=T RCrit=4.00D+00 DoMicB=T.
 CutRad = 1000.00    CtRdIn =    0.00    XCrit =  15.00   ICut = 0
 CutRad = 1000.00    CtRdIn =    0.00    XCrit =  15.00   ICut = 0
 CutRad = 1000.00    CtRdIn =    0.00    XCrit =  15.00   ICut = 0
 IPart= 1        14848 of        16866 points in      35 batches and      105 microbatches, Max-NSigAt=      16 Max-NSgAt2=      16
 IPart= 5        14756 of        16840 points in      36 batches and      113 microbatches, Max-NSigAt=      16 Max-NSgAt2=      16
 IPart= 4        15445 of        17032 points in      35 batches and      111 microbatches, Max-NSigAt=      16 Max-NSgAt2=      16
 IPart= 7        14678 of        17432 points in      37 batches and       85 microbatches, Max-NSigAt=      16 Max-NSgAt2=      16
 IPart= 3        14252 of        16380 points in      33 batches and      105 microbatches, Max-NSigAt=      16 Max-NSgAt2=      16
 IPart= 6        13484 of        15450 points in      31 batches and       81 microbatches, Max-NSigAt=      16 Max-NSgAt2=      16
 IPart= 2        13062 of        14810 points in      31 batches and      103 microbatches, Max-NSigAt=      16 Max-NSgAt2=      16
 IPart= 0        11817 of        13272 points in      26 batches and       71 microbatches, Max-NSigAt=      16 Max-NSgAt2=      16
 Polarizability after L703:
                1             2             3
      1  0.677188D+02
      2  0.800876D+01  0.718154D+02
      3 -0.323734D+01 -0.440203D+01  0.565564D+02
 Dipole Derivatives after L703:
               1            2            3            4            5
      1-0.110306D+00-0.523083D-01-0.112946D-01-0.124641D-02-0.626916D-02
      2-0.587222D-01 0.184400D+00-0.267002D-01 0.111146D-01-0.287578D-01
      3 0.372267D-01 0.377981D-02 0.102919D+00 0.188273D-01 0.671947D-01
               6            7            8            9           10
      1-0.194987D-02 0.379845D-01 0.580907D-01 0.647716D-03-0.161519D+00
      2 0.633653D-01 0.177538D-01 0.876985D-02-0.216833D-01-0.804999D-01
      3-0.870884D-01-0.203860D-01-0.585652D-01 0.254094D-01-0.267883D-01
              11           12           13           14           15
      1-0.550646D-01-0.184668D-02 0.570195D-01 0.704744D-01 0.145400D-01
      2 0.638012D-01-0.190677D-01 0.117689D+00-0.456827D-01 0.135076D-02
      3-0.257037D-01 0.423409D-01 0.222428D-01-0.487129D-01 0.423063D-01
              16           17           18           19           20
      1 0.686147D-01-0.267626D-01 0.151582D-01 0.127148D-01-0.267291D-02
      2-0.356090D-01-0.121486D-01 0.418508D-01 0.202145D-01-0.999694D-02
      3 0.381446D-01 0.110027D+00-0.588926D-01-0.190524D-01-0.925444D-03
              21           22           23           24           25
      1-0.256282D-01 0.666222D-01 0.242263D-02 0.233514D-01 0.599822D-01
      2-0.305801D-01-0.452198D-01-0.457319D-02 0.916905D-01-0.232152D-01
      3 0.764527D-01 0.562644D-01 0.481893D-01-0.405575D-01-0.700999D-01
              26           27           28           29           30
      1 0.289849D-02-0.335785D-01-0.172226D+00-0.271444D-01-0.441904D-02
      2-0.180712D-01-0.107890D+00-0.532667D-02 0.570130D-01-0.904674D-02
      3-0.805039D-01-0.105377D+00 0.403101D-02-0.351404D-02 0.825820D-01
              31           32           33           34           35
      1 0.113823D+01-0.297871D+00-0.114010D+00-0.341072D-01-0.503090D-01
      2 0.319616D+00-0.485271D+00 0.395556D+00-0.700626D-01 0.150474D-01
      3-0.299605D+00 0.686862D+00 0.289238D+00-0.219268D-01-0.203917D+00
              36           37           38           39           40
      1 0.649280D-02-0.826047D+00 0.305829D+00 0.176932D+00 0.165490D+00
      2-0.104248D+00-0.294938D+00 0.529455D-01 0.603265D-01 0.831720D+00
      3-0.915614D-01 0.338550D+00-0.388379D+00-0.384320D+00-0.336508D+00
              41           42           43           44           45
      1 0.324071D+00 0.517249D-01-0.611917D+00-0.241372D+00-0.618974D-01
      2 0.516985D+00-0.155762D+00-0.743386D+00-0.572309D+00 0.306254D-01
      3-0.306590D+00-0.971010D-01 0.286544D+00 0.280647D+00-0.129790D+00
              46           47           48
      1 0.310715D+00-0.401112D-02-0.342222D-01
      2 0.388702D-01 0.277848D+00-0.209788D+00
      3-0.746457D-02-0.798884D-01 0.333439D+00
 Hessian after L703:
                1             2             3             4             5
      1  0.459503D+00
      2  0.442708D-02  0.504764D+00
      3 -0.124020D-01 -0.334592D-01  0.525352D+00
      4 -0.669971D-01 -0.425492D-01  0.528666D-01  0.743334D-01
      5 -0.401538D-01 -0.129153D+00  0.110435D+00  0.428174D-01  0.146773D+00
      6  0.494062D-01  0.109353D+00 -0.184059D+00 -0.545955D-01 -0.117916D+00
      7 -0.835830D-01 -0.764882D-02 -0.197495D-01  0.222395D-02  0.396529D-02
      8 -0.638118D-02 -0.986945D-01 -0.384321D-01  0.480348D-02  0.908026D-02
      9 -0.159496D-01 -0.409370D-01 -0.154325D+00 -0.695401D-02 -0.139818D-01
     10 -0.612929D-02 -0.457691D-03  0.967447D-04  0.450629D-03  0.311723D-03
     11 -0.158517D-01 -0.517547D-02 -0.775390D-03  0.727679D-03  0.648154D-03
     12 -0.297977D-01 -0.705556D-02 -0.229310D-02 -0.371656D-04  0.787169D-03
     13  0.468672D-02 -0.711292D-02  0.794951D-03  0.140224D-03  0.305934D-03
     14  0.697862D-02 -0.135864D-01 -0.854699D-03 -0.178519D-03  0.636812D-03
     15  0.166867D-01 -0.247962D-01 -0.157528D-02  0.613256D-03  0.544230D-03
     16  0.972943D-03  0.517016D-02 -0.651372D-02  0.461749D-03 -0.701922D-03
     17  0.445785D-02  0.953741D-02 -0.137779D-01 -0.800079D-03 -0.916843D-03
     18  0.468684D-02  0.159955D-01 -0.241936D-01 -0.193268D-02 -0.323400D-02
     19 -0.999542D-01  0.432240D-01  0.159011D-02  0.426167D-02 -0.650786D-02
     20  0.406641D-01 -0.155284D+00 -0.792793D-02  0.123915D-01 -0.207524D-01
     21  0.123332D-02 -0.603702D-02 -0.797140D-01 -0.134607D-01  0.212799D-01
     22  0.347423D-02  0.107495D-01 -0.134031D-01 -0.131824D-02  0.322644D-02
     23 -0.550286D-02 -0.192597D-01  0.219932D-01  0.357681D-02 -0.438861D-02
     24 -0.234076D-02 -0.202613D-02  0.238132D-02  0.314539D-03 -0.111613D-02
     25  0.352323D-02  0.620371D-02  0.155195D-01  0.521279D-03 -0.595596D-03
     26 -0.805179D-02 -0.126361D-01 -0.256395D-01 -0.765364D-03  0.587367D-03
     27  0.368340D-03 -0.498452D-03 -0.217362D-02  0.294591D-03 -0.385443D-03
     28 -0.157049D-01 -0.244496D-02 -0.674312D-03  0.716271D-03  0.369511D-04
     29  0.311353D-01  0.331351D-02  0.475535D-03 -0.685278D-03  0.148848D-02
     30  0.293614D-02  0.240147D-03 -0.124531D-02 -0.548345D-03 -0.100508D-03
     31 -0.149087D+00 -0.159757D-01 -0.203777D-01 -0.113196D-01 -0.294690D-02
     32 -0.263293D-01 -0.697746D-01 -0.276421D-01 -0.150230D-01 -0.286792D-02
     33 -0.207823D-01 -0.135006D-01 -0.812205D-01  0.253774D-01  0.454545D-02
     34 -0.565167D-02 -0.145893D-01 -0.253589D-01  0.952042D-03 -0.278862D-04
     35  0.705736D-03  0.131833D-02 -0.758301D-02  0.469269D-03 -0.987284D-04
     36  0.662657D-03 -0.441749D-02  0.153718D-02 -0.145067D-02 -0.579520D-03
     37 -0.351047D-01  0.403015D-01  0.247809D-02  0.206416D-02  0.134872D-02
     38  0.183404D-01 -0.422407D-02  0.749133D-02 -0.126516D-02 -0.415171D-03
     39  0.213186D-02 -0.131887D-02  0.101728D-01 -0.234410D-02 -0.663516D-03
     40 -0.942305D-02 -0.176924D-01  0.208354D-01 -0.520694D-02 -0.130347D-02
     41 -0.432181D-02 -0.111280D-01  0.132786D-01 -0.299287D-02 -0.941100D-03
     42  0.217277D-02  0.283218D-02 -0.367637D-02 -0.385104D-04 -0.585893D-04
     43 -0.992417D-03 -0.115223D-02  0.335151D-02 -0.106828D-02  0.344811D-03
     44  0.267544D-03  0.139941D-02  0.839462D-03  0.172461D-03  0.447349D-03
     45  0.984047D-03  0.470378D-02 -0.494046D-02  0.171858D-02  0.391931D-03
     46  0.467176D-03 -0.452773D-03  0.946303D-03 -0.215253D-03 -0.119796D-03
     47 -0.384053D-03 -0.141789D-02  0.157896D-02 -0.699080D-03 -0.128229D-03
     48  0.347066D-05  0.921625D-03 -0.264764D-04  0.176779D-03  0.519629D-04
                6             7             8             9            10
      6  0.205208D+00
      7  0.712119D-02  0.571220D+00
      8  0.148940D-01 -0.153127D-01  0.544988D+00
      9 -0.255413D-01 -0.179435D-01 -0.450235D-01  0.485630D+00
     10 -0.415081D-03 -0.292941D+00 -0.617754D-01 -0.429843D-02  0.317952D+00
     11  0.351446D-03 -0.614338D-01 -0.620084D-01 -0.309709D-03  0.682296D-01
     12  0.135128D-02 -0.258531D-02 -0.113075D-03 -0.457583D-01  0.537337D-02
     13  0.366695D-03 -0.126896D+00  0.123442D+00  0.112285D-01 -0.157659D-01
     14 -0.150695D-03  0.120477D+00 -0.232458D+00 -0.153661D-01 -0.485617D-02
     15  0.737674D-03  0.100345D-01 -0.135701D-01 -0.490575D-01  0.311007D-04
     16 -0.154549D-02 -0.583526D-01 -0.306404D-01  0.416201D-01 -0.539454D-02
     17 -0.360112D-02 -0.303488D-01 -0.137211D+00  0.120573D+00 -0.905902D-03
     18 -0.411908D-02  0.406375D-01  0.118835D+00 -0.206256D+00  0.278751D-03
     19 -0.728674D-03  0.464158D-02 -0.530832D-02  0.119603D-02  0.389945D-03
     20 -0.210488D-02  0.785765D-02 -0.173294D-01 -0.566129D-02  0.299713D-03
     21  0.256402D-02  0.153760D-01 -0.273705D-01 -0.385987D-02  0.411703D-03
     22  0.233850D-03  0.219659D-03 -0.861648D-03 -0.342993D-03 -0.377792D-04
     23 -0.848995D-03 -0.654228D-03  0.132632D-02  0.142748D-02  0.300993D-04
     24  0.103738D-02 -0.436970D-03 -0.605017D-03  0.132926D-02 -0.161266D-04
     25 -0.318536D-03 -0.177206D-02  0.234354D-02 -0.256879D-03  0.265936D-03
     26  0.364502D-03  0.413499D-02 -0.470760D-02  0.124622D-02 -0.344334D-04
     27  0.673378D-03  0.823325D-03 -0.111217D-02  0.110728D-02 -0.122218D-03
     28 -0.426784D-03  0.478525D-03 -0.101023D-02 -0.321986D-03  0.476158D-03
     29  0.247050D-03  0.242178D-03  0.149904D-02  0.679229D-03 -0.402988D-03
     30  0.637341D-04  0.621447D-03  0.363186D-03  0.206388D-03 -0.105231D-03
     31  0.172321D-02 -0.112119D-01 -0.110503D-01 -0.118811D-01  0.114948D-02
     32  0.135493D-03 -0.212675D-01 -0.494736D-02  0.463263D-03 -0.272819D-03
     33 -0.609210D-03 -0.334134D-01 -0.417996D-02 -0.521249D-02 -0.430962D-03
     34  0.958179D-03 -0.599881D-02 -0.763668D-04  0.164387D-02 -0.366143D-03
     35  0.287370D-03 -0.823146D-03  0.110738D-02  0.866988D-03 -0.158564D-04
     36  0.989775D-04 -0.260906D-03 -0.648709D-03  0.967962D-03  0.903940D-05
     37 -0.398834D-03  0.126837D-02  0.788792D-03  0.254728D-02 -0.269081D-03
     38 -0.494099D-03  0.445553D-03 -0.117765D-02 -0.332801D-02 -0.348323D-03
     39  0.113939D-02  0.609032D-03 -0.156742D-02 -0.318104D-03 -0.507230D-03
     40 -0.748419D-03  0.170094D-03  0.102169D-02 -0.142472D-02  0.548052D-03
     41 -0.455345D-04  0.514298D-03  0.255432D-03 -0.121936D-02  0.399626D-03
     42  0.146902D-02 -0.284560D-03 -0.143694D-02  0.197083D-02 -0.139140D-03
     43 -0.624996D-03  0.335748D-03  0.475368D-04  0.101532D-02 -0.427551D-03
     44 -0.423676D-03 -0.431884D-03  0.998817D-04  0.454320D-03 -0.242863D-03
     45  0.481962D-04 -0.449617D-03  0.456617D-04 -0.109611D-02 -0.778893D-04
     46 -0.696668D-05  0.196527D-03 -0.309499D-04  0.122211D-03  0.983532D-04
     47 -0.481830D-04  0.283877D-03  0.177234D-03  0.116731D-03  0.417209D-04
     48 -0.622528D-04 -0.992697D-04 -0.787812D-04  0.212464D-03 -0.884011D-04
               11            12            13            14            15
     11  0.635529D-01
     12  0.311239D-02  0.507750D-01
     13  0.262623D-01  0.190063D-02  0.134737D+00
     14  0.875631D-02  0.109891D-02 -0.133954D+00  0.251908D+00
     15  0.509384D-03 -0.128529D-02 -0.110127D-01  0.189980D-01  0.528761D-01
     16 -0.187719D-01  0.253312D-01  0.419583D-02  0.100306D-01 -0.151964D-01
     17 -0.508529D-02  0.492221D-02 -0.726211D-02 -0.150177D-01  0.209101D-01
     18 -0.112463D-02  0.107902D-02 -0.119642D-02 -0.155988D-02  0.253965D-02
     19 -0.956936D-03 -0.456529D-03 -0.521067D-03 -0.159815D-02 -0.236360D-02
     20  0.560148D-03  0.961591D-03 -0.743035D-03 -0.265177D-03 -0.158551D-02
     21  0.635332D-03  0.951432D-03 -0.106084D-02 -0.360280D-02 -0.497369D-02
     22 -0.614655D-04  0.145495D-03 -0.559238D-04 -0.721352D-04 -0.118562D-03
     23 -0.415977D-04 -0.498858D-04  0.119757D-03  0.431090D-03 -0.235100D-03
     24  0.861980D-05 -0.565144D-04 -0.735873D-05  0.102282D-03  0.109738D-03
     25  0.285545D-03  0.104293D-03  0.384666D-03  0.727271D-03  0.627822D-03
     26  0.229843D-03  0.339754D-03 -0.348688D-03 -0.767716D-03 -0.180460D-02
     27  0.105335D-03 -0.188105D-04 -0.417322D-03 -0.212270D-03 -0.159505D-03
     28  0.495877D-03  0.491876D-03  0.266034D-03  0.124021D-03 -0.979256D-04
     29 -0.193843D-03 -0.241546D-03 -0.140577D-03  0.144597D-03  0.319358D-03
     30 -0.292648D-03  0.112919D-03 -0.151827D-03  0.129904D-03 -0.335584D-04
     31  0.175712D-02  0.107418D-02 -0.778303D-04  0.221418D-02  0.813091D-03
     32 -0.196578D-02 -0.494873D-02  0.378416D-03 -0.591403D-03  0.549653D-04
     33 -0.353158D-02 -0.570502D-02 -0.127397D-03 -0.129326D-02  0.828091D-03
     34 -0.952131D-03 -0.174377D-02  0.108831D-03 -0.136668D-04  0.489463D-04
     35 -0.266093D-03 -0.246603D-03  0.319488D-03 -0.768487D-04  0.125309D-03
     36 -0.973999D-04 -0.121570D-03  0.595669D-04  0.150225D-03  0.970569D-04
     37  0.449547D-03 -0.911433D-04 -0.864011D-03  0.851681D-03  0.118530D-03
     38  0.100105D-02  0.106298D-02 -0.954289D-03  0.129314D-02  0.797948D-03
     39  0.134136D-02  0.993095D-03 -0.755411D-03  0.199790D-02 -0.513114D-03
     40 -0.316405D-03  0.524147D-03 -0.701435D-03 -0.111425D-02 -0.654714D-03
     41  0.864699D-04  0.498008D-03 -0.635068D-03 -0.618021D-03 -0.652373D-03
     42  0.157968D-03 -0.232400D-03  0.174025D-03  0.314557D-03  0.134768D-03
     43  0.964439D-04 -0.202453D-03  0.446627D-03  0.472455D-03  0.506339D-03
     44 -0.952685D-04 -0.127727D-03  0.421048D-03  0.346703D-03  0.428494D-03
     45 -0.100436D-03  0.283215D-03  0.590862D-04  0.116040D-03  0.998981D-04
     46  0.402382D-04 -0.311313D-04 -0.836619D-04 -0.886893D-04 -0.364740D-04
     47 -0.319713D-05  0.000000D+00 -0.984855D-04 -0.135518D-03 -0.438457D-04
     48  0.994960D-05 -0.749426D-04  0.145848D-03  0.131927D-03  0.174950D-03
               16            17            18            19            20
     16  0.583319D-01
     17  0.349284D-01  0.146479D+00
     18 -0.442133D-01 -0.129802D+00  0.228253D+00
     19 -0.148038D-03  0.343869D-03 -0.370580D-04  0.543910D+00
     20 -0.832853D-04  0.166938D-02  0.140148D-02  0.456969D-01  0.483229D+00
     21  0.554611D-03 -0.435447D-03  0.128603D-02  0.590509D-02 -0.106115D-01
     22  0.220718D-03 -0.166773D-03  0.231287D-03 -0.612770D-01 -0.383499D-01
     23  0.853706D-04  0.576744D-04 -0.105360D-02 -0.373995D-01 -0.145970D+00
     24  0.193992D-03  0.385125D-03  0.265902D-03  0.448167D-01  0.121554D+00
     25 -0.950317D-04 -0.779167D-04 -0.206021D-03 -0.617412D-01 -0.274509D-01
     26  0.114270D-03  0.181802D-03 -0.117289D-03 -0.268267D-01 -0.971561D-01
     27 -0.120994D-03  0.213405D-03  0.491981D-03 -0.529399D-01 -0.978570D-01
     28 -0.513274D-04  0.283204D-04  0.271015D-04 -0.301528D+00 -0.426829D-01
     29 -0.989340D-04 -0.931900D-04 -0.617021D-04 -0.439482D-01 -0.525520D-01
     30  0.987398D-04  0.445823D-04 -0.289525D-04 -0.129883D-02  0.199725D-03
     31  0.108728D-02 -0.991933D-04  0.322142D-02 -0.229125D-01  0.873166D-02
     32  0.401748D-03  0.933793D-03 -0.400206D-03  0.315946D-01  0.254079D-03
     33 -0.781648D-03  0.573813D-03 -0.187604D-03  0.460133D-02  0.125547D-02
     34  0.351798D-04  0.129152D-03 -0.138414D-03  0.148955D-02 -0.130385D-02
     35 -0.819056D-04 -0.531747D-04  0.579704D-05 -0.954591D-03  0.287318D-03
     36  0.200681D-03  0.199371D-03  0.153708D-03  0.460694D-03  0.167663D-03
     37 -0.555490D-03  0.544812D-03 -0.140991D-02 -0.716000D-02 -0.505795D-02
     38  0.132763D-03  0.117741D-03  0.931384D-03  0.714396D-03  0.337314D-02
     39  0.550252D-03 -0.238855D-03  0.298156D-03  0.183713D-03  0.910561D-03
     40 -0.752593D-03 -0.108740D-02  0.305808D-03  0.385445D-03  0.157711D-02
     41 -0.467789D-03 -0.592496D-03  0.305561D-03  0.250125D-02  0.924766D-03
     42 -0.150927D-03  0.350109D-03  0.826540D-05 -0.574667D-04 -0.604046D-03
     43  0.116332D-03  0.247429D-03 -0.186085D-03  0.753633D-04 -0.154182D-02
     44 -0.342705D-04 -0.104498D-03 -0.135880D-03 -0.904609D-03 -0.928312D-03
     45 -0.137220D-05 -0.387577D-03  0.478979D-03 -0.545856D-03  0.193371D-03
     46 -0.722687D-04  0.682882D-04 -0.689052D-04  0.878269D-04 -0.485878D-05
     47  0.171328D-04  0.970284D-04  0.138835D-04  0.329822D-03 -0.604377D-04
     48 -0.257940D-04  0.715661D-04 -0.698505D-04 -0.325748D-03 -0.291651D-03
               21            22            23            24            25
     21  0.565558D+00
     22  0.460927D-01  0.637803D-01
     23  0.120232D+00  0.386669D-01  0.160782D+00
     24 -0.196800D+00 -0.508862D-01 -0.133491D+00  0.211167D+00
     25 -0.538084D-01  0.126825D-02  0.426247D-02  0.703745D-02  0.640152D-01
     26 -0.968885D-01  0.600227D-02  0.100180D-01  0.171051D-01  0.278836D-01
     27 -0.239232D+00 -0.663689D-02 -0.111001D-01 -0.201508D-01  0.591209D-01
     28 -0.132298D-02 -0.638696D-02 -0.123611D-02 -0.634886D-04 -0.669165D-02
     29 -0.960594D-05 -0.194705D-01 -0.351492D-02 -0.168288D-02 -0.138988D-01
     30 -0.464591D-01  0.250208D-01  0.327688D-02  0.758336D-03 -0.286266D-01
     31  0.238962D-02  0.179744D-02 -0.306871D-02  0.146475D-02  0.586421D-03
     32  0.291929D-02 -0.556610D-03  0.117377D-02 -0.624591D-03  0.128851D-02
     33 -0.103307D-02 -0.102834D-02  0.181094D-03  0.257000D-03  0.160565D-02
[...]
    Y7       -4.04722   0.00000   0.00000  -0.00011  -0.00009  -4.04731
    Z7       -0.53219   0.00000   0.00000   0.00021   0.00022  -0.53197
    X8        0.31556   0.00000   0.00000   0.00012   0.00016   0.31572
    Y8       -5.33827   0.00000   0.00000   0.00024   0.00025  -5.33802
    Z8        1.01213   0.00000   0.00000   0.00057   0.00059   1.01272
    X9        0.29520   0.00000   0.00000  -0.00050  -0.00047   0.29473
    Y9       -4.98705   0.00000   0.00000  -0.00048  -0.00047  -4.98752
    Z9       -2.31104   0.00000   0.00000   0.00050   0.00052  -2.31052
   X10        2.81557   0.00000   0.00000  -0.00014  -0.00012   2.81544
   Y10       -3.73522   0.00000   0.00000  -0.00014  -0.00011  -3.73533
   Z10       -0.52012   0.00000   0.00000  -0.00023  -0.00022  -0.52034
   X11       -3.48580   0.00000   0.00000  -0.00006  -0.00005  -3.48585
   Y11       -1.86398   0.00000   0.00000   0.00018   0.00015  -1.86383
   Z11       -0.61542   0.00000   0.00000   0.00018   0.00020  -0.61521
   X12       -3.97734   0.00000   0.00000  -0.00024  -0.00023  -3.97757
   Y12       -3.14364   0.00000   0.00000   0.00046   0.00043  -3.14321
   Z12       -2.18271   0.00000   0.00000   0.00001   0.00003  -2.18268
   X13       -4.99950   0.00000   0.00000   0.00005   0.00004  -4.99946
   Y13       -0.02018   0.00000   0.00000   0.00018   0.00014  -0.02003
   Z13       -0.15785  -0.00001   0.00000   0.00062   0.00065  -0.15720
   X14       -4.37340   0.00000   0.00000  -0.00003  -0.00001  -4.37341
   Y14       -3.68060   0.00000   0.00000  -0.00018  -0.00021  -3.68080
   Z14        1.85613   0.00000   0.00000  -0.00012  -0.00009   1.85604
   X15       -6.43306  -0.00001   0.00000   0.00015   0.00019  -6.43287
   Y15       -5.14342   0.00000   0.00000  -0.00031  -0.00036  -5.14378
   Z15        1.18697   0.00001   0.00000  -0.00045  -0.00042   1.18655
   X16       -7.74928   0.00001   0.00000   0.00003   0.00006  -7.74922
   Y16       -4.50046  -0.00001   0.00000  -0.00062  -0.00068  -4.50114
   Z16        2.28902  -0.00001   0.00000  -0.00047  -0.00044   2.28857
         Item               Value     Threshold  Converged?
 Maximum Force            0.000013     0.000450     YES
 RMS     Force            0.000004     0.000300     YES
 Maximum Displacement     0.000683     0.001800     YES
 RMS     Displacement     0.000324     0.001200     YES
 Predicted change in Energy=-3.999794D-09
 Optimization completed.
    -- Stationary point found.
 GradGradGradGradGradGradGradGradGradGradGradGradGradGradGradGradGradGrad


 Test job not archived.
 1\1\GINC-NODE55\Freq\UB3LYP\CBSB7\C4H9O3(2)\NYEE\11-Jul-2014\0\\# freq
  nosymm b3lyp/cbsb7 iop(7/33=1)\\Title Card Required\\0,2\C,-0.339499,
 -0.813072,-0.128409\H,-0.052845,-0.162784,-0.968028\C,-0.009155,-0.078
 552,1.174996\H,1.049625,0.19039,1.206235\H,-0.603645,0.831961,1.261326
 \H,-0.223519,-0.707691,2.04298\C,0.409633,-2.141694,-0.281623\H,0.1669
 87,-2.824889,0.535595\H,0.156214,-2.639031,-1.222951\H,1.489934,-1.976
 594,-0.275237\C,-1.844606,-0.986376,-0.325664\H,-2.104716,-1.663544,-1
 .155041\O,-2.645624,-0.010678,-0.083529\O,-2.314305,-1.947687,0.982222
 \O,-3.40423,-2.721779,0.628119\H,-4.100744,-2.381541,1.211295\\Version
 =AM64L-G03RevD.01\HF=-383.4512987\S2=0.767633\S2-1=0.\S2A=0.750065\RMS
 D=6.116e-09\RMSF=3.940e-06\ZeroPoint=0.1291928\Thermal=0.1377919\Dipol
 e=0.0490546,-0.4689247,0.0852572\DipoleDeriv=-0.1103063,-0.0587222,0.0
 372267,-0.0523083,0.1844003,0.0037798,-0.0112946,-0.0267002,0.1029195,
 -0.0012464,0.0111146,0.0188273,-0.0062692,-0.0287578,0.0671947,-0.0019
 499,0.0633653,-0.0870884,0.0379845,0.0177538,-0.020386,0.0580907,0.008
 7698,-0.0585652,0.0006477,-0.0216833,0.0254094,-0.161519,-0.0804999,-0
 .0267883,-0.0550646,0.0638012,-0.0257037,-0.0018467,-0.0190677,0.04234
 09,0.0570195,0.1176895,0.0222428,0.0704744,-0.0456827,-0.0487129,0.014
 54,0.0013508,0.0423063,0.0686147,-0.035609,0.0381446,-0.0267626,-0.012
 1486,0.1100269,0.0151582,0.0418508,-0.0588926,0.0127148,0.0202145,-0.0
 190524,-0.0026729,-0.0099969,-0.0009254,-0.0256282,-0.0305801,0.076452
 7,0.0666222,-0.0452198,0.0562644,0.0024226,-0.0045732,0.0481893,0.0233
 514,0.0916905,-0.0405575,0.0599822,-0.0232152,-0.0700999,0.0028985,-0.
 0180712,-0.0805039,-0.0335785,-0.1078902,-0.1053775,-0.172226,-0.00532
 67,0.004031,-0.0271444,0.057013,-0.003514,-0.004419,-0.0090467,0.08258
 2,1.1382255,0.3196163,-0.2996054,-0.2978714,-0.4852708,0.6868621,-0.11
 40102,0.3955562,0.2892376,-0.0341072,-0.0700626,-0.0219268,-0.050309,0
 .0150474,-0.2039171,0.0064928,-0.1042476,-0.0915614,-0.8260471,-0.2949
 382,0.3385505,0.3058289,0.0529455,-0.3883791,0.1769317,0.0603265,-0.38
 43198,0.1654904,0.8317204,-0.3365082,0.3240705,0.516985,-0.30659,0.051
 7249,-0.1557617,-0.097101,-0.6119172,-0.7433857,0.2865442,-0.2413722,-
 0.572309,0.2806469,-0.0618974,0.0306254,-0.1297896,0.3107153,0.0388702
 ,-0.0074646,-0.0040111,0.2778481,-0.0798884,-0.0342222,-0.2097881,0.33
 34394\Polar=67.7187788,8.0087642,71.8154301,-3.237344,-4.4020261,56.55
 64158\PG=C01 [X(C4H9O3)]\NImag=1\\0.45950332,0.00442708,0.50476425,-0.
 01240203,-0.03345923,0.52535165,-0.06699710,-0.04254918,0.05286658,0.0
 7433340,-0.04015383,-0.12915256,0.11043472,0.04281739,0.14677310,0.049
 40617,0.10935323,-0.18405902,-0.05459552,-0.11791594,0.20520785,-0.083
 58302,-0.00764882,-0.01974950,0.00222395,0.00396529,0.00712119,0.57122
 020,-0.00638118,-0.09869447,-0.03843211,0.00480348,0.00908026,0.014894
 03,-0.01531269,0.54498819,-0.01594962,-0.04093696,-0.15432512,-0.00695
 401,-0.01398176,-0.02554134,-0.01794353,-0.04502355,0.48563017,-0.0061
 2929,-0.00045769,0.00009674,0.00045063,0.00031172,-0.00041508,-0.29294
 062,-0.06177542,-0.00429843,0.31795236,-0.01585174,-0.00517547,-0.0007
 7539,0.00072768,0.00064815,0.00035145,-0.06143376,-0.06200838,-0.00030
 971,0.06822959,0.06355293,-0.02979769,-0.00705556,-0.00229310,-0.00003
 717,0.00078717,0.00135128,-0.00258531,-0.00011307,-0.04575828,0.005373
 37,0.00311239,0.05077497,0.00468672,-0.00711292,0.00079495,0.00014022,
 0.00030593,0.00036670,-0.12689567,0.12344248,0.01122848,-0.01576591,0.
 02626227,0.00190063,0.13473658,0.00697862,-0.01358639,-0.00085470,-0.0
 0017852,0.00063681,-0.00015069,0.12047701,-0.23245780,-0.01536612,-0.0
 0485617,0.00875631,0.00109891,-0.13395422,0.25190789,0.01668675,-0.024
 79617,-0.00157528,0.00061326,0.00054423,0.00073767,0.01003450,-0.01357
 014,-0.04905753,0.00003110,0.00050938,-0.00128529,-0.01101269,0.018997
 98,0.05287614,0.00097294,0.00517016,-0.00651372,0.00046175,-0.00070192
 ,-0.00154549,-0.05835261,-0.03064043,0.04162007,-0.00539454,-0.0187718
 8,0.02533121,0.00419583,0.01003056,-0.01519636,0.05833187,0.00445785,0
 .00953741,-0.01377789,-0.00080008,-0.00091684,-0.00360112,-0.03034877,
 -0.13721111,0.12057251,-0.00090590,-0.00508529,0.00492221,-0.00726211,
 -0.01501767,0.02091007,0.03492842,0.14647944,0.00468684,0.01599549,-0.
 02419364,-0.00193268,-0.00323400,-0.00411908,0.04063755,0.11883547,-0.
 20625552,0.00027875,-0.00112463,0.00107902,-0.00119642,-0.00155988,0.0
 0253965,-0.04421325,-0.12980188,0.22825295,-0.09995420,0.04322402,0.00
 159011,0.00426167,-0.00650786,-0.00072867,0.00464158,-0.00530832,0.001
 19603,0.00038994,-0.00095694,-0.00045653,-0.00052107,-0.00159815,-0.00
 236360,-0.00014804,0.00034387,-0.00003706,0.54391045,0.04066406,-0.155
 28366,-0.00792793,0.01239147,-0.02075237,-0.00210488,0.00785765,-0.017
 32935,-0.00566129,0.00029971,0.00056015,0.00096159,-0.00074304,-0.0002
 6518,-0.00158551,-0.00008329,0.00166938,0.00140148,0.04569685,0.483228
 89,0.00123332,-0.00603702,-0.07971403,-0.01346067,0.02127994,0.0025640
 2,0.01537602,-0.02737047,-0.00385987,0.00041170,0.00063533,0.00095143,
 -0.00106084,-0.00360280,-0.00497369,0.00055461,-0.00043545,0.00128603,
 0.00590509,-0.01061145,0.56555795,0.00347423,0.01074953,-0.01340306,-0
 .00131824,0.00322644,0.00023385,0.00021966,-0.00086165,-0.00034299,-0.
 00003778,-0.00006147,0.00014549,-0.00005592,-0.00007214,-0.00011856,0.
 00022072,-0.00016677,0.00023129,-0.06127696,-0.03834993,0.04609275,0.0
 6378031,-0.00550286,-0.01925967,0.02199320,0.00357681,-0.00438861,-0.0
 0084900,-0.00065423,0.00132632,0.00142748,0.00003010,-0.00004160,-0.00
 004989,0.00011976,0.00043109,-0.00023510,0.00008537,0.00005767,-0.0010
 5360,-0.03739948,-0.14597033,0.12023151,0.03866687,0.16078249,-0.00234
 076,-0.00202613,0.00238132,0.00031454,-0.00111613,0.00103738,-0.000436
 97,-0.00060502,0.00132926,-0.00001613,0.00000862,-0.00005651,-0.000007
 36,0.00010228,0.00010974,0.00019399,0.00038512,0.00026590,0.04481672,0
 .12155393,-0.19680046,-0.05088624,-0.13349071,0.21116655,0.00352323,0.
 00620371,0.01551953,0.00052128,-0.00059560,-0.00031854,-0.00177206,0.0
 0234354,-0.00025688,0.00026594,0.00028554,0.00010429,0.00038467,0.0007
 2727,0.00062782,-0.00009503,-0.00007792,-0.00020602,-0.06174117,-0.027
 45089,-0.05380844,0.00126825,0.00426247,0.00703745,0.06401524,-0.00805
 179,-0.01263611,-0.02563946,-0.00076536,0.00058737,0.00036450,0.004134
 99,-0.00470760,0.00124622,-0.00003443,0.00022984,0.00033975,-0.0003486
 9,-0.00076772,-0.00180460,0.00011427,0.00018180,-0.00011729,-0.0268266
 7,-0.09715607,-0.09688850,0.00600227,0.01001802,0.01710513,0.02788356,
 0.10612453,0.00036834,-0.00049845,-0.00217362,0.00029459,-0.00038544,0
 .00067338,0.00082332,-0.00111217,0.00110728,-0.00012222,0.00010533,-0.
 00001881,-0.00041732,-0.00021227,-0.00015950,-0.00012099,0.00021341,0.
 00049198,-0.05293991,-0.09785705,-0.23923236,-0.00663689,-0.01110010,-
 0.02015081,0.05912093,0.10953566,0.25883165,-0.01570493,-0.00244496,-0
 .00067431,0.00071627,0.00003695,-0.00042678,0.00047852,-0.00101023,-0.
 00032199,0.00047616,0.00049588,0.00049188,0.00026603,0.00012402,-0.000
 09793,-0.00005133,0.00002832,0.00002710,-0.30152791,-0.04268291,-0.001
 32298,-0.00638696,-0.00123611,-0.00006349,-0.00669165,-0.00136119,-0.0
 0023816,0.32815697,0.03113528,0.00331351,0.00047553,-0.00068528,0.0014
 8848,0.00024705,0.00024218,0.00149904,0.00067923,-0.00040299,-0.000193
 84,-0.00024155,-0.00014058,0.00014460,0.00031936,-0.00009893,-0.000093
 19,-0.00006170,-0.04394815,-0.05255203,-0.00000961,-0.01947051,-0.0035
 1492,-0.00168288,-0.01389885,-0.00308623,0.00089209,0.04482214,0.05827
 815,0.00293614,0.00024015,-0.00124531,-0.00054835,-0.00010051,0.000063
 73,0.00062145,0.00036319,0.00020639,-0.00010523,-0.00029265,0.00011292
 ,-0.00015183,0.00012990,-0.00003356,0.00009874,0.00004458,-0.00002895,
 -0.00129883,0.00019972,-0.04645910,0.02502085,0.00327688,0.00075834,-0
 .02862663,-0.00420066,0.00023627,0.00176338,0.00061985,0.04603079,-0.1
 4908728,-0.01597572,-0.02037774,-0.01131957,-0.00294690,0.00172321,-0.
 01121186,-0.01105027,-0.01188107,0.00114948,0.00175712,0.00107418,-0.0
 0007783,0.00221418,0.00081309,0.00108728,-0.00009919,0.00322142,-0.022
 91250,0.00873166,0.00238962,0.00179744,-0.00306871,0.00146475,0.000586
 42,-0.00161507,-0.00162664,0.00152441,-0.00024054,-0.00055104,0.532475
 81,-0.02632927,-0.06977461,-0.02764206,-0.01502302,-0.00286792,0.00013
 549,-0.02126755,-0.00494736,0.00046326,-0.00027282,-0.00196578,-0.0049
 4873,0.00037842,-0.00059140,0.00005497,0.00040175,0.00093379,-0.000400
 21,0.03159456,0.00025408,0.00291929,-0.00055661,0.00117377,-0.00062459
 ,0.00128851,0.00018498,-0.00033468,0.00260974,-0.00456864,-0.00039135,
 -0.06043528,0.29568978,-0.02078226,-0.01350057,-0.08122051,0.02537735,
 0.00454545,-0.00060921,-0.03341340,-0.00417996,-0.00521249,-0.00043096
 ,-0.00353158,-0.00570502,-0.00012740,-0.00129326,0.00082809,-0.0007816
 5,0.00057381,-0.00018760,0.00460133,0.00125547,-0.00103307,-0.00102834
 ,0.00018109,0.00025700,0.00160565,-0.00102801,-0.00032893,0.00067257,-
 0.00177603,0.00010915,0.02125214,0.31572017,0.35479134,-0.00565167,-0.
 01458929,-0.02535889,0.00095204,-0.00002789,0.00095818,-0.00599881,-0.
 00007637,0.00164387,-0.00036614,-0.00095213,-0.00174377,0.00010883,-0.
 00001367,0.00004895,0.00003518,0.00012915,-0.00013841,0.00148955,-0.00
 130385,-0.00096145,-0.00013130,0.00022333,-0.00006562,-0.00038382,0.00
 074776,0.00074714,0.00033382,0.00005062,0.00038927,-0.07718318,-0.0393
 6518,-0.05430227,0.07759718,0.00070574,0.00131833,-0.00758301,0.000469
 27,-0.00009873,0.00028737,-0.00082315,0.00110738,0.00086699,-0.0000158
 6,-0.00026609,-0.00024660,0.00031949,-0.00007685,0.00012531,-0.0000819
 1,-0.00005317,0.00000580,-0.00095459,0.00028732,0.00016984,0.00008014,
 -0.00016995,0.00021602,-0.00015005,0.00061473,0.00036661,-0.00023068,0
 .00034776,0.00032205,-0.04928761,-0.11334543,-0.11751425,0.03556116,0.
 14860167,0.00066266,-0.00441749,0.00153718,-0.00145067,-0.00057952,0.0
 0009898,-0.00026091,-0.00064871,0.00096796,0.00000904,-0.00009740,-0.0
 0012157,0.00005957,0.00015023,0.00009706,0.00020068,0.00019937,0.00015
 371,0.00046069,0.00016766,0.00001841,-0.00000596,0.00008141,-0.0000028
 5,-0.00044356,0.00053853,0.00038226,0.00001441,0.00025562,0.00012590,-
 0.05266774,-0.10752110,-0.17403422,0.04941557,0.12242803,0.19349178,-0
 .03510466,0.04030148,0.00247809,0.00206416,0.00134872,-0.00039883,0.00
 126837,0.00078879,0.00254728,-0.00026908,0.00044955,-0.00009114,-0.000
 86401,0.00085168,0.00011853,-0.00055549,0.00054481,-0.00140991,-0.0071
 6000,-0.00505795,-0.00096519,-0.00076457,0.00123182,-0.00090883,0.0003
 6797,-0.00001953,0.00038866,-0.00155329,0.00314087,-0.00000242,-0.2132
 0206,0.08571865,0.08804703,0.00820731,0.01815657,0.00511152,0.22424910
 ,0.01834036,-0.00422407,0.00749133,-0.00126516,-0.00041517,-0.00049410
 ,0.00044555,-0.00117765,-0.00332801,-0.00034832,0.00100105,0.00106298,
 -0.00095429,0.00129314,0.00079795,0.00013276,0.00011774,0.00093138,0.0
 0071440,0.00337314,-0.00071899,0.00042984,-0.00085283,0.00090548,-0.00
 061603,0.00035473,0.00031873,0.00053000,-0.00116652,0.00017986,0.16535
 602,-0.17459536,-0.13885034,0.02226084,-0.03617658,-0.01228514,-0.1886
 7231,0.29432708,0.00213186,-0.00131887,0.01017278,-0.00234410,-0.00066
 352,0.00113939,0.00060903,-0.00156742,-0.00031810,-0.00050723,0.001341
 36,0.00099309,-0.00075541,0.00199790,-0.00051311,0.00055025,-0.0002388
 5,0.00029816,0.00018371,0.00091056,0.00177285,0.00039338,-0.00045024,0
 .00002665,-0.00035895,0.00049797,0.00024796,0.00034122,-0.00021509,0.0
 0009511,0.03627325,-0.05161321,-0.08919254,0.01780251,-0.02510865,0.00
 370720,-0.04498854,0.06641483,0.06456147,-0.00942305,-0.01769239,0.020
 83543,-0.00520694,-0.00130347,-0.00074842,0.00017009,0.00102169,-0.001
 42472,0.00054805,-0.00031640,0.00052415,-0.00070143,-0.00111425,-0.000
 65471,-0.00075259,-0.00108740,0.00030581,0.00038545,0.00157711,-0.0004
 0890,-0.00050473,-0.00079193,0.00171126,-0.00017186,0.00014772,0.00003
 168,0.00016733,-0.00117998,0.00067017,-0.04959766,0.09987154,-0.043704
 18,0.00153464,-0.01029568,0.00041305,0.04006882,-0.03874182,-0.0164044
 1,0.24168426,-0.00432181,-0.01112802,0.01327856,-0.00299287,-0.0009411
 0,-0.00004553,0.00051430,0.00025543,-0.00121936,0.00039963,0.00008647,
 0.00049801,-0.00063507,-0.00061802,-0.00065237,-0.00046779,-0.00059250
 ,0.00030556,0.00250125,0.00092477,0.00073507,0.00073902,-0.00008435,-0
 .00033941,-0.00024352,0.00002793,-0.00007833,0.00052666,-0.00054470,-0
 .00031326,-0.02783039,0.11622036,-0.04585555,-0.00325817,-0.00487620,0
 .00335981,0.05492278,-0.09334032,0.00421526,0.08537851,0.07454805,0.00
 217277,0.00283218,-0.00367637,-0.00003851,-0.00005859,0.00146902,-0.00
 028456,-0.00143694,0.00197083,-0.00013914,0.00015797,-0.00023240,0.000
 17403,0.00031456,0.00013477,-0.00015093,0.00035011,0.00000827,-0.00005
 747,-0.00060405,-0.00000151,0.00045185,-0.00002113,-0.00022718,-0.0000
 6114,0.00009109,0.00005113,-0.00006853,0.00024668,0.00004912,-0.007500
 49,-0.10546438,-0.01732173,0.01077790,0.02396640,-0.02912105,-0.039444
 27,0.06633714,0.00122076,0.08576193,0.05129300,0.11532535,-0.00099242,
 -0.00115223,0.00335151,-0.00106828,0.00034481,-0.00062500,0.00033575,0
 .00004754,0.00101532,-0.00042755,0.00009644,-0.00020245,0.00044663,0.0
 0047246,0.00050634,0.00011633,0.00024743,-0.00018608,0.00007536,-0.001
 54182,-0.00003385,-0.00026482,0.00048178,-0.00077606,-0.00001218,-0.00
 002649,0.00029397,-0.00027094,0.00066292,-0.00022194,0.00049871,-0.062
 61593,0.01582271,-0.00077604,0.00668413,-0.00159895,-0.01929081,0.0233
 4966,0.00832063,-0.17936914,-0.09995677,-0.06756387,0.44237314,0.00026
 754,0.00139941,0.00083946,0.00017246,0.00044735,-0.00042368,-0.0004318
 8,0.00009988,0.00045432,-0.00024286,-0.00009527,-0.00012773,0.00042105
 ,0.00034670,0.00042849,-0.00003427,-0.00010450,-0.00013588,-0.00090461
 ,-0.00092831,-0.00018113,-0.00049507,0.00061438,-0.00039323,0.00007583
 ,0.00003587,0.00008387,-0.00021936,0.00074210,-0.00013770,0.00094814,-
 0.04498752,0.00631931,0.00060753,0.00291520,-0.00136916,-0.01554977,0.
 01218570,0.00603671,-0.08082978,-0.07958418,-0.05515228,-0.00416585,0.
 20269249,0.00098405,0.00470378,-0.00494046,0.00171858,0.00039193,0.000
 04820,-0.00044962,0.00004566,-0.00109611,-0.00007789,-0.00010044,0.000
 28321,0.00005909,0.00011604,0.00009990,-0.00000137,-0.00038758,0.00047
 898,-0.00054586,0.00019337,-0.00006454,-0.00008752,-0.00005481,0.00003
 535,0.00004274,-0.00001348,0.00000896,-0.00000438,0.00004883,0.0000184
 5,0.02080072,-0.01252084,0.01893264,0.00112013,0.00105041,0.00192792,-
 0.00638616,0.00822143,0.00536546,-0.02719658,-0.03089196,-0.07969922,-
 0.17391526,0.16777563,0.26435210,0.00046718,-0.00045277,0.00094630,-0.
 00021525,-0.00011980,-0.00000697,0.00019653,-0.00003095,0.00012221,0.0
 0009835,0.00004024,-0.00003113,-0.00008366,-0.00008869,-0.00003647,-0.
 00007227,0.00006829,-0.00006891,0.00008783,-0.00000486,0.00005921,-0.0
 0001932,-0.00002499,-0.00003725,-0.00006522,0.00001865,0.00003350,0.00
 006750,0.00001180,0.00000627,-0.00452760,0.00400249,-0.00280833,0.0002
 3241,-0.00013698,0.00008060,0.00253824,-0.00096150,-0.00124721,-0.0388
 3123,-0.00527576,0.01597042,-0.24137374,0.10038091,0.18393933,0.281500
 27,-0.00038405,-0.00141789,0.00157896,-0.00069908,-0.00012823,-0.00004
 818,0.00028388,0.00017723,0.00011673,0.00004172,-0.00000320,0.00000012
 ,-0.00009849,-0.00013552,-0.00004385,0.00001713,0.00009703,0.00001388,
 0.00032982,-0.00006044,-0.00011557,0.00014004,-0.00012151,0.00000150,-
 0.00003761,-0.00000607,0.00006279,0.00001172,-0.00009357,0.00005996,-0
 .00645744,0.00318724,-0.00106576,0.00000615,-0.00012938,-0.00026214,0.
 00184383,-0.00070410,-0.00023876,-0.03464347,-0.00035363,0.01714824,0.
 13707192,-0.09577930,-0.13857798,-0.09742608,0.09547133,0.00000347,0.0
 0092163,-0.00002648,0.00017678,0.00005196,-0.00006225,-0.00009927,-0.0
 0007878,0.00021246,-0.00008840,0.00000995,-0.00007494,0.00014585,0.000
 13193,0.00017495,-0.00002579,0.00007157,-0.00006985,-0.00032575,-0.000
 29165,-0.00001208,-0.00005989,0.00011299,-0.00012968,0.00002175,-0.000
 02686,0.00003317,-0.00009202,0.00020262,-0.00003926,0.00559233,-0.0078
 3205,-0.00007291,-0.00033310,0.00064770,0.00077133,-0.00409581,0.00301
 547,0.00042287,-0.01971154,0.00571051,0.01005021,0.21581296,-0.1240170
 3,-0.20575084,-0.19692157,0.12137005,0.19457330\\0.00000064,0.00000086
 ,0.00000164,-0.00000110,0.00000097,0.00000001,0.00000315,-0.00000106,0
 .00000016,0.00000264,-0.00000294,-0.00000101,0.00000266,-0.00000248,0.
 00000289,0.00000348,-0.00000395,0.00000021,-0.00000308,-0.00000006,-0.
 00000386,-0.00000150,-0.00000186,-0.00000392,-0.00000308,0.00000155,-0
 .00000388,-0.00000129,-0.00000127,-0.00000408,-0.00000384,0.00000110,-
 0.00000087,-0.00000083,0.00000319,0.00000026,0.00000170,0.00000150,0.0
 0000515,0.00000052,-0.00000143,0.00000317,0.00001044,-0.00000114,-0.00
 000841,-0.00001052,0.00000702,0.00001253\\\@


 THOSE WHO TRY TO PASS CHEMISTRY OFF AS A NEW SCIENCE
 SHOW HOW LITTLE KNOWLEDGE THEY HAVE OF THE CHARACTER
 AND LITERATURE OF THE ANCIENTS.
   -- NICOLAS LEFEVRE
 "COURS DE CHYMIE" J.-N.LELOUP, PARIS, 1751
 Job cpu time:  0 days  1 hours 10 minutes  0.1 seconds.
 File lengths (MBytes):  RWF=    125 Int=      0 D2E=      0 Chk=      8 Scr=      1
 Normal termination of Gaussian 03 at Fri Jul 11 15:28:19 2014.
