 Entering Gaussian System, Link 0=g03
 Input=TS02bmkfreq.gjf
 Output=TS02bmkfreq.log
 Initial command:
 /opt/g03/l1.exe /scratch/nyee/Gau-6292.inp -scrdir=/scratch/nyee/
 Entering Link 1 = /opt/g03/l1.exe PID=      6294.
  
 Copyright (c) 1988,1990,1992,1993,1995,1998,2003,2004, Gaussian, Inc.
                  All Rights Reserved.
  
 This is the Gaussian(R) 03 program.  It is based on the
 the Gaussian(R) 98 system (copyright 1998, Gaussian, Inc.),
 the Gaussian(R) 94 system (copyright 1995, Gaussian, Inc.),
 the Gaussian 92(TM) system (copyright 1992, Gaussian, Inc.),
 the Gaussian 90(TM) system (copyright 1990, Gaussian, Inc.),
 the Gaussian 88(TM) system (copyright 1988, Gaussian, Inc.),
 the Gaussian 86(TM) system (copyright 1986, Carnegie Mellon
 University), and the Gaussian 82(TM) system (copyright 1983,
 Carnegie Mellon University). Gaussian is a federally registered
 trademark of Gaussian, Inc.
  
 This software contains proprietary and confidential information,
 including trade secrets, belonging to Gaussian, Inc.
  
 This software is provided under written license and may be
 used, copied, transmitted, or stored only in accord with that
 written license.
  
 The following legend is applicable only to US Government
 contracts under FAR:
  
                    RESTRICTED RIGHTS LEGEND
  
 Use, reproduction and disclosure by the US Government is
 subject to restrictions as set forth in subparagraphs (a)
 and (c) of the Commercial Computer Software - Restricted
 Rights clause in FAR 52.227-19.
  
 Gaussian, Inc.
 340 Quinnipiac St., Bldg. 40, Wallingford CT 06492
  
  
 ---------------------------------------------------------------
 Warning -- This program may not be used in any manner that
 competes with the business of Gaussian, Inc. or will provide
 assistance to any competitor of Gaussian, Inc.  The licensee
 of this program is prohibited from giving any competitor of
 Gaussian, Inc. access to this program.  By using this program,
 the user acknowledges that Gaussian, Inc. is engaged in the
 business of creating and licensing software in the field of
 computational chemistry and represents and warrants to the
 licensee that it is not a competitor of Gaussian, Inc. and that
 it will not use this program in any manner prohibited above.
 ---------------------------------------------------------------
  

 Cite this work as:
 Gaussian 03, Revision D.01,
 M. J. Frisch, G. W. Trucks, H. B. Schlegel, G. E. Scuseria, 
 M. A. Robb, J. R. Cheeseman, J. A. Montgomery, Jr., T. Vreven, 
 K. N. Kudin, J. C. Burant, J. M. Millam, S. S. Iyengar, J. Tomasi, 
 V. Barone, B. Mennucci, M. Cossi, G. Scalmani, N. Rega, 
 G. A. Petersson, H. Nakatsuji, M. Hada, M. Ehara, K. Toyota, 
 R. Fukuda, J. Hasegawa, M. Ishida, T. Nakajima, Y. Honda, O. Kitao, 
 H. Nakai, M. Klene, X. Li, J. E. Knox, H. P. Hratchian, J. B. Cross, 
 V. Bakken, C. Adamo, J. Jaramillo, R. Gomperts, R. E. Stratmann, 
 O. Yazyev, A. J. Austin, R. Cammi, C. Pomelli, J. W. Ochterski, 
 P. Y. Ayala, K. Morokuma, G. A. Voth, P. Salvador, J. J. Dannenberg, 
 V. G. Zakrzewski, S. Dapprich, A. D. Daniels, M. C. Strain, 
 O. Farkas, D. K. Malick, A. D. Rabuck, K. Raghavachari, 
 J. B. Foresman, J. V. Ortiz, Q. Cui, A. G. Baboul, S. Clifford, 
 J. Cioslowski, B. B. Stefanov, G. Liu, A. Liashenko, P. Piskorz, 
 I. Komaromi, R. L. Martin, D. J. Fox, T. Keith, M. A. Al-Laham, 
 C. Y. Peng, A. Nanayakkara, M. Challacombe, P. M. W. Gill, 
 B. Johnson, W. Chen, M. W. Wong, C. Gonzalez, and J. A. Pople, 
 Gaussian, Inc., Wallingford CT, 2004.
 
 ******************************************
 Gaussian 03:  AM64L-G03RevD.01 13-Oct-2005
                15-Jul-2014 
 ******************************************
 %chk=TS02bmk.chk
 %mem=1000mb
 %nproc=8
 Will use up to    8 processors via shared memory.
 -------------------------------------
 # freq nosymm b3lyp/cbsb7 iop(7/33=1)
 -------------------------------------
 1/10=4,30=1,38=1/1,3;
 2/15=1,17=6,18=5,40=1/2;
 3/5=4,6=6,7=700,11=2,16=1,25=1,30=1,74=-5/1,2,3;
 4//1;
 5/5=2,38=5/2;
 8/6=4,10=90,11=11/1;
 11/6=1,8=1,9=11,15=111,16=1,31=1/1,2,10;
 10/6=1,31=1/2;
 6/7=2,8=2,9=2,10=2,18=1,28=1/1;
 7/8=1,10=1,25=1,30=1,33=1/1,2,3,16;
 1/10=4,30=1/3;
 99//99;
 -------------------
 Title Card Required
 -------------------
 Symbolic Z-matrix:
 Charge =  0 Multiplicity = 2
 O                    -3.94649   2.19507   0.43481 
 H                    -4.24213   1.37745  -0.01106 
 O                    -2.54174   2.05709   0.36673 
 C                    -2.18043   0.79932  -0.01025 
 O                    -3.01257   0.01118  -0.43105 
 C                    -0.67858   0.75411  -0.32203 
 H                    -0.16963   1.39059   0.40847 
 C                    -0.48764   1.35122  -1.73551 
 H                    -0.85502   2.37947  -1.78281 
 H                     0.57556   1.34833  -1.99277 
 H                    -1.02504   0.74885  -2.47472 
 C                    -0.15519  -0.68657  -0.24351 
 H                     0.89634  -0.71446  -0.54267 
 H                    -0.23352  -1.08907   0.77105 
 H                    -0.72841  -1.33302  -0.91401 
 H                    -2.05029   0.20102   1.50163 
 

 GradGradGradGradGradGradGradGradGradGradGradGradGradGradGradGradGradGrad
 Berny optimization.
 Initialization pass.
 Trust Radius=3.00D-01 FncErr=1.00D-07 GrdErr=1.00D-07
 Number of steps in this run=   2 maximum allowed number of steps=   2.
 GradGradGradGradGradGradGradGradGradGradGradGradGradGradGradGradGradGrad

                          Input orientation:                          
 ---------------------------------------------------------------------
 Center     Atomic     Atomic              Coordinates (Angstroms)
 Number     Number      Type              X           Y           Z
 ---------------------------------------------------------------------
    1          8             0       -3.946485    2.195074    0.434806
    2          1             0       -4.242131    1.377449   -0.011059
    3          8             0       -2.541735    2.057091    0.366730
    4          6             0       -2.180426    0.799319   -0.010251
    5          8             0       -3.012572    0.011177   -0.431048
    6          6             0       -0.678581    0.754106   -0.322028
    7          1             0       -0.169625    1.390587    0.408471
    8          6             0       -0.487637    1.351221   -1.735508
    9          1             0       -0.855017    2.379467   -1.782809
   10          1             0        0.575562    1.348331   -1.992774
   11          1             0       -1.025038    0.748847   -2.474717
   12          6             0       -0.155186   -0.686569   -0.243514
   13          1             0        0.896339   -0.714456   -0.542671
   14          1             0       -0.233519   -1.089069    0.771048
   15          1             0       -0.728409   -1.333018   -0.914014
   16          1             0       -2.050291    0.201021    1.501633
 ---------------------------------------------------------------------
                    Distance matrix (angstroms):
                    1          2          3          4          5
     1  O    0.000000
     2  H    0.977094   0.000000
     3  O    1.413151   1.869755   0.000000
     4  C    2.294596   2.141229   1.361855   0.000000
     5  O    2.528103   1.885446   2.245863   1.220944   0.000000
     6  C    3.650806   3.630998   2.375605   1.534532   2.451804
     7  H    3.861679   4.094079   2.464321   2.137346   3.269543
     8  C    4.169650   4.131663   3.022743   2.479242   3.142074
     9  H    3.809067   3.951668   2.751265   2.719474   3.477226
    10  H    5.201829   5.209435   3.973303   3.439081   4.135417
    11  H    4.369411   4.100541   3.476448   2.722326   2.944662
    12  C    4.810190   4.584466   3.687233   2.522672   2.947316
    13  H    5.733565   5.573379   4.508751   3.470082   3.977259
    14  H    4.968377   4.771202   3.922965   2.822567   3.221601
    15  H    4.962133   4.528598   4.052320   2.733496   2.693978
    16  H    2.951257   2.911423   2.230363   1.631162   2.167321
                    6          7          8          9         10
     6  C    0.000000
     7  H    1.094428   0.000000
     8  C    1.546264   2.167793   0.000000
     9  H    2.192444   2.499871   1.092930   0.000000
    10  H    2.171951   2.514571   1.093886   1.775918   0.000000
    11  H    2.180397   3.075115   1.094570   1.779485   1.775830
    12  C    1.534813   2.177124   2.547383   3.501395   2.781137
    13  H    2.164655   2.544043   2.757766   3.765309   2.541808
    14  H    2.188650   2.506838   3.507480   4.351918   3.772830
    15  H    2.170027   3.078836   2.817439   3.814889   3.170756
    16  H    2.348027   2.479309   3.774113   4.118479   4.519104
                   11         12         13         14         15
    11  H    0.000000
    12  C    2.792012   0.000000
    13  H    3.092854   1.093608   0.000000
    14  H    3.813060   1.094294   1.772786   0.000000
    15  H    2.618768   1.093641   1.777729   1.773094   0.000000
    16  H    4.142779   2.724844   3.701338   2.344941   3.152142
                   16
    16  H    0.000000
 Symmetry turned off by external request.
 Stoichiometry    C4H9O3(2)
 Framework group  C1[X(C4H9O3)]
 Deg. of freedom    42
 Full point group                 C1
 Rotational constants (GHZ):      4.7331085      1.7224510      1.5140846
 Standard basis: CBSB7 (5D, 7F)
 Integral buffers will be    131072 words long.
 Raffenetti 2 integral format.
 Two-electron integral symmetry is turned off.
   180 basis functions,   296 primitive gaussians,   187 cartesian basis functions
    29 alpha electrons       28 beta electrons
       nuclear repulsion energy       334.2389565023 Hartrees.
 NAtoms=   16 NActive=   16 NUniq=   16 SFac= 7.50D-01 NAtFMM=   80 NAOKFM=F Big=F
 One-electron integrals computed using PRISM.
 NBasis=   180 RedAO= T  NBF=   180
 NBsUse=   180 1.00D-06 NBFU=   180
 Harris functional with IExCor=  402 diagonalized for initial guess.
 ExpMin= 1.03D-01 ExpMax= 8.59D+03 ExpMxC= 1.30D+03 IAcc=1 IRadAn=         1 AccDes= 1.00D-06
 HarFok:  IExCor= 402 AccDes= 1.00D-06 IRadAn=         1 IDoV=1
 ScaDFX=  1.000000  1.000000  1.000000  1.000000
 <S**2> of initial guess= 0.7500
 Requested convergence on RMS density matrix=1.00D-08 within 128 cycles.
 Requested convergence on MAX density matrix=1.00D-06.
 Requested convergence on             energy=1.00D-06.
 No special actions if energy rises.
 Integral accuracy reduced to 1.0D-05 until final iterations.
 Initial convergence to 1.0D-05 achieved.  Increase integral accuracy.
 SCF Done:  E(UB+HF-LYP) =  -383.441266948     A.U. after   19 cycles
             Convg  =    0.4973D-08             -V/T =  2.0031
             S**2   =   0.7589
 Annihilation of the first spin contaminant:
 S**2 before annihilation     0.7589,   after     0.7500
 Range of M.O.s used for correlation:     1   180
 NBasis=   180 NAE=    29 NBE=    28 NFC=     0 NFV=     0
 NROrb=    180 NOA=    29 NOB=    28 NVA=   151 NVB=   152
 Symmetrizing basis deriv contribution to polar:
 IMax=3 JMax=2 DiffMx= 0.00D+00
 G2DrvN: will do   17 centers at a time, making    1 passes doing MaxLOS=2.
 FoFDir/FoFCou used for L=0 through L=2.
 DoAtom=TTTTTTTTTTTTTTTT
          Differentiating once with respect to electric field.
                with respect to dipole field.
          Differentiating once with respect to nuclear coordinates.
 Symmetry not used in FoFDir.
 MinBra= 0 MaxBra= 2 Meth= 1.
 IRaf=       0 NMat=  51 IRICut=      51 DoRegI=T DoRafI=T ISym2E= 0 JSym2E=0.
          There are  51 degrees of freedom in the 1st order CPHF.
    48 vectors were produced by pass  0.
 AX will form  48 AO Fock derivatives at one time.
    48 vectors were produced by pass  1.
    48 vectors were produced by pass  2.
    48 vectors were produced by pass  3.
    48 vectors were produced by pass  4.
    48 vectors were produced by pass  5.
    24 vectors were produced by pass  6.
     3 vectors were produced by pass  7.
     3 vectors were produced by pass  8.
 Inv2:  IOpt= 1 Iter= 1 AM= 2.41D-15 Conv= 1.00D-12.
 Inverted reduced A of dimension  318 with in-core refinement.
 Isotropic polarizability for W=    0.000000       62.61 Bohr**3.
 End of Minotr Frequency-dependent properties file   721 does not exist.

 **********************************************************************

            Population analysis using the SCF density.

 **********************************************************************

 Alpha  occ. eigenvalues --  -19.22499 -19.18749 -19.13649 -10.32149 -10.21319
 Alpha  occ. eigenvalues --  -10.18079 -10.17761  -1.19052  -1.07082  -0.94568
 Alpha  occ. eigenvalues --   -0.82080  -0.70647  -0.66985  -0.60905  -0.53705
 Alpha  occ. eigenvalues --   -0.52776  -0.50403  -0.46596  -0.44819  -0.42845
 Alpha  occ. eigenvalues --   -0.41148  -0.40171  -0.39503  -0.38462  -0.36588
 Alpha  occ. eigenvalues --   -0.36384  -0.31703  -0.30124  -0.27508
 Alpha virt. eigenvalues --   -0.00475   0.00619   0.04410   0.07274   0.08082
 Alpha virt. eigenvalues --    0.09164   0.10216   0.11394   0.13417   0.14074
 Alpha virt. eigenvalues --    0.17356   0.19197   0.21649   0.23433   0.26309
 Alpha virt. eigenvalues --    0.27906   0.28660   0.29786   0.34843   0.35150
 Alpha virt. eigenvalues --    0.39772   0.41172   0.43402   0.47328   0.50271
 Alpha virt. eigenvalues --    0.51186   0.54373   0.55347   0.55780   0.56892
 Alpha virt. eigenvalues --    0.57679   0.58777   0.59821   0.61326   0.62284
 Alpha virt. eigenvalues --    0.63103   0.68790   0.71844   0.73071   0.77644
 Alpha virt. eigenvalues --    0.81758   0.84319   0.89250   0.90039   0.92064
 Alpha virt. eigenvalues --    0.92881   0.96149   0.98715   1.03052   1.03978
 Alpha virt. eigenvalues --    1.12720   1.17073   1.20854   1.24376   1.28242
 Alpha virt. eigenvalues --    1.34051   1.35681   1.36585   1.37445   1.42884
 Alpha virt. eigenvalues --    1.43680   1.44059   1.45153   1.46536   1.48764
 Alpha virt. eigenvalues --    1.50464   1.51221   1.54608   1.55946   1.58138
 Alpha virt. eigenvalues --    1.62868   1.64979   1.67736   1.71779   1.73787
 Alpha virt. eigenvalues --    1.74402   1.75928   1.77866   1.81744   1.85977
 Alpha virt. eigenvalues --    1.90838   1.94305   1.96768   2.00297   2.03104
 Alpha virt. eigenvalues --    2.06348   2.07873   2.11765   2.21963   2.24072
 Alpha virt. eigenvalues --    2.33479   2.33788   2.38371   2.41122   2.41429
 Alpha virt. eigenvalues --    2.43172   2.46852   2.48430   2.49315   2.50802
 Alpha virt. eigenvalues --    2.52277   2.54462   2.57983   2.59558   2.60775
 Alpha virt. eigenvalues --    2.64183   2.66456   2.72737   2.75937   2.78522
 Alpha virt. eigenvalues --    2.80887   2.84864   2.87283   2.93310   2.98039
 Alpha virt. eigenvalues --    3.05346   3.05910   3.07540   3.12971   3.21156
 Alpha virt. eigenvalues --    3.28022   3.36202   3.40626   3.52628   3.57017
 Alpha virt. eigenvalues --    3.63652   3.75071   3.76374   3.76517   3.78927
 Alpha virt. eigenvalues --    3.80648   3.90025   4.02664   4.14774   4.26158
 Alpha virt. eigenvalues --    4.69462   4.73462   4.83968   4.92708   5.01620
 Alpha virt. eigenvalues --    5.19746   5.30317   5.64349   5.82534  23.71157
 Alpha virt. eigenvalues --   23.78253  23.90360  23.91665  49.74646  49.83364
 Alpha virt. eigenvalues --   49.96396
  Beta  occ. eigenvalues --  -19.22281 -19.18706 -19.13008 -10.32317 -10.21230
  Beta  occ. eigenvalues --  -10.18068 -10.17752  -1.18734  -1.06072  -0.94268
  Beta  occ. eigenvalues --   -0.81905  -0.70593  -0.66686  -0.60779  -0.53282
  Beta  occ. eigenvalues --   -0.51113  -0.49956  -0.46410  -0.44598  -0.42504
  Beta  occ. eigenvalues --   -0.40880  -0.39945  -0.38548  -0.37748  -0.36529
  Beta  occ. eigenvalues --   -0.35810  -0.30797  -0.28061
  Beta virt. eigenvalues --   -0.13436   0.00743   0.01114   0.04847   0.07364
  Beta virt. eigenvalues --    0.08105   0.09388   0.10291   0.11431   0.13485
  Beta virt. eigenvalues --    0.14124   0.17615   0.19478   0.21816   0.23713
  Beta virt. eigenvalues --    0.26480   0.28363   0.29800   0.33275   0.35142
  Beta virt. eigenvalues --    0.35606   0.39806   0.41265   0.43742   0.47560
  Beta virt. eigenvalues --    0.50723   0.51574   0.54484   0.55541   0.55839
  Beta virt. eigenvalues --    0.57007   0.57763   0.58881   0.59981   0.61505
  Beta virt. eigenvalues --    0.62331   0.63213   0.69124   0.72058   0.73405
  Beta virt. eigenvalues --    0.77876   0.82332   0.84985   0.89466   0.90527
  Beta virt. eigenvalues --    0.92681   0.93094   0.96304   0.99145   1.03452
  Beta virt. eigenvalues --    1.05126   1.13360   1.17362   1.22164   1.25437
  Beta virt. eigenvalues --    1.28604   1.34146   1.36348   1.36797   1.38136
  Beta virt. eigenvalues --    1.42941   1.44208   1.45072   1.47065   1.48189
  Beta virt. eigenvalues --    1.49941   1.51254   1.52367   1.56036   1.56495
  Beta virt. eigenvalues --    1.58195   1.63101   1.65682   1.68383   1.72204
  Beta virt. eigenvalues --    1.74558   1.74936   1.76658   1.79814   1.84401
  Beta virt. eigenvalues --    1.86998   1.93608   1.94862   1.96836   2.00463
  Beta virt. eigenvalues --    2.04100   2.07130   2.08496   2.12216   2.22176
  Beta virt. eigenvalues --    2.24423   2.33553   2.34063   2.38728   2.41164
  Beta virt. eigenvalues --    2.43213   2.45865   2.47205   2.48545   2.49756
  Beta virt. eigenvalues --    2.51141   2.53785   2.54903   2.58272   2.59795
  Beta virt. eigenvalues --    2.61300   2.65309   2.66806   2.73293   2.76294
  Beta virt. eigenvalues --    2.79610   2.81282   2.85023   2.87983   2.94783
  Beta virt. eigenvalues --    2.99025   3.05502   3.06093   3.07832   3.13403
  Beta virt. eigenvalues --    3.21997   3.28154   3.36580   3.42305   3.53135
  Beta virt. eigenvalues --    3.57475   3.63945   3.75161   3.76399   3.76596
  Beta virt. eigenvalues --    3.78954   3.80687   3.90222   4.02757   4.14865
  Beta virt. eigenvalues --    4.26214   4.69762   4.73609   4.84936   4.94946
  Beta virt. eigenvalues --    5.02162   5.19936   5.30424   5.64718   5.82692
  Beta virt. eigenvalues --   23.70980  23.78343  23.90372  23.91676  49.74697
  Beta virt. eigenvalues --   49.83581  49.97030
          Condensed to atoms (all electrons):
              1          2          3          4          5          6
     1  O    7.921759   0.286981   0.081881  -0.053643  -0.024129   0.004279
     2  H    0.286981   0.445564  -0.040852  -0.008384   0.051346   0.003013
     3  O    0.081881  -0.040852   8.039304   0.238186  -0.073890  -0.054411
     4  C   -0.053643  -0.008384   0.238186   4.775416   0.547688   0.277122
     5  O   -0.024129   0.051346  -0.073890   0.547688   7.937849  -0.072787
     6  C    0.004279   0.003013  -0.054411   0.277122  -0.072787   5.262618
     7  H   -0.000393  -0.000173   0.007383  -0.039586   0.004228   0.390472
     8  C    0.000007  -0.000294  -0.005674  -0.054576  -0.003429   0.324746
     9  H   -0.000367   0.000186   0.008191  -0.005830  -0.000628  -0.032543
    10  H    0.000003   0.000009   0.000002   0.007211  -0.000245  -0.031567
    11  H    0.000060  -0.000095  -0.000716  -0.005374   0.006794  -0.043044
    12  C   -0.000142  -0.000041   0.003348  -0.065566   0.004957   0.334136
    13  H    0.000005   0.000004  -0.000136   0.007930  -0.000030  -0.032959
    14  H   -0.000014  -0.000027  -0.000010  -0.003939  -0.000133  -0.031227
    15  H    0.000016  -0.000138   0.000506  -0.010032   0.011562  -0.035715
    16  H    0.001122   0.001834  -0.029859   0.079318  -0.033910  -0.034712
              7          8          9         10         11         12
     1  O   -0.000393   0.000007  -0.000367   0.000003   0.000060  -0.000142
     2  H   -0.000173  -0.000294   0.000186   0.000009  -0.000095  -0.000041
     3  O    0.007383  -0.005674   0.008191   0.000002  -0.000716   0.003348
     4  C   -0.039586  -0.054576  -0.005830   0.007211  -0.005374  -0.065566
     5  O    0.004228  -0.003429  -0.000628  -0.000245   0.006794   0.004957
     6  C    0.390472   0.324746  -0.032543  -0.031567  -0.043044   0.334136
     7  H    0.570810  -0.032304  -0.005196  -0.007272   0.008666  -0.035612
     8  C   -0.032304   4.899303   0.401132   0.401963   0.405687  -0.063347
     9  H   -0.005196   0.401132   0.548210  -0.023240  -0.026475   0.007870
    10  H   -0.007272   0.401963  -0.023240   0.564133  -0.027245  -0.004618
    11  H    0.008666   0.405687  -0.026475  -0.027245   0.560288  -0.005801
    12  C   -0.035612  -0.063347   0.007870  -0.004618  -0.005801   4.895505
    13  H   -0.005296  -0.005453   0.000149   0.003503  -0.000756   0.403878
    14  H   -0.005661   0.007570  -0.000446   0.000047  -0.000128   0.399166
    15  H    0.007886  -0.004699  -0.000179  -0.000938   0.005305   0.402318
    16  H   -0.004159   0.006852   0.000369  -0.000208   0.000360  -0.014370
             13         14         15         16
     1  O    0.000005  -0.000014   0.000016   0.001122
     2  H    0.000004  -0.000027  -0.000138   0.001834
     3  O   -0.000136  -0.000010   0.000506  -0.029859
     4  C    0.007930  -0.003939  -0.010032   0.079318
     5  O   -0.000030  -0.000133   0.011562  -0.033910
     6  C   -0.032959  -0.031227  -0.035715  -0.034712
     7  H   -0.005296  -0.005661   0.007886  -0.004159
     8  C   -0.005453   0.007570  -0.004699   0.006852
     9  H    0.000149  -0.000446  -0.000179   0.000369
    10  H    0.003503   0.000047  -0.000938  -0.000208
    11  H   -0.000756  -0.000128   0.005305   0.000360
    12  C    0.403878   0.399166   0.402318  -0.014370
    13  H    0.567627  -0.026288  -0.026142   0.000296
    14  H   -0.026288   0.570205  -0.026029   0.006823
    15  H   -0.026142  -0.026029   0.547209  -0.000174
    16  H    0.000296   0.006823  -0.000174   0.951993
 Mulliken atomic charges:
              1
     1  O   -0.217423
     2  H    0.261067
     3  O   -0.173253
     4  C    0.314062
     5  O   -0.355242
     6  C   -0.227422
     7  H    0.146208
     8  C   -0.277483
     9  H    0.128799
    10  H    0.118462
    11  H    0.122474
    12  C   -0.261679
    13  H    0.113669
    14  H    0.110089
    15  H    0.129246
    16  H    0.068425
 Sum of Mulliken charges=   0.00000
 Atomic charges with hydrogens summed into heavy atoms:
              1
     1  O    0.043645
     2  H    0.000000
     3  O   -0.173253
     4  C    0.382487
     5  O   -0.355242
     6  C   -0.081213
     7  H    0.000000
     8  C    0.092251
     9  H    0.000000
    10  H    0.000000
    11  H    0.000000
    12  C    0.091325
    13  H    0.000000
    14  H    0.000000
    15  H    0.000000
    16  H    0.000000
 Sum of Mulliken charges=   0.00000
          Atomic-Atomic Spin Densities.
              1          2          3          4          5          6
     1  O    0.018160   0.000747  -0.008017   0.000483  -0.000676   0.000327
     2  H    0.000747  -0.001700   0.000617  -0.000440  -0.001493  -0.000215
     3  O   -0.008017   0.000617   0.084069   0.012147   0.005006   0.000390
     4  C    0.000483  -0.000440   0.012147  -0.134589  -0.006427   0.019197
     5  O   -0.000676  -0.001493   0.005006  -0.006427   0.270590  -0.002417
     6  C    0.000327  -0.000215   0.000390   0.019197  -0.002417   0.065646
     7  H    0.000010   0.000012  -0.000303   0.001351  -0.000187   0.000836
     8  C   -0.000114   0.000032   0.001474   0.000257   0.002837  -0.018599
     9  H   -0.000054   0.000006  -0.000025   0.000500   0.000302  -0.001774
    10  H    0.000002  -0.000001  -0.000028  -0.000147  -0.000045   0.001424
    11  H   -0.000030   0.000008   0.000272  -0.000526   0.000340  -0.001094
    12  C   -0.000002   0.000009   0.000004   0.003864   0.000377   0.002447
    13  H    0.000000   0.000000  -0.000001  -0.000111   0.000004   0.000207
    14  H    0.000002   0.000000  -0.000023  -0.000901  -0.000111  -0.000152
    15  H   -0.000001   0.000007  -0.000028   0.000092  -0.000357  -0.000697
    16  H    0.002342   0.000785  -0.031307  -0.009921  -0.043505  -0.036053
              7          8          9         10         11         12
     1  O    0.000010  -0.000114  -0.000054   0.000002  -0.000030  -0.000002
     2  H    0.000012   0.000032   0.000006  -0.000001   0.000008   0.000009
     3  O   -0.000303   0.001474  -0.000025  -0.000028   0.000272   0.000004
     4  C    0.001351   0.000257   0.000500  -0.000147  -0.000526   0.003864
     5  O   -0.000187   0.002837   0.000302  -0.000045   0.000340   0.000377
     6  C    0.000836  -0.018599  -0.001774   0.001424  -0.001094   0.002447
     7  H   -0.004721   0.000490   0.000254  -0.000054  -0.000145   0.000679
     8  C    0.000490   0.020438   0.000982  -0.000692   0.001177  -0.001237
     9  H    0.000254   0.000982  -0.000443  -0.000337   0.000325  -0.000121
    10  H   -0.000054  -0.000692  -0.000337   0.000965  -0.000449   0.000067
    11  H   -0.000145   0.001177   0.000325  -0.000449  -0.000613   0.000251
    12  C    0.000679  -0.001237  -0.000121   0.000067   0.000251   0.010436
    13  H    0.000057   0.000032  -0.000004  -0.000005   0.000019  -0.000533
    14  H    0.000190   0.000104   0.000011  -0.000023   0.000035  -0.000054
    15  H   -0.000088   0.000596   0.000026  -0.000036   0.000034  -0.000535
    16  H   -0.000024   0.005798   0.000380  -0.000190   0.000467  -0.012382
             13         14         15         16
     1  O    0.000000   0.000002  -0.000001   0.002342
     2  H    0.000000   0.000000   0.000007   0.000785
     3  O   -0.000001  -0.000023  -0.000028  -0.031307
     4  C   -0.000111  -0.000901   0.000092  -0.009921
     5  O    0.000004  -0.000111  -0.000357  -0.043505
     6  C    0.000207  -0.000152  -0.000697  -0.036053
     7  H    0.000057   0.000190  -0.000088  -0.000024
     8  C    0.000032   0.000104   0.000596   0.005798
     9  H   -0.000004   0.000011   0.000026   0.000380
    10  H   -0.000005  -0.000023  -0.000036  -0.000190
    11  H    0.000019   0.000035   0.000034   0.000467
    12  C   -0.000533  -0.000054  -0.000535  -0.012382
    13  H    0.000104  -0.000071   0.000021   0.000119
    14  H   -0.000071  -0.003237   0.000455   0.003380
    15  H    0.000021   0.000455   0.000315   0.000786
    16  H    0.000119   0.003380   0.000786   0.889206
 Mulliken atomic spin densities:
              1
     1  O    0.013179
     2  H   -0.001626
     3  O    0.064245
     4  C   -0.115171
     5  O    0.224238
     6  C    0.029472
     7  H   -0.001644
     8  C    0.013574
     9  H    0.000028
    10  H    0.000451
    11  H    0.000069
    12  C    0.003272
    13  H   -0.000163
    14  H   -0.000394
    15  H    0.000590
    16  H    0.769880
 Sum of Mulliken spin densities=   1.00000
 APT atomic charges:
              1
     1  O   -0.279564
     2  H    0.290217
     3  O   -0.382849
     4  C    0.878399
     5  O   -0.639108
     6  C    0.067809
     7  H   -0.020863
     8  C    0.027606
     9  H    0.004317
    10  H   -0.014887
    11  H    0.003419
    12  C    0.039891
    13  H   -0.007556
    14  H   -0.006460
    15  H    0.016056
    16  H    0.023570
 Sum of APT charges=   0.00000
 APT Atomic charges with hydrogens summed into heavy atoms:
              1
     1  O    0.010654
     2  H    0.000000
     3  O   -0.382849
     4  C    0.901970
     5  O   -0.639108
     6  C    0.046946
     7  H    0.000000
     8  C    0.020455
     9  H    0.000000
    10  H    0.000000
    11  H    0.000000
    12  C    0.041931
    13  H    0.000000
    14  H    0.000000
    15  H    0.000000
    16  H    0.000000
 Sum of APT charges=   0.00000
 Electronic spatial extent (au):  <R**2>=  1736.8995
 Charge=     0.0000 electrons
 Dipole moment (field-independent basis, Debye):
    X=     2.1358    Y=    -0.6998    Z=    -0.5290  Tot=     2.3090
 Quadrupole moment (field-independent basis, Debye-Ang):
   XX=   -49.5133   YY=   -49.2992   ZZ=   -43.1014
   XY=     3.9179   XZ=     1.1472   YZ=    -2.7008
 Traceless Quadrupole moment (field-independent basis, Debye-Ang):
   XX=    -2.2086   YY=    -1.9946   ZZ=     4.2032
   XY=     3.9179   XZ=     1.1472   YZ=    -2.7008
 Octapole moment (field-independent basis, Debye-Ang**2):
  XXX=   233.3731  YYY=  -128.2112  ZZZ=    38.6588  XYY=    96.5953
  XXY=   -50.1466  XXZ=     6.9449  XZZ=    75.9805  YZZ=   -37.8737
  YYZ=     7.6878  XYZ=     8.3049
 Hexadecapole moment (field-independent basis, Debye-Ang**3):
 XXXX= -1274.7378 YYYY=  -551.0798 ZZZZ=  -242.5619 XXXY=   321.7665
 XXXZ=    35.1641 YYYX=   346.1476 YYYZ=    15.1352 ZZZX=    12.3711
 ZZZY=    25.5944 XXYY=  -384.1664 XXZZ=  -268.1265 YYZZ=  -126.1239
 XXYZ=   -21.1375 YYXZ=    20.8497 ZZXY=    98.4866
 N-N= 3.342389565023D+02 E-N=-1.567304477012D+03  KE= 3.822550671912D+02
  Exact polarizability:  68.682  -7.203  61.030  -3.722  -1.008  58.115
 Approx polarizability:  94.785  -2.763  92.592   1.855   5.911  81.475
                          Isotropic Fermi Contact Couplings
        Atom                 a.u.       MegaHertz       Gauss      10(-4) cm-1
     1  O(17)              0.00311      -1.88442      -0.67241      -0.62857
     2  H(1)              -0.00022      -0.99483      -0.35498      -0.33184
     3  O(17)              0.00765      -4.63438      -1.65366      -1.54586
     4  C(13)             -0.02485     -27.93656      -9.96846      -9.31863
     5  O(17)              0.03182     -19.28728      -6.88218      -6.43354
     6  C(13)              0.03042      34.19417      12.20133      11.40595
     7  H(1)              -0.00080      -3.59160      -1.28157      -1.19803
     8  C(13)             -0.00181      -2.03433      -0.72590      -0.67858
     9  H(1)              -0.00011      -0.51303      -0.18306      -0.17113
    10  H(1)               0.00044       1.95126       0.69626       0.65087
    11  H(1)              -0.00004      -0.19757      -0.07050      -0.06590
    12  C(13)              0.00341       3.83695       1.36912       1.27987
    13  H(1)              -0.00008      -0.35998      -0.12845      -0.12008
    14  H(1)               0.00043       1.92003       0.68511       0.64045
    15  H(1)               0.00013       0.56380       0.20118       0.18806
    16  H(1)               0.25890    1157.26347     412.94036     386.02154
 --------------------------------------------------------
       Center         ----  Spin Dipole Couplings  ----
                      3XX-RR        3YY-RR        3ZZ-RR
 --------------------------------------------------------
     1   Atom       -0.050429     -0.015646      0.066075
     2   Atom        0.002543      0.001745     -0.004289
     3   Atom       -0.171479     -0.029969      0.201448
     4   Atom        0.039171      0.023078     -0.062249
     5   Atom       -0.486572     -0.400861      0.887433
     6   Atom        0.036684     -0.030917     -0.005768
     7   Atom        0.006590     -0.003479     -0.003111
     8   Atom       -0.006432     -0.007307      0.013738
     9   Atom       -0.001276      0.000153      0.001123
    10   Atom        0.001581     -0.002197      0.000616
    11   Atom       -0.000572     -0.002422      0.002994
    12   Atom       -0.000034     -0.007969      0.008003
    13   Atom        0.003005     -0.002251     -0.000754
    14   Atom        0.005809     -0.002182     -0.003626
    15   Atom       -0.000399     -0.000903      0.001302
    16   Atom        0.002828      0.001060     -0.003889
 --------------------------------------------------------
                        XY            XZ            YZ
 --------------------------------------------------------
     1   Atom        0.006148     -0.015746     -0.051067
     2   Atom       -0.005959      0.003518      0.000670
     3   Atom       -0.019705      0.031403     -0.232349
     4   Atom        0.017407     -0.007362      0.041401
     5   Atom        0.016756     -0.080005     -0.347510
     6   Atom        0.005523     -0.039213     -0.003566
     7   Atom        0.009456     -0.003586     -0.002232
     8   Atom        0.001699     -0.005437     -0.006747
     9   Atom        0.000883     -0.002201     -0.002589
    10   Atom        0.000678     -0.002023     -0.001179
    11   Atom        0.001514     -0.002356     -0.000775
    12   Atom       -0.003570     -0.008058      0.000168
    13   Atom       -0.001960     -0.002969      0.000607
    14   Atom       -0.010619     -0.006583      0.002889
    15   Atom       -0.003237     -0.003315      0.004000
    16   Atom        0.000311     -0.001126      0.001749
 --------------------------------------------------------


 ---------------------------------------------------------------------------------
              Anisotropic Spin Dipole Couplings in Principal Axis System
 ---------------------------------------------------------------------------------

       Atom             a.u.   MegaHertz   Gauss  10(-4) cm-1        Axes

              Baa    -0.0525     3.802     1.357     1.268  0.9879  0.0418  0.1491
     1 O(17)  Bbb    -0.0401     2.899     1.034     0.967 -0.1014  0.9023  0.4191
              Bcc     0.0926    -6.701    -2.391    -2.235 -0.1170 -0.4292  0.8956
 
              Baa    -0.0071    -3.800    -1.356    -1.267 -0.5239 -0.4086  0.7474
     2 H(1)   Bbb    -0.0014    -0.727    -0.260    -0.243  0.4102  0.6479  0.6418
              Bcc     0.0085     4.527     1.615     1.510  0.7465 -0.6429  0.1718
 
              Baa    -0.1742    12.608     4.499     4.206  0.8802  0.4331  0.1943
     3 O(17)  Bbb    -0.1737    12.569     4.485     4.193 -0.4693  0.7326  0.4930
              Bcc     0.3480   -25.178    -8.984    -8.398  0.0712 -0.5251  0.8481
 
              Baa    -0.0805   -10.808    -3.857    -3.605  0.1123 -0.3849  0.9161
     4 C(13)  Bbb     0.0270     3.621     1.292     1.208  0.6912 -0.6321 -0.3503
              Bcc     0.0536     7.187     2.565     2.397  0.7139  0.6726  0.1951
 
              Baa    -0.4934    35.705    12.740    11.910  0.8205  0.5414  0.1838
     5 O(17)  Bbb    -0.4863    35.189    12.556    11.738 -0.5690  0.8045  0.1704
              Bcc     0.9797   -70.893   -25.297   -23.648 -0.0556 -0.2444  0.9681
 
              Baa    -0.0314    -4.215    -1.504    -1.406 -0.0086  0.9921  0.1249
     6 C(13)  Bbb    -0.0291    -3.906    -1.394    -1.303  0.5156 -0.1026  0.8506
              Bcc     0.0605     8.121     2.898     2.709  0.8568  0.0717 -0.5107
 
              Baa    -0.0092    -4.887    -1.744    -1.630 -0.5126  0.8585  0.0129
     7 H(1)   Bbb    -0.0042    -2.237    -0.798    -0.746  0.2198  0.1167  0.9685
              Bcc     0.0134     7.124     2.542     2.376  0.8300  0.4993 -0.2485
 
              Baa    -0.0093    -1.247    -0.445    -0.416 -0.0645  0.9617  0.2665
     8 C(13)  Bbb    -0.0078    -1.047    -0.374    -0.349  0.9698 -0.0026  0.2440
              Bcc     0.0171     2.294     0.819     0.765 -0.2353 -0.2742  0.9324
 
              Baa    -0.0028    -1.487    -0.530    -0.496  0.7098  0.3335  0.6205
     9 H(1)   Bbb    -0.0014    -0.763    -0.272    -0.254 -0.5900  0.7627  0.2649
              Bcc     0.0042     2.249     0.803     0.750 -0.3850 -0.5541  0.7381
 
              Baa    -0.0026    -1.401    -0.500    -0.467  0.0184  0.9359  0.3518
    10 H(1)   Bbb    -0.0008    -0.446    -0.159    -0.149  0.6613 -0.2753  0.6978
              Bcc     0.0035     1.847     0.659     0.616  0.7499  0.2198 -0.6240
 
              Baa    -0.0033    -1.771    -0.632    -0.591 -0.5454  0.8320 -0.1015
    11 H(1)   Bbb    -0.0011    -0.600    -0.214    -0.200  0.6972  0.5176  0.4961
              Bcc     0.0044     2.372     0.846     0.791 -0.4652 -0.1998  0.8623
 
              Baa    -0.0099    -1.331    -0.475    -0.444  0.4767  0.8545  0.2063
    12 C(13)  Bbb    -0.0033    -0.438    -0.156    -0.146  0.6960 -0.5103  0.5053
              Bcc     0.0132     1.770     0.631     0.590 -0.5370  0.0973  0.8379
 
              Baa    -0.0030    -1.622    -0.579    -0.541  0.4414  0.8244  0.3545
    13 H(1)   Bbb    -0.0021    -1.145    -0.408    -0.382  0.2806 -0.5020  0.8181
              Bcc     0.0052     2.766     0.987     0.923  0.8523 -0.2616 -0.4528
 
              Baa    -0.0100    -5.325    -1.900    -1.776  0.6161  0.7246  0.3089
    14 H(1)   Bbb    -0.0058    -3.073    -1.097    -1.025  0.0885 -0.4534  0.8869
              Bcc     0.0157     8.398     2.997     2.801  0.7827 -0.5191 -0.3435
 
              Baa    -0.0042    -2.237    -0.798    -0.746  0.3860  0.8409 -0.3792
    15 H(1)   Bbb    -0.0030    -1.582    -0.564    -0.528  0.7612 -0.0581  0.6459
              Bcc     0.0072     3.819     1.363     1.274 -0.5211  0.5380  0.6625
 
              Baa    -0.0046    -2.469    -0.881    -0.824  0.1547 -0.2981  0.9419
    16 H(1)   Bbb     0.0016     0.862     0.307     0.287  0.0308  0.9544  0.2970
              Bcc     0.0030     1.607     0.574     0.536  0.9875  0.0170 -0.1568
 

 ---------------------------------------------------------------------------------

 Use density number 0.
 Entering OneElI...
 Calculate overlap and kinetic energy integrals
    NBasis = 187  MinDer = 2  MaxDer = 2
 Requested accuracy = 0.1000D-12
 PrsmSu:  NPrtUS=   1 ThrOK=F
 PRISM was handed   130760072 working-precision words and  2542 shell-pairs
 Entering OneElI...
 Calculate potential energy integrals
    NBasis = 187  MinDer = 2  MaxDer = 2
 Requested accuracy = 0.1000D-12
 PrsmSu:  NPrtUS=   8 ThrOK=T
 PRISM was handed    16301925 working-precision words and  2365 shell-pairs
 PRISM was handed    16301925 working-precision words and  2365 shell-pairs
 PRISM was handed    16301925 working-precision words and  2365 shell-pairs
 PRISM was handed    16301925 working-precision words and  2365 shell-pairs
 PRISM was handed    16301925 working-precision words and  2365 shell-pairs
 PRISM was handed    16301925 working-precision words and  2365 shell-pairs
 PRISM was handed    16301925 working-precision words and  2365 shell-pairs
 PRISM was handed    16301925 working-precision words and  2365 shell-pairs
 Polarizability after L701:
                1             2             3
      1  0.686822D+02
      2 -0.720308D+01  0.610302D+02
      3 -0.372186D+01 -0.100789D+01  0.581154D+02
 Dipole Derivatives after L701:
               1            2            3            4            5
      1-0.435582D+00-0.281160D-01-0.827745D-02 0.360004D+00-0.690530D-01
      2 0.302508D+00-0.174935D+00 0.139135D-01-0.896471D-02 0.236059D+00
      3 0.637214D-01 0.621386D-01-0.228174D+00 0.205858D-01-0.541590D-01
               6            7            8            9           10
      1-0.103646D-01-0.129786D+00 0.259664D+00 0.666201D-01 0.797760D+00
      2-0.476131D-01-0.986229D-01-0.788637D+00-0.295978D-01 0.372652D-01
      3 0.274589D+00 0.183410D-01-0.918231D-01-0.230124D+00-0.109884D-01
              11           12           13           14           15
      1-0.998578D-01-0.230221D+00-0.724660D+00 0.794776D-02-0.729328D-02
      2 0.110393D+01 0.126561D+00-0.230663D+00-0.634426D+00-0.157886D+00
      3 0.102687D+00 0.733504D+00-0.132568D+00-0.139591D+00-0.558237D+00
              16           17           18           19           20
      1 0.791326D-01-0.358761D-01 0.201267D+00 0.253383D-01-0.250066D-01
      2-0.160245D-01 0.111448D+00 0.138328D-01-0.131691D-01-0.368159D-01
      3-0.335044D-01 0.551407D-01 0.128471D-01-0.152148D-01-0.480183D-01
              21           22           23           24           25
      1-0.491823D-01-0.284950D-01 0.641185D-01-0.656163D-01 0.643945D-01
      2-0.545872D-01 0.160303D-01 0.375246D-01 0.138233D-01 0.733352D-01
      3-0.511119D-01 0.792805D-01 0.126111D-01 0.737881D-01-0.141243D-01
              26           27           28           29           30
      1 0.508372D-01-0.507378D-02-0.128516D+00 0.287617D-02 0.743016D-01
      2-0.960867D-01 0.471144D-02-0.461393D-02 0.790812D-01 0.174487D-01
      3 0.420068D-01 0.446433D-01 0.643089D-01 0.161851D-01 0.477332D-02
              31           32           33           34           35
      1 0.282745D-01-0.591220D-01-0.277969D-01 0.446992D-01-0.261018D-01
      2-0.585126D-01 0.224698D-02-0.267418D-01 0.320862D-01 0.175220D-01
      3-0.777036D-01-0.828189D-01-0.202631D-01 0.954969D-02 0.172048D-01
              36           37           38           39           40
      1 0.752095D-02-0.134112D+00 0.326383D-02 0.740972D-01 0.808614D-01
      2 0.760057D-02 0.325834D-01 0.438705D-01-0.821710D-02-0.692909D-02
      3 0.574527D-01 0.570504D-01 0.351719D-02 0.675732D-01 0.336326D-01
              41           42           43           44           45
      1 0.577950D-02 0.847022D-02 0.373303D-01-0.145000D-01-0.516416D-01
      2 0.101170D-01 0.883356D-01-0.722811D-01 0.834561D-02-0.689407D-01
      3 0.499109D-01-0.110359D+00-0.772367D-01-0.302999D-01 0.249276D-02
              46           47           48
      1 0.633562D-01-0.368537D-01 0.231905D-01
      2 0.159719D-01 0.807511D-01 0.107356D+00
      3 0.148703D-01 0.853085D-01-0.733958D-01
 Hessian after L701:
                1             2             3             4             5
      1  0.186830D+01
      2  0.656441D+00  0.864966D+01
      3  0.223870D+00 -0.213315D+01  0.115172D+02
      4 -0.579594D+01  0.180961D+01  0.954284D+00  0.592564D+01
      5  0.133144D+01 -0.309697D+01  0.192639D+01 -0.121391D+01  0.288723D+01
      6  0.734107D+00  0.196811D+01 -0.575667D+01 -0.768084D+00 -0.215894D+01
      7  0.390185D+01 -0.126120D+01 -0.622382D+00 -0.910498D-01  0.123862D+00
      8 -0.112981D+01 -0.614619D+01 -0.382909D+00 -0.269961D-01  0.302636D+00
      9 -0.525775D+00 -0.406645D+00 -0.525565D+01  0.275657D-01  0.884196D-01
     10 -0.114025D+00 -0.459435D+00 -0.917563D-01 -0.109777D+00  0.724606D-01
     11 -0.308780D+00  0.255068D+00  0.960470D-01  0.263334D-01 -0.513886D-02
     12 -0.121800D+00  0.129901D+00  0.940340D-01 -0.223309D-02 -0.423160D-02
     13 -0.357572D+00 -0.236789D+00 -0.846531D-01 -0.932059D-01 -0.341877D+00
     14 -0.147453D+00  0.542985D+00  0.380122D+00 -0.535887D+00 -0.208756D-01
     15 -0.300997D-01  0.349978D+00 -0.315507D+00 -0.196618D+00  0.165664D+00
     16  0.308614D+00 -0.228114D+00 -0.170141D+00  0.108741D+00 -0.669133D-02
     17 -0.200245D+00 -0.826696D-01  0.633539D-01 -0.390690D-01 -0.350955D-01
     18 -0.136452D+00  0.569308D-01 -0.129827D+00 -0.146348D-01 -0.487111D-02
     19  0.349817D-01 -0.123155D-01  0.246241D-02  0.388819D-02  0.474810D-02
     20  0.748149D-02 -0.215461D-01 -0.292265D-02  0.282086D-02  0.222213D-02
     21  0.176593D-01 -0.868634D-02 -0.183229D-01  0.368328D-02  0.421307D-02
     22  0.897290D-01 -0.676934D-01 -0.146873D+00  0.171595D-01  0.172845D-01
     23 -0.630726D-01 -0.912625D-01  0.439497D-01 -0.375031D-02 -0.141538D-01
     24 -0.102977D+00  0.250646D-01 -0.371290D-01 -0.562574D-02 -0.308743D-02
     25  0.487212D-02  0.185045D-02 -0.168078D-01  0.358206D-02  0.224690D-02
     26  0.222311D-01 -0.214782D-01 -0.247585D-01  0.748347D-02  0.544137D-02
     27 -0.217996D-01 -0.167353D-02  0.426718D-03 -0.452258D-02 -0.283636D-02
     28  0.190585D-01 -0.115990D-01 -0.202284D-01  0.570604D-02  0.594521D-02
     29 -0.346342D-02 -0.671404D-02  0.173428D-02  0.374632D-04 -0.961710D-03
     30 -0.102838D-01  0.367312D-02  0.789964D-03 -0.217765D-02 -0.169481D-02
     31 -0.227940D-02 -0.492083D-02 -0.883739D-02 -0.125667D-02 -0.666187D-03
     32 -0.153528D-01  0.265675D-03  0.211223D-01 -0.316447D-02 -0.449547D-02
     33 -0.236735D-01  0.207246D-01  0.195055D-01 -0.472461D-02 -0.506464D-02
     34  0.274600D-01 -0.955170D-01 -0.268253D-01  0.134862D-01  0.350924D-02
     35 -0.641674D-01 -0.156347D-01  0.127812D-01 -0.547511D-02 -0.540395D-02
     36 -0.189747D-01  0.164991D-01 -0.651252D-01 -0.202682D-02 -0.654141D-03
     37  0.136981D-01 -0.192925D-01 -0.791398D-02  0.502751D-02  0.414755D-02
     38 -0.600905D-02 -0.616025D-03  0.176052D-02 -0.117960D-02 -0.131400D-02
     39 -0.475725D-02  0.482565D-02 -0.378512D-02 -0.117365D-02 -0.108281D-02
     40  0.368976D-02 -0.139639D-01  0.482364D-03  0.110460D-02  0.661834D-03
     41 -0.153362D-01  0.107053D-01 -0.324526D-03 -0.282739D-02 -0.290228D-02
     42  0.109195D-01 -0.188422D-01 -0.954597D-02  0.415439D-02  0.368873D-02
     43 -0.358978D-02 -0.432709D-02 -0.146693D-02 -0.253233D-02  0.126393D-04
     44 -0.154019D-01  0.179479D-01  0.111449D-01 -0.242561D-02 -0.455336D-02
     45 -0.932508D-02  0.181914D-01 -0.119579D-02 -0.256830D-02 -0.289179D-02
     46  0.115330D-02 -0.527371D-01  0.167867D-01  0.942536D-02 -0.317819D-02
     47 -0.485017D-01  0.645231D-02 -0.143416D-01 -0.116017D-01 -0.566573D-02
     48  0.193626D-01 -0.248993D-01 -0.391957D-01  0.147015D-01 -0.302055D-02
                6             7             8             9            10
      6  0.597664D+01
      7  0.850996D-01  0.480571D+01
      8  0.745680D-01  0.531468D+01  0.490591D+01
      9  0.244024D+00  0.241844D+01 -0.378260D+01  0.145563D+02
     10  0.323605D-01 -0.895763D+01 -0.331386D+01 -0.120291D+01  0.182100D+02
     11 -0.562318D-02 -0.330154D+01  0.772863D+00  0.362530D+01 -0.426526D+01
     12  0.586575D-02 -0.113445D+01  0.356113D+01 -0.980568D+01 -0.151267D+01
     13 -0.110137D+00 -0.275261D+00 -0.234705D+00 -0.124486D+00 -0.888399D+01
     14  0.137962D+00 -0.363074D+00  0.621013D+00  0.187326D+00  0.867570D+01
     15 -0.419448D+00 -0.179610D+00  0.162760D+00  0.317278D+00  0.444072D+01
     16  0.260099D-02  0.192132D+00 -0.752639D-01  0.358969D-01  0.575702D-01
     17 -0.476217D-02 -0.955332D-01 -0.143035D+00  0.341599D-01 -0.586787D+00
     18 -0.305670D-01 -0.263615D-01  0.422382D-01 -0.440898D-01 -0.136653D+01
     19  0.295342D-02  0.206284D+00 -0.105954D+00 -0.668672D-01 -0.115716D+00
     20  0.179983D-02 -0.320646D-01 -0.895041D-01  0.112061D-01 -0.931913D-01
     21  0.145481D-02  0.141495D-01 -0.719339D-02 -0.104661D+00 -0.443406D-01
     22  0.392102D-03  0.426281D-01 -0.102365D+00 -0.336231D+00  0.322376D+00
     23 -0.144920D-02 -0.136429D+00 -0.198912D+00  0.142889D+00  0.270077D-01
     24 -0.799034D-02 -0.288155D+00  0.925031D-01  0.811412D-01 -0.233270D+00
     25 -0.220242D-02  0.510512D-02 -0.348019D-02 -0.108395D+00 -0.100031D-01
     26  0.117736D-02  0.566079D-01 -0.874852D-01 -0.696672D-01  0.156916D-01
     27 -0.119688D-02 -0.130523D+00  0.423248D-02  0.694417D-01 -0.251529D-02
     28  0.170453D-02  0.441485D-01 -0.197336D-01 -0.419588D-01  0.112460D+00
     29 -0.384004D-04 -0.830603D-02 -0.144499D-01  0.522345D-02  0.322581D-01
     30 -0.122880D-02 -0.302477D-01  0.999324D-02  0.437102D-02 -0.112384D+00
     31 -0.526848D-03 -0.222665D-01  0.184566D-02 -0.563969D-02 -0.101475D-01
     32 -0.848510D-03 -0.193169D-01 -0.377337D-02  0.401528D-01 -0.126470D-01
     33 -0.220092D-02 -0.347995D-01  0.328979D-01  0.524038D-01  0.142880D-02
     34  0.509539D-02  0.504935D-01 -0.289962D+00 -0.453592D-01  0.267235D+00
     35 -0.130542D-03 -0.251327D+00  0.151257D+00  0.472970D-01  0.399629D-01
     36 -0.817046D-02 -0.420973D-01  0.550784D-01 -0.164776D+00 -0.482802D-01
     37  0.255559D-02  0.263497D-01 -0.316152D-01 -0.123211D-01  0.152070D+00
     38 -0.462423D-03 -0.129690D-01  0.298992D-02  0.426815D-02 -0.977061D-01
     39 -0.125626D-02 -0.105863D-01  0.869387D-02 -0.758325D-02 -0.394538D-01
     40  0.108516D-02  0.759619D-03 -0.261573D-01  0.340666D-02 -0.569942D-02
     41 -0.186460D-02 -0.345065D-01  0.303792D-01 -0.490760D-02 -0.126723D-01
     42  0.209673D-02  0.250031D-01 -0.352673D-01 -0.160258D-01  0.273024D-01
     43 -0.205619D-03 -0.125394D-01 -0.113297D-01 -0.383988D-02 -0.174215D-01
     44 -0.215899D-02 -0.354447D-01  0.468414D-01  0.263932D-01  0.402692D-01
     45 -0.236077D-02 -0.197520D-01  0.373436D-01 -0.251437D-02  0.621777D-02
     46  0.132007D-01  0.832877D-01  0.547038D-01 -0.115239D-01 -0.897300D+00
     47 -0.733729D-02  0.565598D-01 -0.150543D+00  0.511774D-01 -0.617934D-01
     48  0.101280D-02 -0.237282D-01  0.126529D+00  0.760251D-01  0.146083D+00
               11            12            13            14            15
     11  0.154095D+02
     12 -0.781133D+01  0.309895D+02
     13  0.866753D+01  0.450405D+01  0.787993D+01
     14 -0.939929D+01  0.495632D+01 -0.749275D+01  0.885422D+01
     15  0.489054D+01 -0.163144D+02 -0.355851D+01 -0.513415D+01  0.173021D+02
     16 -0.515954D+00 -0.141375D+01  0.571729D+00 -0.338750D+00 -0.205063D+00
     17 -0.621442D+01  0.178080D-01 -0.432581D+00 -0.205535D+00 -0.220911D+00
     18  0.516876D-02 -0.590396D+01 -0.265256D+00 -0.225498D+00  0.424473D-01
     19 -0.143785D+00 -0.688397D-01  0.115575D+00  0.105068D+00  0.799727D-01
     20  0.810915D-01 -0.974662D-02  0.110204D+00  0.127351D-01  0.426000D-01
     21 -0.213025D-01  0.128806D+00  0.103824D+00  0.569222D-01 -0.138342D-01
     22  0.691898D-02 -0.242206D+00  0.194266D+00  0.281188D+00 -0.205684D+00
     23 -0.759642D-01 -0.279547D-01  0.235961D+00 -0.801864D-01 -0.122380D+00
     24 -0.160382D-01  0.462634D-01 -0.160558D+00 -0.113248D+00 -0.147677D+00
     25 -0.417548D-02  0.782373D-02 -0.978944D-02  0.164964D-01 -0.116586D-01
     26  0.698725D-02 -0.243175D-01  0.638022D-01  0.506957D-01 -0.311733D-01
     27 -0.442612D-03 -0.150456D-01 -0.190952D-01 -0.227881D-01 -0.114574D-01
     28  0.270687D-01 -0.118070D+00  0.527573D-01  0.303995D-01 -0.173320D-01
     29 -0.442725D-01 -0.235993D-01  0.112961D-01 -0.939273D-02 -0.331246D-02
     30 -0.204045D-01  0.313096D-01 -0.214218D-01 -0.105779D-01 -0.733344D-02
     31 -0.588892D-02  0.187692D-01  0.188724D-01  0.417927D-01 -0.791719D-01
     32 -0.437759D-02  0.293701D-01  0.165707D-01 -0.686451D-01 -0.174570D-01
     33  0.266026D-01 -0.253070D-01 -0.153629D+00 -0.756289D-01  0.523099D-01
     34 -0.494451D-01 -0.370761D-01  0.583030D+00 -0.101459D+00  0.719080D-01
     35 -0.153200D+00 -0.388874D-01 -0.850771D-01 -0.312535D+00 -0.416348D-02
     36 -0.540342D-02  0.501046D-01  0.849511D-01 -0.135048D-01 -0.335202D+00
     37 -0.113671D+00 -0.402595D-01  0.738672D-01  0.293581D-02  0.339417D-03
     38 -0.553767D-02  0.192931D-01 -0.117785D-01 -0.159270D-01 -0.137265D-03
     39  0.221421D-01 -0.415078D-01 -0.129329D-01 -0.953060D-03 -0.174350D-01
     40 -0.121390D-01  0.124888D-01  0.364560D-01 -0.184323D-01  0.301576D-01
     41 -0.248683D-02 -0.170370D-01 -0.468674D-01 -0.237133D-01 -0.205524D-01
     42 -0.438311D-01  0.423074D-02  0.811543D-01 -0.141886D-01  0.417474D-02
     43  0.495977D-01  0.178630D-01  0.879975D-01 -0.859577D-01 -0.227603D-01
     44 -0.396996D-01 -0.229135D-01 -0.175768D+00 -0.361678D-01  0.199937D-01
     45  0.285667D-02  0.103121D-01 -0.887780D-01  0.316746D-01 -0.953241D-01
     46 -0.568049D-01  0.130355D+00  0.534007D-02 -0.698102D-01 -0.116581D+00
     47 -0.581116D+00 -0.733803D+00 -0.471618D-01  0.906164D-01 -0.773006D-01
     48 -0.744289D+00  0.745479D+00 -0.174515D+00 -0.139787D+00 -0.407021D-01
               16            17            18            19            20
     16  0.134643D+02
     17  0.198771D+01  0.161135D+02
     18  0.121770D+01  0.871461D+00  0.166908D+02
     19 -0.419232D+01  0.904816D+00  0.998396D+00  0.376156D+01
     20  0.752345D+00 -0.370951D+01  0.120050D+01 -0.876022D+00  0.366750D+01
     21  0.855219D+00  0.123395D+01 -0.337955D+01 -0.110787D+01 -0.145278D+01
     22 -0.578289D+01  0.300597D+00 -0.667654D+00  0.984465D-01  0.262113D-01
     23  0.224242D+00 -0.486174D+01 -0.185700D+01  0.235975D-01  0.965926D-01
     24 -0.545000D+00 -0.191286D+01 -0.149307D+01  0.167593D-01  0.716525D-01
     25  0.730035D-01 -0.323307D-01  0.781820D-02  0.122805D-01  0.756658D-02
     26  0.166780D-01  0.638988D-01  0.334166D-01  0.920706D-03 -0.820824D-03
     27 -0.357588D-01  0.904071D-01  0.115266D-01 -0.155484D-01  0.219910D-01
     28  0.734153D-01  0.104394D-01 -0.442135D-02  0.873137D-02 -0.643677D-02
     29 -0.295218D-01  0.461223D-01  0.173998D-01  0.347901D-03  0.190688D-01
     30  0.490494D-01  0.845945D-03  0.274089D-01  0.210603D-01  0.719766D-03
     31  0.125667D+00  0.612435D-02  0.241328D-01 -0.156341D-01  0.145675D-01
     32  0.181123D-01  0.127417D+00  0.415036D-01  0.150011D-01 -0.218821D-01
     33 -0.449238D-01 -0.282667D-01 -0.267144D-01  0.617895D-01  0.501149D-01
     34 -0.526809D+01 -0.183202D+01  0.105978D+00  0.110177D+00  0.579088D-01
     35 -0.173759D+01 -0.120864D+01 -0.316614D+00  0.437720D-01 -0.713309D-01
     36  0.945085D-01 -0.322894D+00 -0.575545D+01  0.317551D-01 -0.496058D-02
     37  0.263225D-01  0.194082D-01  0.204186D-01 -0.468843D-03  0.109162D-01
     38  0.776015D-01  0.376845D-01 -0.290245D-01  0.180295D-01 -0.222045D-01
     39 -0.916057D-02 -0.213150D-02  0.485263D-01  0.870047D-02 -0.116364D-01
     40  0.615762D-01  0.130632D-01 -0.252524D-01  0.150039D-01  0.247926D-02
     41 -0.255742D-01  0.870008D-02  0.506769D-01 -0.951257D-03 -0.430856D-01
     42  0.182355D-01 -0.444071D-03  0.795003D-01 -0.475895D-02  0.104898D-02
     43  0.972336D-01  0.461911D-01  0.242955D-01 -0.232049D-01  0.316203D-01
     44 -0.402222D-01  0.212934D-01 -0.234143D-01  0.420185D-01  0.100701D+00
     45  0.449851D-03  0.275093D-01  0.944287D-01  0.202269D-01  0.688111D-01
     46  0.830280D-01 -0.697826D-01  0.107821D+00 -0.195794D-01 -0.164066D-01
     47 -0.790030D-01  0.420090D-01  0.137129D+00 -0.192920D-01 -0.339334D-04
     48  0.150134D+00  0.152772D+00 -0.231363D+00  0.198049D-01  0.116002D-01
               21            22            23            24            25
     21  0.324090D+01
     22  0.290559D-01  0.144830D+02
     23  0.437707D-01 -0.255359D+00  0.145409D+02
     24 -0.460291D-01  0.105987D+01  0.121342D+01  0.126627D+02
     25 -0.638625D-02 -0.407900D+01 -0.806878D+00  0.519448D-01  0.397204D+01
     26  0.103083D-01 -0.101203D+01 -0.178602D+01 -0.925280D-01  0.828797D+00
     27 -0.299061D-01  0.139454D+00 -0.297595D+00 -0.437880D+01  0.546049D-01
     28  0.149717D-01 -0.161082D+01 -0.668658D-02 -0.648609D+00 -0.160501D-01
     29  0.122199D-02  0.728957D-01 -0.414684D+01 -0.102505D-01  0.835807D-01
     30 -0.491552D-01 -0.762047D+00  0.104393D-01 -0.394763D+01  0.122445D-01
     31  0.499819D-01 -0.372055D+01  0.744781D+00  0.907173D+00  0.844289D-01
     32  0.427924D-01  0.784165D+00 -0.355944D+01  0.102017D+01 -0.437770D-01
     33  0.128065D+00  0.113555D+01  0.121345D+01 -0.297339D+01 -0.112943D-01
     34  0.349607D-01 -0.268406D-03  0.126868D-02 -0.423732D-02 -0.407723D-01
     35  0.102534D-01 -0.703606D-01  0.145118D+00 -0.926277D-01 -0.421116D-01
     36  0.119904D+00  0.633657D-01 -0.187891D+00  0.667448D-01  0.229196D-01
     37 -0.620333D-03  0.158697D-01 -0.292612D-01  0.130847D-01  0.497402D-02
     38 -0.147828D-01 -0.959736D-02 -0.178773D-01 -0.607818D-02 -0.531241D-02
     39  0.854410D-02  0.458948D-02 -0.467114D-02 -0.916628D-02  0.583716D-03
     40  0.873250D-03 -0.495002D-01 -0.118135D-01  0.151650D-01  0.377550D-03
     41  0.130602D-01 -0.523736D-02  0.609820D-01 -0.120739D+00 -0.132986D-02
     42  0.683201D-02  0.101454D-01 -0.123994D+00  0.822293D-01  0.258130D-02
     43  0.171151D-01 -0.152254D-01  0.296741D-01 -0.396660D-02 -0.297840D-02
     44  0.762589D-01  0.284008D-02  0.109544D-01  0.115006D-02 -0.269184D-02
     45  0.812319D-02  0.128072D-03  0.117469D-01 -0.137302D-01 -0.125784D-02
     46  0.177202D-01 -0.520516D-02  0.267174D-01 -0.715940D-01 -0.206864D-02
     47  0.119926D-01  0.305470D-01 -0.221688D-01 -0.565009D-01  0.154903D-02
     48 -0.117399D-02 -0.818550D-01 -0.567337D-01  0.115518D+00 -0.251840D-02
               26            27            28            29            30
     26  0.164336D+01
     27  0.386670D+00  0.424243D+01
     28  0.502187D-01  0.342478D-02  0.138602D+01
     29  0.276816D-01 -0.118137D-01 -0.882744D-01  0.404423D+01
     30 -0.133329D-01  0.604407D-01  0.910210D+00  0.741672D-01  0.382026D+01
     31  0.348043D-02  0.880135D-02 -0.569884D-01 -0.700338D-01 -0.541875D-01
     32 -0.704774D-01 -0.692817D-01 -0.381640D-01  0.591077D-01 -0.800837D-02
     33 -0.699484D-01  0.599087D-01 -0.442578D-01 -0.139611D-01  0.748818D-01
     34 -0.479022D-01  0.250483D-01  0.226707D-02  0.111892D-01 -0.989633D-02
     35  0.146179D+00 -0.915069D-01  0.244915D-01  0.453559D-02 -0.856183D-02
     36 -0.960306D-01 -0.880415D-02 -0.271352D-01 -0.115291D-01 -0.165342D-01
     37 -0.158032D-01  0.340564D-02 -0.274983D-01 -0.157313D-01  0.140109D-01
     38  0.780768D-02 -0.327158D-02  0.476204D-02  0.202862D-01 -0.288229D-01
     39 -0.859734D-03 -0.213260D-02 -0.476305D-03 -0.226895D-01  0.653191D-03
     40  0.156544D-02 -0.156956D-02 -0.341514D-03  0.143714D-02 -0.198631D-02
     41 -0.411212D-03  0.493024D-02  0.704802D-02  0.208453D-02 -0.686519D-02
     42 -0.542228D-02 -0.860661D-03 -0.118680D-01 -0.628894D-02  0.730248D-02
     43  0.547211D-02 -0.505761D-03  0.708133D-02  0.266198D-02 -0.244816D-02
     44  0.116649D-01 -0.132409D-02  0.983144D-02  0.426891D-03 -0.188795D-02
     45  0.508387D-02 -0.219660D-02  0.520926D-02  0.290638D-02 -0.322718D-02
     46  0.279215D-02 -0.290102D-02  0.445821D-04 -0.373543D-03  0.505585D-03
     47  0.297914D-02 -0.569670D-02  0.689726D-03 -0.912763D-03  0.317799D-03
     48 -0.861726D-02  0.623010D-02 -0.116410D-02  0.829895D-03 -0.230599D-02
               31            32            33            34            35
     31  0.362537D+01
     32 -0.699290D+00  0.354408D+01
     33 -0.894883D+00 -0.108771D+01  0.262249D+01
     34 -0.505511D-02  0.334600D-03  0.387749D-02  0.137186D+02
     35 -0.123299D-01 -0.136353D-01  0.238964D-02  0.135454D+01  0.124754D+02
     36  0.256320D-01  0.148303D-01 -0.489474D-02 -0.249684D+00  0.408115D+00
     37  0.885778D-02  0.381392D-02  0.117359D-01 -0.160119D+01 -0.994921D-01
     38 -0.224733D-02 -0.317923D-02 -0.182633D-02 -0.237232D+00 -0.410303D+01
     39  0.728024D-03  0.585944D-03 -0.145975D-02 -0.681590D+00  0.354056D-01
     40 -0.147607D-02 -0.857401D-04  0.124793D-02 -0.421088D+01  0.410743D-01
     41 -0.281779D-02 -0.274279D-02 -0.599828D-02  0.123540D+00 -0.377137D+01
     42  0.646544D-02  0.203648D-02  0.114466D-01 -0.239068D+00 -0.940322D+00
     43 -0.251767D-01 -0.623925D-02  0.465270D-04 -0.358465D+01  0.820230D+00
     44 -0.146479D-01  0.246917D-01 -0.551831D-01  0.107473D+01 -0.327004D+01
     45  0.329449D-02 -0.294866D-01  0.135421D-02  0.981173D+00  0.101417D+01
     46 -0.237177D-02  0.402114D-04 -0.349239D-02 -0.618158D-01  0.438559D-01
     47  0.250944D-03 -0.291427D-02 -0.260130D-02  0.265060D-01  0.232839D-02
     48 -0.173110D-02  0.228432D-03  0.116012D-01  0.656949D-01 -0.375992D-01
               36            37            38            39            40
     36  0.151365D+02
     37 -0.754279D+00  0.133240D+01
     38  0.810725D-01  0.369620D+00  0.398245D+01
     39 -0.389436D+01  0.716390D+00 -0.403282D-01  0.385376D+01
     40 -0.696133D-01  0.195046D-01 -0.257544D-01  0.895251D-01  0.404014D+01
     41 -0.108213D+01 -0.251877D-01  0.636863D-01  0.230382D-01  0.867972D-01
     42 -0.184610D+01  0.612065D-01  0.147994D-01 -0.704817D-02  0.391784D-01
     43  0.854975D+00 -0.583409D-01 -0.573219D-01 -0.535641D-01  0.640122D-01
     44  0.115891D+01 -0.580447D-01  0.574308D-01 -0.120844D-01 -0.241306D-02
     45 -0.326408D+01 -0.190649D-01  0.122500D-02  0.726592D-01 -0.655037D-01
     46  0.339834D-01  0.855258D-02 -0.290498D-02 -0.682187D-02  0.252695D-01
     47 -0.951393D-02 -0.274290D-02 -0.264990D-02  0.174542D-02 -0.363193D-01
     48 -0.979416D-02 -0.868826D-02  0.231534D-02  0.159240D-02 -0.296851D-01
               41            42            43            44            45
     41  0.358999D+01
     42  0.117678D+01  0.177399D+01
     43  0.215246D-03 -0.189485D-01  0.349211D+01
     44  0.816423D-01 -0.177170D-01 -0.820284D+00  0.297705D+01
     45 -0.316489D-01 -0.677924D-01 -0.806805D+00 -0.116183D+01  0.326167D+01
     46 -0.442920D-01 -0.117023D-01 -0.277987D-02 -0.234856D-02 -0.364464D-02
     47 -0.145847D-02  0.796737D-02 -0.216013D-03 -0.185148D-03  0.434222D-02
     48  0.235829D-01 -0.244347D-01  0.215979D-03  0.466528D-02  0.387737D-02
               46            47            48
     46  0.775020D+00
     47  0.190529D+00  0.623264D+00
     48 -0.921112D-01  0.692424D+00 -0.612367D+00
 ReadGW:  IGet=0 IStart=         114 Next=        7241 LGW=        7127.
 ICntrl=12127.
 Symmetry not used in FoFDir.
 MinBra= 0 MaxBra= 2 Meth= 1.
 IRaf=       0 NMat=   1 IRICut=       1 DoRegI=T DoRafI=F ISym2E= 0 JSym2E=0.
 PrsmSu:  NPrtUS=   8 ThrOK=T
 PRISM was handed    16287858 working-precision words and  2454 shell-pairs
 PRISM was handed    16287858 working-precision words and  2454 shell-pairs
 PRISM was handed    16287858 working-precision words and  2454 shell-pairs
 PRISM was handed    16287858 working-precision words and  2454 shell-pairs
 PRISM was handed    16287858 working-precision words and  2454 shell-pairs
 PRISM was handed    16287858 working-precision words and  2454 shell-pairs
 PRISM was handed    16287858 working-precision words and  2454 shell-pairs
 PRISM was handed    16287858 working-precision words and  2454 shell-pairs
 Pruned (  75, 302) grid will be used in CalDFT.
 CkSvGd:  ISavGI=        -1 IRadAn=       4 IRASav=       4 ISavGd=        -1.
 CalDSu:  NPrtUS=   8 ThrOK=T
 IPart= 0 IRanGd=          0 ScrnBf=T ScrnGd=T RCrit=4.00D+00 DoMicB=T.
 IPart= 6 IRanGd=          0 ScrnBf=T ScrnGd=T RCrit=4.00D+00 DoMicB=T.
 IPart= 2 IRanGd=          0 ScrnBf=T ScrnGd=T RCrit=4.00D+00 DoMicB=T.
 CutRad = 1000.00    CtRdIn =    0.00    XCrit =  15.00   ICut = 0
 IPart= 5 IRanGd=          0 ScrnBf=T ScrnGd=T RCrit=4.00D+00 DoMicB=T.
 IPart= 7 IRanGd=          0 ScrnBf=T ScrnGd=T RCrit=4.00D+00 DoMicB=T.
 IPart= 1 IRanGd=          0 ScrnBf=T ScrnGd=T RCrit=4.00D+00 DoMicB=T.
 CutRad = 1000.00    CtRdIn =    0.00    XCrit =  15.00   ICut = 0
 CutRad = 1000.00    CtRdIn =    0.00    XCrit =  15.00   ICut = 0
 CutRad = 1000.00    CtRdIn =    0.00    XCrit =  15.00   ICut = 0
 IPart= 4 IRanGd=          0 ScrnBf=T ScrnGd=T RCrit=4.00D+00 DoMicB=T.
 IPart= 3 IRanGd=          0 ScrnBf=T ScrnGd=T RCrit=4.00D+00 DoMicB=T.
 CutRad = 1000.00    CtRdIn =    0.00    XCrit =  15.00   ICut = 0
 CutRad = 1000.00    CtRdIn =    0.00    XCrit =  15.00   ICut = 0
 CutRad = 1000.00    CtRdIn =    0.00    XCrit =  15.00   ICut = 0
 CutRad = 1000.00    CtRdIn =    0.00    XCrit =  15.00   ICut = 0
 IPart= 7        13597 of        15294 points in      32 batches and      103 microbatches, Max-NSigAt=      16 Max-NSgAt2=      16
 IPart= 3        12888 of        14764 points in      29 batches and       85 microbatches, Max-NSigAt=      16 Max-NSgAt2=      16
 IPart= 5        14137 of        16254 points in      34 batches and       85 microbatches, Max-NSigAt=      16 Max-NSgAt2=      16
 IPart= 6        14237 of        16392 points in      34 batches and      106 microbatches, Max-NSigAt=      16 Max-NSgAt2=      16
 IPart= 2        14395 of        16234 points in      33 batches and       95 microbatches, Max-NSigAt=      16 Max-NSgAt2=      16
 IPart= 0        15019 of        16772 points in      34 batches and      111 microbatches, Max-NSigAt=      16 Max-NSgAt2=      16
 IPart= 4        14968 of        17508 points in      37 batches and       93 microbatches, Max-NSigAt=      16 Max-NSgAt2=      16
 IPart= 1        12894 of        14718 points in      30 batches and       94 microbatches, Max-NSigAt=      16 Max-NSgAt2=      16
 Polarizability after L703:
                1             2             3
      1  0.686822D+02
      2 -0.720308D+01  0.610302D+02
      3 -0.372186D+01 -0.100789D+01  0.581154D+02
 Dipole Derivatives after L703:
               1            2            3            4            5
      1-0.435582D+00-0.281160D-01-0.827745D-02 0.360004D+00-0.690530D-01
      2 0.302508D+00-0.174935D+00 0.139135D-01-0.896471D-02 0.236059D+00
      3 0.637214D-01 0.621386D-01-0.228174D+00 0.205858D-01-0.541590D-01
               6            7            8            9           10
      1-0.103646D-01-0.129786D+00 0.259664D+00 0.666201D-01 0.797760D+00
      2-0.476131D-01-0.986229D-01-0.788637D+00-0.295978D-01 0.372652D-01
      3 0.274589D+00 0.183410D-01-0.918231D-01-0.230124D+00-0.109884D-01
              11           12           13           14           15
      1-0.998578D-01-0.230221D+00-0.724660D+00 0.794776D-02-0.729328D-02
      2 0.110393D+01 0.126561D+00-0.230663D+00-0.634426D+00-0.157886D+00
      3 0.102687D+00 0.733504D+00-0.132568D+00-0.139591D+00-0.558237D+00
              16           17           18           19           20
      1 0.791326D-01-0.358761D-01 0.201267D+00 0.253383D-01-0.250066D-01
      2-0.160245D-01 0.111448D+00 0.138328D-01-0.131691D-01-0.368159D-01
      3-0.335044D-01 0.551407D-01 0.128471D-01-0.152148D-01-0.480183D-01
              21           22           23           24           25
      1-0.491823D-01-0.284950D-01 0.641185D-01-0.656163D-01 0.643945D-01
      2-0.545872D-01 0.160303D-01 0.375246D-01 0.138233D-01 0.733352D-01
      3-0.511119D-01 0.792805D-01 0.126111D-01 0.737881D-01-0.141243D-01
              26           27           28           29           30
      1 0.508372D-01-0.507378D-02-0.128516D+00 0.287617D-02 0.743016D-01
      2-0.960867D-01 0.471144D-02-0.461393D-02 0.790812D-01 0.174487D-01
      3 0.420068D-01 0.446433D-01 0.643089D-01 0.161851D-01 0.477332D-02
              31           32           33           34           35
      1 0.282745D-01-0.591220D-01-0.277969D-01 0.446992D-01-0.261018D-01
      2-0.585126D-01 0.224698D-02-0.267418D-01 0.320862D-01 0.175220D-01
      3-0.777036D-01-0.828189D-01-0.202631D-01 0.954969D-02 0.172048D-01
              36           37           38           39           40
      1 0.752095D-02-0.134112D+00 0.326383D-02 0.740972D-01 0.808614D-01
      2 0.760057D-02 0.325834D-01 0.438705D-01-0.821710D-02-0.692909D-02
      3 0.574527D-01 0.570504D-01 0.351719D-02 0.675732D-01 0.336326D-01
              41           42           43           44           45
      1 0.577950D-02 0.847022D-02 0.373303D-01-0.145000D-01-0.516416D-01
      2 0.101170D-01 0.883356D-01-0.722811D-01 0.834561D-02-0.689407D-01
      3 0.499109D-01-0.110359D+00-0.772367D-01-0.302999D-01 0.249276D-02
              46           47           48
      1 0.633562D-01-0.368537D-01 0.231905D-01
      2 0.159719D-01 0.807511D-01 0.107356D+00
      3 0.148703D-01 0.853085D-01-0.733958D-01
 Hessian after L703:
                1             2             3             4             5
      1  0.353958D+00
      2  0.445006D-01  0.420672D+00
      3  0.319353D-01  0.217385D+00  0.119248D+00
      4 -0.770628D-01 -0.652641D-01 -0.363036D-01  0.123467D+00
      5 -0.111069D+00 -0.323551D+00 -0.178546D+00  0.111015D+00  0.316652D+00
      6 -0.601391D-01 -0.177789D+00 -0.101187D+00  0.612991D-01  0.172601D+00
      7 -0.238798D+00 -0.506214D-01 -0.189814D-01 -0.435942D-01  0.359368D-03
      8  0.571725D-01 -0.674323D-01 -0.252487D-01 -0.357241D-01 -0.596841D-02
      9  0.234207D-01 -0.289161D-01 -0.178070D-01 -0.207505D-01  0.401519D-02
     10 -0.551508D-01  0.499284D-01  0.113707D-01 -0.933437D-02  0.151946D-01
     11  0.232539D-01 -0.192534D-01 -0.114482D-01 -0.595426D-02  0.173484D-01
     12 -0.128096D-03 -0.580274D-02 -0.306996D-02 -0.421418D-02  0.433243D-02
     13  0.125550D-01  0.210389D-01  0.976646D-02  0.628777D-02 -0.139428D-01
     14 -0.123571D-01 -0.656712D-02 -0.392988D-03 -0.357597D-02 -0.305838D-02
     15  0.486864D-03 -0.264103D-03 -0.941747D-03  0.634818D-03 -0.192722D-02
     16  0.828864D-02 -0.242180D-02  0.127100D-02 -0.509439D-03 -0.197593D-02
     17  0.421757D-02 -0.455910D-02 -0.348693D-02 -0.695617D-03 -0.242760D-02
     18  0.195211D-02 -0.144685D-02  0.272879D-02 -0.408255D-03 -0.126060D-02
     19  0.951703D-03  0.737605D-03  0.824336D-03  0.439704D-03 -0.103505D-02
     20 -0.528023D-03  0.262830D-03  0.388839D-03  0.985231D-04  0.890348D-04
     21 -0.498141D-03  0.483593D-03  0.878797D-04  0.167289D-03  0.214250D-03
     22 -0.194743D-02  0.105471D-02 -0.119639D-02  0.370789D-03 -0.920504D-04
     23  0.149314D-02 -0.308043D-03  0.882948D-04 -0.734138D-04 -0.981205D-05
     24 -0.508021D-03  0.245971D-03  0.370008D-03  0.222483D-03 -0.229932D-03
     25 -0.163045D-03  0.819615D-04 -0.849282D-04 -0.702845D-04 -0.895930D-04
     26 -0.456091D-03  0.319356D-03  0.696102D-04  0.209795D-04 -0.137157D-03
     27  0.506557D-04 -0.464870D-03 -0.137381D-03 -0.670112D-04  0.111029D-03
     28 -0.922633D-04  0.326228D-05 -0.354689D-04  0.845496D-04  0.279853D-04
     29 -0.371641D-03  0.278624D-03 -0.228274D-04  0.828683D-04 -0.102613D-03
     30  0.889029D-03 -0.369730D-03  0.313807D-03 -0.137330D-03  0.469000D-04
     31  0.351408D-04 -0.851506D-04  0.516859D-04 -0.789541D-04  0.512712D-04
     32  0.212956D-05 -0.151398D-04  0.804781D-04 -0.548299D-05  0.100101D-03
     33  0.157765D-03  0.524440D-04  0.486878D-04  0.113276D-03 -0.858945D-04
     34 -0.187040D-02  0.183689D-02  0.851562D-03  0.495854D-03  0.469306D-03
     35 -0.208102D-02  0.876983D-03  0.645900D-03  0.238683D-03  0.224594D-04
     36  0.127787D-02 -0.627413D-03  0.104503D-03 -0.674791D-04 -0.146195D-03
     37 -0.207892D-03  0.247858D-03  0.593124D-04  0.174988D-03 -0.405290D-04
     38  0.101884D-02 -0.555876D-03 -0.272410D-03 -0.101156D-03 -0.210618D-03
     39  0.288902D-04  0.220173D-04  0.562780D-04 -0.237226D-05  0.215532D-04
     40  0.211846D-03 -0.781145D-04 -0.641653D-04 -0.769170D-04  0.416372D-04
     41 -0.110835D-03  0.596789D-04 -0.100032D-04  0.426045D-04 -0.271207D-04
     42 -0.201349D-03  0.133731D-04  0.476422D-04 -0.666051D-05  0.798534D-04
     43 -0.165010D-03 -0.161862D-03 -0.822889D-04 -0.149671D-03  0.210532D-03
     44  0.217680D-03  0.231663D-03  0.172173D-03  0.193745D-03 -0.188958D-03
     45  0.889487D-04  0.943501D-04  0.352904D-04  0.826022D-04 -0.134882D-03
     46 -0.542420D-03 -0.797710D-03  0.617811D-03 -0.443894D-03  0.874911D-03
     47 -0.490290D-02 -0.459324D-03  0.598429D-03 -0.298467D-03  0.146962D-02
     48  0.118658D-02 -0.261576D-02  0.101855D-03 -0.562271D-03  0.908206D-03
                6             7             8             9            10
      6  0.101767D+00
      7 -0.604675D-04  0.414158D+00
      8  0.115963D-02 -0.769885D-02  0.365366D+00
      9 -0.360905D-05  0.194884D-02  0.104053D+00  0.678193D-01
     10  0.377471D-02 -0.109896D+00 -0.149850D-01  0.506289D-02  0.699844D+00
     11  0.273989D-02  0.308025D-01 -0.180413D+00 -0.150620D-01  0.177514D+00
     12  0.832815D-02  0.280175D-01 -0.823262D-01 -0.503217D-01  0.293626D-01
     13 -0.419722D-02  0.318034D-02 -0.163339D-01 -0.165072D-01 -0.353839D+00
     14  0.184532D-02 -0.234673D-01 -0.802810D-01 -0.594460D-01 -0.220073D+00
     15 -0.835538D-02 -0.148241D-01 -0.290868D-01  0.844824D-02 -0.125400D+00
     16 -0.770440D-03 -0.191571D-01  0.137432D-01  0.106979D-01 -0.136200D+00
     17 -0.119903D-02  0.359240D-01 -0.523753D-02 -0.775358D-02 -0.332904D-02
     18 -0.147399D-03  0.665210D-02  0.203632D-02  0.713265D-03  0.237035D-01
     19 -0.402731D-03 -0.330635D-03  0.140264D-02  0.196461D-03 -0.138126D-01
     20  0.726991D-04  0.139741D-02 -0.295487D-03 -0.610558D-03 -0.147700D-02
     21  0.547097D-04  0.173246D-03 -0.907708D-04 -0.213849D-03  0.419033D-02
     22  0.795333D-04  0.978401D-03 -0.191529D-02  0.957725D-03 -0.130607D-01
     23 -0.119818D-03  0.467448D-03 -0.164337D-02  0.647630D-03 -0.617972D-02
     24 -0.373778D-04 -0.534846D-03  0.222046D-02 -0.798827D-04  0.167821D-01
     25  0.760161D-04 -0.198820D-03  0.141559D-03  0.412556D-03  0.828436D-03
     26  0.883700D-04  0.167167D-03  0.122617D-02 -0.994215D-03  0.131784D-02
     27  0.967608D-04  0.319945D-03 -0.456643D-03  0.101098D-04 -0.162038D-02
     28 -0.402830D-04  0.820045D-04 -0.436029D-03  0.211260D-03  0.119985D-02
     29 -0.251403D-05  0.275294D-03  0.445624D-03 -0.580072D-03 -0.517833D-04
     30 -0.820147D-04 -0.595923D-04  0.302599D-03 -0.149027D-03 -0.120145D-02
     31  0.887178D-04 -0.317061D-03 -0.583351D-04 -0.200231D-03  0.934076D-03
     32 -0.104920D-03  0.139124D-03  0.859101D-04 -0.253986D-03  0.122765D-03
     33 -0.112827D-03  0.447540D-03  0.416127D-03 -0.161882D-04 -0.300229D-02
     34  0.333700D-03 -0.625160D-02 -0.613104D-03  0.239523D-03 -0.164399D-01
     35 -0.163680D-04 -0.764314D-03 -0.697611D-03  0.620255D-03  0.122483D-01
     36 -0.136915D-03  0.158385D-02  0.476666D-03 -0.840335D-04  0.423710D-02
     37  0.279110D-04 -0.701680D-03  0.232876D-03  0.781178D-05  0.779064D-03
     38 -0.107237D-03  0.186391D-02  0.495977D-03 -0.136733D-03 -0.826800D-03
     39 -0.195779D-04  0.454819D-05 -0.185717D-03  0.155708D-03 -0.910859D-03
     40 -0.215851D-04 -0.188149D-03 -0.743983D-04  0.254126D-03  0.111602D-02
     41  0.692081D-04  0.783755D-04  0.225641D-03 -0.460901D-03 -0.145325D-02
     42 -0.296130D-04 -0.599133D-04 -0.544228D-03  0.843509D-04  0.456871D-03
     43  0.446514D-04  0.258338D-03 -0.780215D-03 -0.209878D-03  0.629123D-03
     44 -0.634767D-04 -0.757786D-05  0.632907D-03 -0.261299D-04 -0.252009D-02
     45 -0.377695D-04  0.185052D-03  0.360171D-03  0.197143D-03 -0.180614D-02
     46 -0.925216D-04  0.776215D-03  0.592650D-02 -0.574203D-02  0.240263D-02
     47  0.825511D-03  0.110848D-01 -0.265090D-01  0.490380D-02 -0.543051D-02
     48 -0.975781D-04 -0.481225D-02  0.269138D-01 -0.875281D-02  0.350001D-01
               11            12            13            14            15
     11  0.553789D+00
     12  0.192266D+00  0.119987D+00
     13 -0.242172D+00 -0.743674D-01  0.379652D+00
     14 -0.301339D+00 -0.770647D-01  0.277685D+00  0.381139D+00
     15 -0.145428D+00 -0.935359D-01  0.147459D+00  0.171291D+00  0.126975D+00
     16  0.114266D-01 -0.131749D-02 -0.316484D-01 -0.149400D-01  0.250815D-02
     17 -0.728991D-01 -0.855335D-02 -0.283071D-01  0.261156D-02  0.438319D-03
     18 -0.120241D-01 -0.514728D-01 -0.252072D-01 -0.854478D-02  0.552279D-02
     19 -0.223069D-01 -0.212460D-01 -0.904031D-02  0.197020D-03  0.192960D-02
     20 -0.168321D-02  0.168392D-02  0.325882D-03  0.116564D-02 -0.357743D-03
     21  0.517644D-02  0.401496D-02  0.278528D-02 -0.165621D-03  0.572231D-03
     22 -0.126465D-01  0.295071D-01  0.971536D-03  0.268568D-02 -0.464716D-03
     23  0.169967D-03  0.405029D-02  0.390472D-03  0.579542D-03 -0.938923D-03
     24  0.370563D-02 -0.142969D-01 -0.327598D-02 -0.134681D-02 -0.870536D-03
     25 -0.140999D-02  0.133081D-03 -0.238850D-03  0.236070D-03 -0.482296D-04
     26 -0.188859D-02 -0.326358D-03 -0.385512D-03  0.461320D-03  0.192320D-03
     27  0.176277D-02  0.749865D-03  0.369500D-03 -0.373202D-03  0.634499D-04
     28  0.510584D-03  0.937050D-04  0.324781D-03 -0.699455D-04  0.514112D-03
     29 -0.184606D-02  0.145736D-02 -0.188571D-04  0.521512D-03  0.364180D-03
     30  0.200808D-02 -0.416628D-02  0.629068D-03 -0.361185D-03  0.777283D-03
     31  0.112747D-02  0.105123D-02  0.646770D-04 -0.110308D-03 -0.281674D-03
     32  0.368430D-03 -0.268872D-03  0.394865D-03 -0.153139D-03  0.183453D-03
     33 -0.220217D-02 -0.240804D-03  0.824266D-03  0.677820D-03  0.161998D-02
     34  0.334560D-01  0.375073D-03  0.172747D-02  0.562184D-03  0.105992D-02
     35 -0.112928D-02 -0.369407D-02 -0.243458D-02 -0.126446D-02 -0.496908D-03
     36 -0.710358D-02 -0.883099D-04 -0.222811D-03 -0.107111D-02 -0.893161D-03
     37  0.972528D-03 -0.674488D-04  0.539051D-04  0.724465D-03  0.261271D-03
     38 -0.691327D-02  0.461847D-03  0.733551D-04  0.125754D-02  0.677018D-04
     39  0.201311D-03  0.141671D-03 -0.147911D-03  0.395503D-03  0.268169D-03
     40  0.588468D-03 -0.111696D-02 -0.280964D-03 -0.451223D-03  0.359862D-03
     41  0.372966D-04  0.113421D-02  0.441386D-03  0.311701D-03 -0.113240D-03
     42  0.755342D-03 -0.639298D-03 -0.413684D-03 -0.218236D-03  0.545774D-03
     43  0.986570D-03  0.102668D-02 -0.562483D-03  0.173540D-03 -0.294242D-03
     44 -0.114222D-02 -0.765771D-03  0.268638D-03  0.147836D-02  0.110566D-02
     45 -0.156950D-02 -0.530273D-03  0.189408D-03  0.154838D-02  0.441111D-03
     46  0.385069D-02  0.128906D-01 -0.920764D-02 -0.721962D-02 -0.139011D-01
     47  0.167939D-01 -0.265842D-01  0.297597D-02  0.313711D-02  0.497039D-02
     48 -0.137776D-01  0.851401D-01 -0.376840D-01 -0.267738D-01 -0.406375D-01
               16            17            18            19            20
     16  0.460890D+00
     17  0.298692D-01  0.512431D+00
     18  0.554777D-01  0.730877D-01  0.482294D+00
     19 -0.106922D+00 -0.667697D-01 -0.787293D-01  0.117771D+00
     20 -0.698138D-01 -0.133518D+00 -0.100601D+00  0.750538D-01  0.147560D+00
     21 -0.824351D-01 -0.101194D+00 -0.160158D+00  0.854503D-01  0.105767D+00
     22 -0.743330D-01 -0.662701D-02  0.115368D-01  0.296685D-02  0.671018D-02
     23 -0.192851D-02 -0.872098D-01  0.246164D-01  0.295141D-02  0.765255D-02
     24  0.262494D-02  0.280983D-01 -0.147394D+00  0.373815D-02  0.101188D-01
     25 -0.112507D-03 -0.527055D-02  0.425693D-03 -0.215145D-04  0.352372D-03
     26  0.272290D-02 -0.102953D-01  0.416478D-04  0.398584D-04  0.675940D-03
     27 -0.991121D-02  0.292232D-01 -0.136401D-02 -0.437843D-03 -0.526861D-03
     28 -0.380967D-02  0.193561D-03  0.770074D-03  0.513679D-03  0.452298D-04
     29 -0.119770D-01 -0.166037D-02  0.381134D-02  0.481229D-03  0.257880D-03
     30  0.304802D-01  0.192136D-02 -0.105882D-01 -0.186937D-03 -0.802181D-03
     31  0.166220D-02  0.270933D-02  0.389540D-02  0.836081D-03 -0.299288D-03
     32  0.674410D-02  0.651789D-02  0.909754D-02 -0.212175D-03 -0.350481D-03
     33 -0.141955D-01 -0.163153D-01 -0.239442D-01  0.131213D-02  0.308263D-02
     34 -0.886349D-01  0.285488D-01 -0.458006D-02  0.696849D-02 -0.144583D-01
     35  0.283518D-01 -0.167888D+00  0.330815D-02  0.810788D-02 -0.189587D-01
     36 -0.315848D-02  0.988384D-03 -0.773657D-01  0.888186D-02 -0.191346D-01
     37 -0.106788D-01 -0.935814D-04  0.246623D-02  0.467616D-03  0.308778D-03
     38  0.318921D-01 -0.224874D-02 -0.752711D-02 -0.597337D-03  0.118907D-02
     39 -0.971784D-03 -0.252697D-03 -0.121071D-02  0.213551D-03 -0.875465D-04
     40 -0.998164D-03  0.342646D-02 -0.113646D-01  0.248224D-03 -0.466369D-03
     41 -0.286915D-02 -0.107106D-01  0.293396D-01 -0.760760D-03  0.968024D-03
     42  0.131023D-03 -0.726840D-03  0.559468D-03 -0.155457D-03  0.496695D-03
     43  0.663382D-02  0.761301D-02  0.803599D-02 -0.597867D-03  0.282723D-02
     44 -0.159950D-01 -0.211888D-01 -0.203734D-01  0.289732D-02 -0.503258D-02
     45  0.222125D-02  0.212359D-03  0.219058D-03  0.470799D-04  0.730662D-03
     46 -0.447092D-02 -0.140934D-02  0.537374D-02 -0.438330D-03 -0.765771D-04
     47 -0.282853D-02 -0.171707D-02  0.643928D-02 -0.186809D-03  0.169302D-04
     48  0.734776D-02  0.551244D-02 -0.183930D-01 -0.143516D-02 -0.220959D-03
               21            22            23            24            25
     21  0.177096D+00
     22 -0.143725D-01  0.568654D+00
     23 -0.154207D-01 -0.976439D-02  0.557146D+00
     24 -0.225396D-01  0.137727D-01  0.454952D-01  0.452040D+00
     25 -0.277619D-03 -0.789845D-01  0.843186D-01 -0.395725D-02  0.808690D-01
     26  0.212512D-03  0.827891D-01 -0.280265D+00  0.752828D-02 -0.917589D-01
     27  0.109449D-02 -0.244688D-02  0.447499D-02 -0.471641D-01  0.240146D-02
     28  0.476300D-03 -0.294957D+00  0.143565D-02  0.566536D-01 -0.920388D-02
     29 -0.467112D-03  0.217692D-02 -0.471486D-01 -0.140672D-02  0.297703D-01
     30  0.115203D-02  0.558381D-01 -0.118987D-02 -0.578179D-01 -0.145586D-02
     31  0.132456D-02 -0.112222D+00 -0.710276D-01 -0.865554D-01  0.616600D-02
     32  0.293715D-02 -0.711290D-01 -0.129521D+00 -0.973908D-01 -0.160855D-01
     33 -0.473185D-02 -0.845918D-01 -0.955059D-01 -0.160205D+00  0.159794D-02
     34  0.185906D-02  0.240180D-02 -0.231108D-02 -0.122387D-02  0.758555D-04
[...]
    Z6       -0.60854  -0.00315   0.00000  -0.01760  -0.01101  -0.61955
    X7       -0.32054  -0.00014   0.00000  -0.00646  -0.00781  -0.32836
    Y7        2.62783  -0.00072   0.00000   0.00895  -0.00111   2.62672
    Z7        0.77190  -0.00078   0.00000  -0.03944  -0.02615   0.74575
    X8       -0.92150   0.00073   0.00000  -0.02999  -0.02520  -0.94670
    Y8        2.55344  -0.00050   0.00000  -0.02581  -0.01666   2.53678
    Z8       -3.27963   0.00157   0.00000  -0.01830  -0.00643  -3.28606
    X9       -1.61575   0.00054   0.00000  -0.04901  -0.03722  -1.65297
    Y9        4.49654  -0.00107   0.00000  -0.03655  -0.02445   4.47209
    Z9       -3.36902  -0.00037   0.00000  -0.03615  -0.01726  -3.38628
   X10        1.08765  -0.00100   0.00000  -0.03130  -0.02566   1.06200
   Y10        2.54798   0.00027   0.00000   0.00311   0.00722   2.55520
   Z10       -3.76580  -0.00019   0.00000  -0.01890  -0.00371  -3.76951
   X11       -1.93704   0.00078   0.00000  -0.00656  -0.00356  -1.94060
   Y11        1.41512   0.00109   0.00000  -0.03614  -0.01756   1.39755
   Z11       -4.67654   0.00045   0.00000  -0.02086  -0.01542  -4.69195
   X12       -0.29326  -0.00018   0.00000   0.03075   0.01747  -0.27579
   Y12       -1.29743   0.00209   0.00000   0.01424   0.00899  -1.28844
   Z12       -0.46017   0.00008   0.00000   0.01354   0.01039  -0.44979
   X13        1.69384  -0.00088   0.00000   0.02550   0.01299   1.70682
   Y13       -1.35013  -0.00035   0.00000   0.02609   0.01624  -1.33388
   Z13       -1.02550   0.00041   0.00000   0.00700   0.00686  -1.01864
   X14       -0.44129   0.00013   0.00000   0.05278   0.03379  -0.40749
   Y14       -2.05804   0.00012   0.00000   0.04123   0.02831  -2.02974
   Z14        1.45707  -0.00108   0.00000   0.02358   0.01711   1.47418
   X15       -1.37649   0.00091   0.00000   0.04585   0.03012  -1.34638
   Y15       -2.51904   0.00040   0.00000  -0.02753  -0.02378  -2.54282
   Z15       -1.72724   0.00109   0.00000   0.04600   0.03581  -1.69142
   X16       -3.87449   0.00002   0.00000   0.01282   0.00001  -3.87448
   Y16        0.37987   0.00090   0.00000  -0.05342  -0.05963   0.32024
   Z16        2.83768  -0.00111   0.00000  -0.04559  -0.04775   2.78993
         Item               Value     Threshold  Converged?
 Maximum Force            0.013578     0.000450     NO 
 RMS     Force            0.004201     0.000300     NO 
 Maximum Displacement     0.179507     0.001800     NO 
 RMS     Displacement     0.042208     0.001200     NO 
 Predicted change in Energy=-1.647705D-03
 GradGradGradGradGradGradGradGradGradGradGradGradGradGradGradGradGradGrad


 Test job not archived.
 1\1\GINC-NODE28\Freq\UB3LYP\CBSB7\C4H9O3(2)\NYEE\15-Jul-2014\0\\# freq
  nosymm b3lyp/cbsb7 iop(7/33=1)\\Title Card Required\\0,2\O,-3.946485,
 2.195074,0.434806\H,-4.242131,1.377449,-0.011059\O,-2.541735,2.057091,
 0.36673\C,-2.180426,0.799319,-0.010251\O,-3.012572,0.011177,-0.431048\
 C,-0.678581,0.754106,-0.322028\H,-0.169625,1.390587,0.408471\C,-0.4876
 37,1.351221,-1.735508\H,-0.855017,2.379467,-1.782809\H,0.575562,1.3483
 31,-1.992774\H,-1.025038,0.748847,-2.474717\C,-0.155186,-0.686569,-0.2
 43514\H,0.896339,-0.714456,-0.542671\H,-0.233519,-1.089069,0.771048\H,
 -0.728409,-1.333018,-0.914014\H,-2.050291,0.201021,1.501633\\Version=A
 M64L-G03RevD.01\HF=-383.4412669\S2=0.758922\S2-1=0.\S2A=0.750012\RMSD=
 4.973e-09\RMSF=4.201e-03\ZeroPoint=0.1237569\Thermal=0.132364\Dipole=0
 .8402981,-0.275335,-0.2081303\DipoleDeriv=-0.4355825,0.3025085,0.06372
 14,-0.028116,-0.1749354,0.0621386,-0.0082775,0.0139135,-0.2281736,0.36
 0004,-0.0089647,0.0205858,-0.069053,0.2360595,-0.054159,-0.0103646,-0.
 0476131,0.2745888,-0.1297857,-0.0986229,0.018341,0.259664,-0.7886369,-
 0.0918231,0.0666201,-0.0295978,-0.2301238,0.7977598,0.0372652,-0.01098
 84,-0.0998578,1.1039344,0.102687,-0.2302212,0.1265613,0.7335042,-0.724
 66,-0.2306628,-0.1325683,0.0079478,-0.6344261,-0.1395914,-0.0072933,-0
 .1578858,-0.5582368,0.0791326,-0.0160245,-0.0335044,-0.0358761,0.11144
 81,0.0551407,0.201267,0.0138328,0.0128471,0.0253383,-0.0131691,-0.0152
 148,-0.0250066,-0.0368159,-0.0480183,-0.0491823,-0.0545872,-0.0511119,
 -0.028495,0.0160303,0.0792805,0.0641185,0.0375246,0.0126111,-0.0656163
 ,0.0138233,0.0737881,0.0643945,0.0733352,-0.0141243,0.0508372,-0.09608
 67,0.0420068,-0.0050738,0.0047114,0.0446433,-0.1285156,-0.0046139,0.06
 43089,0.0028762,0.0790812,0.0161851,0.0743016,0.0174487,0.0047733,0.02
 82745,-0.0585126,-0.0777036,-0.059122,0.002247,-0.0828189,-0.0277969,-
 0.0267418,-0.0202631,0.0446992,0.0320862,0.0095497,-0.0261018,0.017522
 ,0.0172048,0.0075209,0.0076006,0.0574527,-0.134112,0.0325834,0.0570504
 ,0.0032638,0.0438705,0.0035172,0.0740972,-0.0082171,0.0675732,0.080861
 4,-0.0069291,0.0336326,0.0057795,0.010117,0.0499109,0.0084702,0.088335
 6,-0.1103585,0.0373303,-0.0722811,-0.0772367,-0.0145,0.0083456,-0.0302
 999,-0.0516416,-0.0689407,0.0024928,0.0633562,0.0159719,0.0148703,-0.0
 368537,0.0807511,0.0853085,0.0231905,0.1073562,-0.0733958\Polar=68.682
 2258,-7.2030783,61.0301733,-3.7218597,-1.0078898,58.1153643\PG=C01 [X(
 C4H9O3)]\NImag=1\\0.35395775,0.04450063,0.42067210,0.03193528,0.217384
 52,0.11924818,-0.07706280,-0.06526409,-0.03630355,0.12346690,-0.111068
 81,-0.32355095,-0.17854618,0.11101516,0.31665198,-0.06013910,-0.177788
 75,-0.10118682,0.06129911,0.17260149,0.10176725,-0.23879805,-0.0506214
 0,-0.01898140,-0.04359423,0.00035937,-0.00006047,0.41415849,0.05717249
 ,-0.06743226,-0.02524868,-0.03572410,-0.00596841,0.00115963,-0.0076988
 5,0.36536587,0.02342071,-0.02891605,-0.01780703,-0.02075046,0.00401519
 ,-0.00000361,0.00194884,0.10405329,0.06781929,-0.05515082,0.04992835,0
 .01137075,-0.00933437,0.01519456,0.00377471,-0.10989648,-0.01498501,0.
 00506289,0.69984413,0.02325391,-0.01925342,-0.01144823,-0.00595426,0.0
 1734842,0.00273989,0.03080251,-0.18041336,-0.01506196,0.17751417,0.553
 78918,-0.00012810,-0.00580274,-0.00306996,-0.00421418,0.00433243,0.008
 32815,0.02801746,-0.08232622,-0.05032169,0.02936264,0.19226616,0.11998
 742,0.01255505,0.02103887,0.00976646,0.00628777,-0.01394278,-0.0041972
 2,0.00318034,-0.01633394,-0.01650721,-0.35383863,-0.24217186,-0.074367
 37,0.37965172,-0.01235709,-0.00656712,-0.00039299,-0.00357597,-0.00305
 838,0.00184532,-0.02346725,-0.08028105,-0.05944597,-0.22007275,-0.3013
 3872,-0.07706466,0.27768522,0.38113857,0.00048686,-0.00026410,-0.00094
 175,0.00063482,-0.00192722,-0.00835538,-0.01482411,-0.02908677,0.00844
 824,-0.12539997,-0.14542845,-0.09353592,0.14745943,0.17129134,0.126975
 22,0.00828864,-0.00242180,0.00127100,-0.00050944,-0.00197593,-0.000770
 44,-0.01915707,0.01374322,0.01069791,-0.13619986,0.01142655,-0.0013174
 9,-0.03164836,-0.01494002,0.00250815,0.46089035,0.00421757,-0.00455910
 ,-0.00348693,-0.00069562,-0.00242760,-0.00119903,0.03592402,-0.0052375
 3,-0.00775358,-0.00332904,-0.07289906,-0.00855335,-0.02830712,0.002611
 56,0.00043832,0.02986920,0.51243063,0.00195211,-0.00144685,0.00272879,
 -0.00040825,-0.00126060,-0.00014740,0.00665210,0.00203632,0.00071327,0
 .02370354,-0.01202413,-0.05147279,-0.02520719,-0.00854478,0.00552279,0
 .05547774,0.07308772,0.48229440,0.00095170,0.00073761,0.00082434,0.000
 43970,-0.00103505,-0.00040273,-0.00033063,0.00140264,0.00019646,-0.013
 81260,-0.02230688,-0.02124602,-0.00904031,0.00019702,0.00192960,-0.106
 92233,-0.06676972,-0.07872930,0.11777124,-0.00052802,0.00026283,0.0003
 8884,0.00009852,0.00008903,0.00007270,0.00139741,-0.00029549,-0.000610
 56,-0.00147700,-0.00168321,0.00168392,0.00032588,0.00116564,-0.0003577
 4,-0.06981384,-0.13351773,-0.10060117,0.07505376,0.14756032,-0.0004981
 4,0.00048359,0.00008788,0.00016729,0.00021425,0.00005471,0.00017325,-0
 .00009077,-0.00021385,0.00419033,0.00517644,0.00401496,0.00278528,-0.0
 0016562,0.00057223,-0.08243511,-0.10119433,-0.16015808,0.08545028,0.10
 576743,0.17709614,-0.00194743,0.00105471,-0.00119639,0.00037079,-0.000
 09205,0.00007953,0.00097840,-0.00191529,0.00095772,-0.01306069,-0.0126
 4650,0.02950711,0.00097154,0.00268568,-0.00046472,-0.07433299,-0.00662
 701,0.01153681,0.00296685,0.00671018,-0.01437249,0.56865380,0.00149314
 ,-0.00030804,0.00008829,-0.00007341,-0.00000981,-0.00011982,0.00046745
 ,-0.00164337,0.00064763,-0.00617972,0.00016997,0.00405029,0.00039047,0
 .00057954,-0.00093892,-0.00192851,-0.08720980,0.02461637,0.00295141,0.
 00765255,-0.01542071,-0.00976439,0.55714578,-0.00050802,0.00024597,0.0
 0037001,0.00022248,-0.00022993,-0.00003738,-0.00053485,0.00222046,-0.0
 0007988,0.01678212,0.00370563,-0.01429689,-0.00327598,-0.00134681,-0.0
 0087054,0.00262494,0.02809826,-0.14739367,0.00373815,0.01011879,-0.022
 53963,0.01377270,0.04549515,0.45203964,-0.00016304,0.00008196,-0.00008
 493,-0.00007028,-0.00008959,0.00007602,-0.00019882,0.00014156,0.000412
 56,0.00082844,-0.00140999,0.00013308,-0.00023885,0.00023607,-0.0000482
 3,-0.00011251,-0.00527055,0.00042569,-0.00002151,0.00035237,-0.0002776
 2,-0.07898450,0.08431856,-0.00395725,0.08086903,-0.00045609,0.00031936
 ,0.00006961,0.00002098,-0.00013716,0.00008837,0.00016717,0.00122617,-0
 .00099421,0.00131784,-0.00188859,-0.00032636,-0.00038551,0.00046132,0.
 00019232,0.00272290,-0.01029527,0.00004165,0.00003986,0.00067594,0.000
 21251,0.08278905,-0.28026526,0.00752828,-0.09175895,0.30308301,0.00005
 066,-0.00046487,-0.00013738,-0.00006701,0.00011103,0.00009676,0.000319
 95,-0.00045664,0.00001011,-0.00162038,0.00176277,0.00074987,0.00036950
 ,-0.00037320,0.00006345,-0.00991121,0.02922319,-0.00136401,-0.00043784
 ,-0.00052686,0.00109449,-0.00244688,0.00447499,-0.04716407,0.00240146,
 -0.01009468,0.05164399,-0.00009226,0.00000326,-0.00003547,0.00008455,0
 .00002799,-0.00004028,0.00008200,-0.00043603,0.00021126,0.00119985,0.0
 0051058,0.00009370,0.00032478,-0.00006995,0.00051411,-0.00380967,0.000
 19356,0.00077007,0.00051368,0.00004523,0.00047630,-0.29495690,0.001435
 65,0.05665357,-0.00920388,-0.00038188,0.00160629,0.31909410,-0.0003716
 4,0.00027862,-0.00002283,0.00008287,-0.00010261,-0.00000251,0.00027529
 ,0.00044562,-0.00058007,-0.00005178,-0.00184606,0.00145736,-0.00001886
 ,0.00052151,0.00036418,-0.01197702,-0.00166037,0.00381134,0.00048123,0
 .00025788,-0.00046711,0.00217692,-0.04714856,-0.00140672,0.02977028,0.
 00174564,-0.00698201,-0.00216530,0.04715686,0.00088903,-0.00036973,0.0
 0031381,-0.00013733,0.00004690,-0.00008201,-0.00005959,0.00030260,-0.0
 0014903,-0.00120145,0.00200808,-0.00416628,0.00062907,-0.00036119,0.00
 077728,0.03048022,0.00192136,-0.01058818,-0.00018694,-0.00080218,0.001
 15203,0.05583810,-0.00118987,-0.05781787,-0.00145586,-0.00051660,-0.00
 054464,-0.06313941,-0.00164212,0.06481001,0.00003514,-0.00008515,0.000
 05169,-0.00007895,0.00005127,0.00008872,-0.00031706,-0.00005834,-0.000
 20023,0.00093408,0.00112747,0.00105123,0.00006468,-0.00011031,-0.00028
 167,0.00166220,0.00270933,0.00389540,0.00083608,-0.00029929,0.00132456
 ,-0.11222193,-0.07102755,-0.08655537,0.00616600,0.00612803,0.00884668,
 -0.01413484,-0.01755449,-0.02136811,0.11697257,0.00000213,-0.00001514,
 0.00008048,-0.00000548,0.00010010,-0.00010492,0.00013912,0.00008591,-0
 .00025399,0.00012277,0.00036843,-0.00026887,0.00039487,-0.00015314,0.0
 0018345,0.00674410,0.00651789,0.00909754,-0.00021217,-0.00035048,0.002
 93715,-0.07112901,-0.12952126,-0.09739081,-0.01608555,-0.01499639,-0.0
 1973991,0.00084745,0.00006841,0.00151155,0.07886221,0.13652675,0.00015
 776,0.00005244,0.00004869,0.00011328,-0.00008589,-0.00011283,0.0004475
 4,0.00041613,-0.00001619,-0.00300229,-0.00220217,-0.00024080,0.0008242
 7,0.00067782,0.00161998,-0.01419549,-0.01631528,-0.02394418,0.00131213
 ,0.00308263,-0.00473185,-0.08459179,-0.09550594,-0.16020539,0.00159794
 ,0.00094109,0.00132630,0.00356251,0.00511951,0.00572685,0.09359197,0.1
 0401078,0.17873591,-0.00187040,0.00183689,0.00085156,0.00049585,0.0004
 6931,0.00033370,-0.00625160,-0.00061310,0.00023952,-0.01643985,0.03345
 602,0.00037507,0.00172747,0.00056218,0.00105992,-0.08863489,0.02854883
 ,-0.00458006,0.00696849,-0.01445827,0.00185906,0.00240180,-0.00231108,
 -0.00122387,0.00007586,-0.00065121,0.00142573,0.00030780,-0.00104561,0
 .00049743,-0.00015026,0.00056481,0.00007397,0.56086078,-0.00208102,0.0
 0087698,0.00064590,0.00023868,0.00002246,-0.00001637,-0.00076431,-0.00
 069761,0.00062026,0.01224827,-0.00112928,-0.00369407,-0.00243458,-0.00
 126446,-0.00049691,0.02835177,-0.16788834,0.00330815,0.00810788,-0.018
 95872,0.00175140,0.00463404,-0.01704626,0.00641371,-0.00021754,0.00029
 372,0.00124498,0.00034889,0.00050067,-0.00128642,-0.00000213,0.0013928
 6,-0.00145590,0.03743766,0.46433325,0.00127787,-0.00062741,0.00010450,
 -0.00006748,-0.00014619,-0.00013691,0.00158385,0.00047667,-0.00008403,
 0.00423710,-0.00710358,-0.00008831,-0.00022281,-0.00107111,-0.00089316
 ,-0.00315848,0.00098838,-0.07736573,0.00888186,-0.01913465,0.00196403,
 -0.01124620,0.03250146,-0.00414681,0.00070319,0.00310498,-0.00591861,-
 0.00067987,-0.00021786,0.00128386,-0.00023134,0.00040189,0.00132602,-0
 .00304306,0.00130952,0.57102711,-0.00020789,0.00024786,0.00005931,0.00
 017499,-0.00004053,0.00002791,-0.00070168,0.00023288,0.00000781,0.0007
 7906,0.00097253,-0.00006745,0.00005391,0.00072446,0.00026127,-0.010678
 82,-0.00009358,0.00246623,0.00046762,0.00030878,0.00016196,0.00036449,
 -0.00114463,0.00042265,0.00043604,-0.00002644,-0.00005431,0.00045089,0
 .00035804,-0.00046731,-0.00007742,0.00004135,-0.00001765,-0.28822782,0
 .00383571,0.06829060,0.31286250,0.00101884,-0.00055588,-0.00027241,-0.
 00010116,-0.00021062,-0.00010724,0.00186391,0.00049598,-0.00013673,-0.
 00082680,-0.00691327,0.00046185,0.00007336,0.00125754,0.00006770,0.031
 89206,-0.00224874,-0.00752711,-0.00059734,0.00118907,-0.00040073,0.000
 47762,0.00167935,-0.00103466,-0.00028342,0.00015729,-0.00030388,-0.000
 33633,-0.00019759,0.00044665,-0.00008330,-0.00006308,0.00014911,0.0014
 6538,-0.04595857,-0.00064465,-0.00565279,0.05157601,0.00002889,0.00002
 202,0.00005628,-0.00000237,0.00002155,-0.00001958,0.00000455,-0.000185
 72,0.00015571,-0.00091086,0.00020131,0.00014167,-0.00014791,0.00039550
 ,0.00026817,-0.00097178,-0.00025270,-0.00121071,0.00021355,-0.00008755
 ,-0.00011250,-0.00087821,0.00021482,0.00028251,0.00002153,-0.00015852,
 -0.00006684,-0.00001246,0.00036772,0.00018110,-0.00016126,-0.00001495,
 -0.00001816,0.06957176,-0.00120674,-0.06703955,-0.07631238,0.00016870,
 0.06833691,0.00021185,-0.00007811,-0.00006417,-0.00007692,0.00004164,-
 0.00002159,-0.00018815,-0.00007440,0.00025413,0.00111602,0.00058847,-0
 .00111696,-0.00028096,-0.00045122,0.00035986,-0.00099816,0.00342646,-0
 .01136462,0.00024822,-0.00046637,0.00040833,-0.00075462,0.00181707,0.0
 0056588,0.00060091,0.00039967,-0.00053690,0.00035781,0.00019527,-0.000
 24056,-0.00000595,-0.00004965,0.00032226,-0.04923228,-0.00717113,0.018
 53876,-0.00089475,-0.01127753,0.02917459,0.04884687,-0.00011083,0.0000
 5968,-0.00001000,0.00004260,-0.00002712,0.00006921,0.00007838,0.000225
 64,-0.00046090,-0.00145325,0.00003730,0.00113421,0.00044139,0.00031170
 ,-0.00011324,-0.00286915,-0.01071062,0.02933964,-0.00076076,0.00096802
 ,-0.00022112,0.00309394,-0.00582567,-0.00118603,-0.00011020,-0.0006422
 5,0.00195150,-0.00005004,0.00015259,-0.00042034,0.00018667,0.00009563,
 0.00006488,-0.00676099,-0.07936046,0.08381065,-0.00049641,-0.00046217,
 -0.00116767,0.00574086,0.08751130,-0.00020135,0.00001337,0.00004764,-0
 .00000666,0.00007985,-0.00002961,-0.00005991,-0.00054423,0.00008435,0.
 00045687,0.00075534,-0.00063930,-0.00041368,-0.00021824,0.00054577,0.0
 0013102,-0.00072684,0.00055947,-0.00015546,0.00049669,0.00060420,-0.00
 034646,0.00092457,0.00077456,0.00013412,0.00001723,-0.00002884,-0.0000
 2371,-0.00026064,0.00012878,0.00017212,-0.00021108,0.00038268,0.017793
 03,0.08553395,-0.27188056,0.00033924,0.00199579,-0.00729353,-0.0205222
 2,-0.09488016,0.29400684,-0.00016501,-0.00016186,-0.00008229,-0.000149
 67,0.00021053,0.00004465,0.00025834,-0.00078022,-0.00020988,0.00062912
 ,0.00098657,0.00102668,-0.00056248,0.00017354,-0.00029424,0.00663382,0
 .00761301,0.00803599,-0.00059787,0.00282723,0.00002806,0.00009233,-0.0
 0040126,0.00035019,-0.00000876,0.00002103,0.00018891,-0.00003379,-0.00
 008331,-0.00012578,0.00026635,-0.00025041,-0.00002761,-0.12093155,-0.0
 8247579,-0.08652280,-0.01483045,-0.01763561,-0.01958690,0.00139949,0.0
 0278288,0.00263810,0.12784688,0.00021768,0.00023166,0.00017217,0.00019
 375,-0.00018896,-0.00006348,-0.00000758,0.00063291,-0.00002613,-0.0025
 2009,-0.00114222,-0.00076577,0.00026864,0.00147836,0.00110566,-0.01599
 499,-0.02118884,-0.02037338,0.00289732,-0.00503258,0.00102174,-0.00056
 542,0.00138660,-0.00129481,0.00030533,0.00040483,0.00014430,0.00006583
 ,-0.00003527,0.00007292,0.00013370,-0.00005936,0.00109070,-0.07996793,
 -0.13505780,-0.09229179,0.00071417,0.00046951,0.00170115,0.00710365,0.
 00760091,0.00713413,0.08722401,0.15063911,0.00008895,0.00009435,0.0000
 3529,0.00008260,-0.00013488,-0.00003777,0.00018505,0.00036017,0.000197
 14,-0.00180614,-0.00156950,-0.00053027,0.00018941,0.00154838,0.0004411
 1,0.00222125,0.00021236,0.00021906,0.00004708,0.00073066,0.00088689,0.
 00068105,0.00065341,0.00099788,0.00004018,-0.00010507,0.00002465,0.000
 02427,0.00006104,-0.00001896,-0.00015722,-0.00011143,0.00029200,-0.084
 92208,-0.09370519,-0.14757958,0.00504222,0.00709521,0.00631567,-0.0159
 7982,-0.01769073,-0.01751787,0.09443655,0.10254949,0.15633347,-0.00054
 242,-0.00079771,0.00061781,-0.00044389,0.00087491,-0.00009252,0.000776
 22,0.00592650,-0.00574203,0.00240263,0.00385069,0.01289059,-0.00920764
 ,-0.00721962,-0.01390107,-0.00447092,-0.00140934,0.00537374,-0.0004383
 3,-0.00007658,0.00055866,-0.00054092,-0.00004322,0.00092265,0.00002589
 ,0.00005356,-0.00013462,-0.00018412,-0.00007188,0.00004848,0.00004933,
 0.00001346,-0.00016879,-0.00109938,-0.00005637,0.00165882,0.00002933,0
 .00000309,-0.00003073,-0.00034937,0.00024492,0.00006495,0.00015326,-0.
 00006805,-0.00017336,0.01384035,-0.00490290,-0.00045932,0.00059843,-0.
 00029847,0.00146962,0.00082551,0.01108477,-0.02650902,0.00490380,-0.00
 543051,0.01679390,-0.02658419,0.00297597,0.00313711,0.00497039,-0.0028
 2853,-0.00171707,0.00643928,-0.00018681,0.00001693,0.00039589,-0.00088
 247,0.00036426,0.00006351,0.00001966,-0.00014236,0.00002930,-0.0000389
 2,-0.00013734,0.00027839,0.00002187,0.00000286,-0.00003990,0.00146713,
 -0.00005843,-0.00135630,0.00001861,-0.00021483,-0.00001892,0.00025533,
 0.00006553,-0.00010975,-0.00005035,-0.00013885,0.00001173,-0.00122437,
 0.00752700,0.00118658,-0.00261576,0.00010185,-0.00056227,0.00090821,-0
 .00009758,-0.00481225,0.02691376,-0.00875281,0.03500014,-0.01377760,0.
 08514013,-0.03768404,-0.02677379,-0.04063750,0.00734776,0.00551244,-0.
 01839302,-0.00143516,-0.00022096,0.00022835,0.00317011,-0.00049171,0.0
 0008753,-0.00012187,-0.00000060,0.00021477,0.00001910,0.00040073,-0.00
 100674,-0.00006714,-0.00012689,-0.00018902,-0.00031169,0.00103373,-0.0
 0057227,-0.00016011,0.00004241,0.00002285,0.00022302,-0.00021989,0.000
 25542,0.00010038,-0.00017691,-0.00005872,-0.00189256,0.00959285,-0.016
 34326\\0.01054946,-0.00608592,-0.00244023,0.00094606,0.00432697,0.0021
 8488,-0.00828092,-0.00972788,-0.00314524,-0.01357765,0.00371367,-0.005
 85899,0.01044969,0.00918335,0.00618855,0.00081306,0.00082290,0.0031473
 6,0.00013641,0.00071748,0.00077840,-0.00072641,0.00049506,-0.00156636,
 -0.00053632,0.00107068,0.00036849,0.00100103,-0.00026627,0.00019047,-0
 .00077573,-0.00109472,-0.00045217,0.00018108,-0.00208794,-0.00008231,0
 .00087635,0.00035088,-0.00041272,-0.00012898,-0.00012361,0.00107933,-0
 .00091025,-0.00039647,-0.00109201,-0.00001688,-0.00089819,0.00111256\\
 \@


 ...THE PHYSICISTS HAVE MADE THEIR UNIVERSE, AND IF YOU DO NOT LIKE
 IT, YOU MUST MAKE YOUR OWN.
                               -- E. R. HARRISON IN "COSMOLOGY" (1980)
 Job cpu time:  0 days  1 hours  5 minutes 29.5 seconds.
 File lengths (MBytes):  RWF=    125 Int=      0 D2E=      0 Chk=      8 Scr=      1
 Normal termination of Gaussian 03 at Tue Jul 15 23:04:17 2014.
