 Entering Gaussian System, Link 0=g03
 Input=p07_adductfreq.gjf
 Output=p07_adductfreq.log
 Initial command:
 /opt/g03/l1.exe /scratch/nyee/Gau-4893.inp -scrdir=/scratch/nyee/
 Entering Link 1 = /opt/g03/l1.exe PID=      4895.
  
 Copyright (c) 1988,1990,1992,1993,1995,1998,2003,2004, Gaussian, Inc.
                  All Rights Reserved.
  
 This is the Gaussian(R) 03 program.  It is based on the
 the Gaussian(R) 98 system (copyright 1998, Gaussian, Inc.),
 the Gaussian(R) 94 system (copyright 1995, Gaussian, Inc.),
 the Gaussian 92(TM) system (copyright 1992, Gaussian, Inc.),
 the Gaussian 90(TM) system (copyright 1990, Gaussian, Inc.),
 the Gaussian 88(TM) system (copyright 1988, Gaussian, Inc.),
 the Gaussian 86(TM) system (copyright 1986, Carnegie Mellon
 University), and the Gaussian 82(TM) system (copyright 1983,
 Carnegie Mellon University). Gaussian is a federally registered
 trademark of Gaussian, Inc.
  
 This software contains proprietary and confidential information,
 including trade secrets, belonging to Gaussian, Inc.
  
 This software is provided under written license and may be
 used, copied, transmitted, or stored only in accord with that
 written license.
  
 The following legend is applicable only to US Government
 contracts under FAR:
  
                    RESTRICTED RIGHTS LEGEND
  
 Use, reproduction and disclosure by the US Government is
 subject to restrictions as set forth in subparagraphs (a)
 and (c) of the Commercial Computer Software - Restricted
 Rights clause in FAR 52.227-19.
  
 Gaussian, Inc.
 340 Quinnipiac St., Bldg. 40, Wallingford CT 06492
  
  
 ---------------------------------------------------------------
 Warning -- This program may not be used in any manner that
 competes with the business of Gaussian, Inc. or will provide
 assistance to any competitor of Gaussian, Inc.  The licensee
 of this program is prohibited from giving any competitor of
 Gaussian, Inc. access to this program.  By using this program,
 the user acknowledges that Gaussian, Inc. is engaged in the
 business of creating and licensing software in the field of
 computational chemistry and represents and warrants to the
 licensee that it is not a competitor of Gaussian, Inc. and that
 it will not use this program in any manner prohibited above.
 ---------------------------------------------------------------
  

 Cite this work as:
 Gaussian 03, Revision D.01,
 M. J. Frisch, G. W. Trucks, H. B. Schlegel, G. E. Scuseria, 
 M. A. Robb, J. R. Cheeseman, J. A. Montgomery, Jr., T. Vreven, 
 K. N. Kudin, J. C. Burant, J. M. Millam, S. S. Iyengar, J. Tomasi, 
 V. Barone, B. Mennucci, M. Cossi, G. Scalmani, N. Rega, 
 G. A. Petersson, H. Nakatsuji, M. Hada, M. Ehara, K. Toyota, 
 R. Fukuda, J. Hasegawa, M. Ishida, T. Nakajima, Y. Honda, O. Kitao, 
 H. Nakai, M. Klene, X. Li, J. E. Knox, H. P. Hratchian, J. B. Cross, 
 V. Bakken, C. Adamo, J. Jaramillo, R. Gomperts, R. E. Stratmann, 
 O. Yazyev, A. J. Austin, R. Cammi, C. Pomelli, J. W. Ochterski, 
 P. Y. Ayala, K. Morokuma, G. A. Voth, P. Salvador, J. J. Dannenberg, 
 V. G. Zakrzewski, S. Dapprich, A. D. Daniels, M. C. Strain, 
 O. Farkas, D. K. Malick, A. D. Rabuck, K. Raghavachari, 
 J. B. Foresman, J. V. Ortiz, Q. Cui, A. G. Baboul, S. Clifford, 
 J. Cioslowski, B. B. Stefanov, G. Liu, A. Liashenko, P. Piskorz, 
 I. Komaromi, R. L. Martin, D. J. Fox, T. Keith, M. A. Al-Laham, 
 C. Y. Peng, A. Nanayakkara, M. Challacombe, P. M. W. Gill, 
 B. Johnson, W. Chen, M. W. Wong, C. Gonzalez, and J. A. Pople, 
 Gaussian, Inc., Wallingford CT, 2004.
 
 ******************************************
 Gaussian 03:  AM64L-G03RevD.01 13-Oct-2005
                16-Jul-2014 
 ******************************************
 %chk=p07_adduct.chk
 %mem=1000mb
 %nproc=8
 Will use up to    8 processors via shared memory.
 -------------------------------------
 # freq nosymm b3lyp/cbsb7 iop(7/33=1)
 -------------------------------------
 1/10=4,30=1,38=1/1,3;
 2/15=1,17=6,18=5,40=1/2;
 3/5=4,6=6,7=700,11=2,16=1,25=1,30=1,74=-5/1,2,3;
 4//1;
 5/5=2,38=5/2;
 8/6=4,10=90,11=11/1;
 11/6=1,8=1,9=11,15=111,16=1,31=1/1,2,10;
 10/6=1,31=1/2;
 6/7=2,8=2,9=2,10=2,18=1,28=1/1;
 7/8=1,10=1,25=1,30=1,33=1/1,2,3,16;
 1/10=4,30=1/3;
 99//99;
 -------------------
 Title Card Required
 -------------------
 Symbolic Z-matrix:
 Charge =  0 Multiplicity = 2
 C                    -0.46733   1.49756   0.16925 
 C                    -0.32329   2.14546   1.52267 
 H                    -0.35894   1.30462   2.23354 
 C                    -1.45183   3.12757   1.83316 
 H                    -1.43489   3.97095   1.13841 
 H                    -2.42881   2.64948   1.74427 
 H                    -1.3482    3.51866   2.84791 
 C                     1.08036   2.77483   1.6378 
 H                     1.24716   3.13648   2.65439 
 H                     1.86847   2.05392   1.40437 
 H                     1.18257   3.62407   0.95653 
 O                    -1.3817    1.71802  -0.60103 
 H                     0.32487   0.78113  -0.11685 
 O                     0.01637  -0.37405  -2.44643 
 O                    -1.10143   0.21817  -2.85262 
 H                    -1.33947   0.82428  -2.10385 
 

 GradGradGradGradGradGradGradGradGradGradGradGradGradGradGradGradGradGrad
 Berny optimization.
 Initialization pass.
 Trust Radius=3.00D-01 FncErr=1.00D-07 GrdErr=1.00D-07
 Number of steps in this run=   2 maximum allowed number of steps=   2.
 GradGradGradGradGradGradGradGradGradGradGradGradGradGradGradGradGradGrad

                          Input orientation:                          
 ---------------------------------------------------------------------
 Center     Atomic     Atomic              Coordinates (Angstroms)
 Number     Number      Type              X           Y           Z
 ---------------------------------------------------------------------
    1          6             0       -0.467332    1.497564    0.169246
    2          6             0       -0.323293    2.145463    1.522674
    3          1             0       -0.358936    1.304619    2.233536
    4          6             0       -1.451834    3.127570    1.833156
    5          1             0       -1.434893    3.970951    1.138408
    6          1             0       -2.428812    2.649481    1.744270
    7          1             0       -1.348201    3.518660    2.847906
    8          6             0        1.080359    2.774829    1.637797
    9          1             0        1.247161    3.136483    2.654390
   10          1             0        1.868469    2.053921    1.404372
   11          1             0        1.182571    3.624070    0.956526
   12          8             0       -1.381700    1.718023   -0.601029
   13          1             0        0.324872    0.781127   -0.116848
   14          8             0        0.016374   -0.374054   -2.446430
   15          8             0       -1.101430    0.218166   -2.852618
   16          1             0       -1.339466    0.824278   -2.103851
 ---------------------------------------------------------------------
                    Distance matrix (angstroms):
                    1          2          3          4          5
     1  C    0.000000
     2  C    1.507411   0.000000
     3  H    2.076119   1.101641   0.000000
     4  C    2.528786   1.527920   2.162841   0.000000
     5  H    2.827206   2.171571   3.076738   1.092819   0.000000
     6  H    2.766770   2.176316   2.516430   1.091309   1.761030
     7  H    3.469291   2.166182   2.501614   1.092432   1.770442
     8  C    2.486643   1.542593   2.141960   2.564097   2.829592
     9  H    3.435329   2.174679   2.472325   2.821184   3.191857
    10  H    2.700192   2.196860   2.492047   3.515820   3.828569
    11  H    2.804286   2.185047   3.063797   2.820476   2.646606
    12  O    1.215728   2.411026   3.041662   2.813716   2.846780
    13  H    1.105766   2.229252   2.503186   3.530580   3.853235
    14  O    3.252489   4.713505   4.986069   5.721177   5.816898
    15  O    3.342245   4.843878   5.253631   5.526653   5.488432
    16  H    2.526045   3.991218   4.472705   4.562653   4.519170
                    6          7          8          9         10
     6  H    0.000000
     7  H    1.772344   0.000000
     8  C    3.513023   2.813459   0.000000
     9  H    3.818150   2.630477   1.091823   0.000000
    10  H    4.351649   3.817881   1.093304   1.766496   0.000000
    11  H    3.822624   3.161208   1.093521   1.767669   1.770986
    12  O    2.732121   3.890831   3.491549   4.418223   3.833805
    13  H    3.812779   4.368412   2.761229   3.752077   2.513326
    14  O    5.716875   6.711578   5.265780   6.313246   4.914671
    15  O    5.366993   6.591671   5.608971   6.660300   5.505657
    16  H    4.396143   5.637346   4.864168   5.888785   4.910244
                   11         12         13         14         15
    11  H    0.000000
    12  O    3.554501   0.000000
    13  H    3.157547   2.006139   0.000000
    14  O    5.378208   3.120401   2.618505   0.000000
    15  O    5.597001   2.719885   3.136192   1.328608   0.000000
    16  H    4.854422   1.749011   2.592309   1.841647   0.992313
                   16
    16  H    0.000000
 Symmetry turned off by external request.
 Stoichiometry    C4H9O3(2)
 Framework group  C1[X(C4H9O3)]
 Deg. of freedom    42
 Full point group                 C1
 Rotational constants (GHZ):      5.2632667      0.9761924      0.8577151
 Standard basis: CBSB7 (5D, 7F)
 Integral buffers will be    131072 words long.
 Raffenetti 2 integral format.
 Two-electron integral symmetry is turned off.
   180 basis functions,   296 primitive gaussians,   187 cartesian basis functions
    29 alpha electrons       28 beta electrons
       nuclear repulsion energy       296.8080030010 Hartrees.
 NAtoms=   16 NActive=   16 NUniq=   16 SFac= 7.50D-01 NAtFMM=   80 NAOKFM=F Big=F
 One-electron integrals computed using PRISM.
 NBasis=   180 RedAO= T  NBF=   180
 NBsUse=   180 1.00D-06 NBFU=   180
 Harris functional with IExCor=  402 diagonalized for initial guess.
 ExpMin= 1.03D-01 ExpMax= 8.59D+03 ExpMxC= 1.30D+03 IAcc=1 IRadAn=         1 AccDes= 1.00D-06
 HarFok:  IExCor= 402 AccDes= 1.00D-06 IRadAn=         1 IDoV=1
 ScaDFX=  1.000000  1.000000  1.000000  1.000000
 <S**2> of initial guess= 0.7500
 Requested convergence on RMS density matrix=1.00D-08 within 128 cycles.
 Requested convergence on MAX density matrix=1.00D-06.
 Requested convergence on             energy=1.00D-06.
 No special actions if energy rises.
 Integral accuracy reduced to 1.0D-05 until final iterations.
 Initial convergence to 1.0D-05 achieved.  Increase integral accuracy.
 SCF Done:  E(UB+HF-LYP) =  -383.496246526     A.U. after   17 cycles
             Convg  =    0.8260D-08             -V/T =  2.0033
             S**2   =   0.7530
 Annihilation of the first spin contaminant:
 S**2 before annihilation     0.7530,   after     0.7500
 Range of M.O.s used for correlation:     1   180
 NBasis=   180 NAE=    29 NBE=    28 NFC=     0 NFV=     0
 NROrb=    180 NOA=    29 NOB=    28 NVA=   151 NVB=   152

 **** Warning!!: The largest alpha MO coefficient is  0.10731881D+02


 **** Warning!!: The largest beta MO coefficient is  0.10828883D+02

 Symmetrizing basis deriv contribution to polar:
 IMax=3 JMax=2 DiffMx= 0.00D+00
 G2DrvN: will do   17 centers at a time, making    1 passes doing MaxLOS=2.
 FoFDir/FoFCou used for L=0 through L=2.
 DoAtom=TTTTTTTTTTTTTTTT
          Differentiating once with respect to electric field.
                with respect to dipole field.
          Differentiating once with respect to nuclear coordinates.
 Symmetry not used in FoFDir.
 MinBra= 0 MaxBra= 2 Meth= 1.
 IRaf=       0 NMat=  51 IRICut=      51 DoRegI=T DoRafI=T ISym2E= 0 JSym2E=0.
          There are  51 degrees of freedom in the 1st order CPHF.
    48 vectors were produced by pass  0.
 AX will form  48 AO Fock derivatives at one time.
    48 vectors were produced by pass  1.
    48 vectors were produced by pass  2.
    48 vectors were produced by pass  3.
    48 vectors were produced by pass  4.
    40 vectors were produced by pass  5.
    15 vectors were produced by pass  6.
     3 vectors were produced by pass  7.
     3 vectors were produced by pass  8.
 Inv2:  IOpt= 1 Iter= 1 AM= 4.02D-15 Conv= 1.00D-12.
 Inverted reduced A of dimension  301 with in-core refinement.
 Isotropic polarizability for W=    0.000000       58.08 Bohr**3.
 End of Minotr Frequency-dependent properties file   721 does not exist.

 **********************************************************************

            Population analysis using the SCF density.

 **********************************************************************

 Alpha  occ. eigenvalues --  -19.20549 -19.17462 -19.15575 -10.28553 -10.21006
 Alpha  occ. eigenvalues --  -10.19014 -10.17742  -1.17014  -1.08494  -0.84113
 Alpha  occ. eigenvalues --   -0.83007  -0.71280  -0.67372  -0.57464  -0.55021
 Alpha  occ. eigenvalues --   -0.51114  -0.48237  -0.47663  -0.46776  -0.45274
 Alpha  occ. eigenvalues --   -0.43101  -0.41251  -0.40730  -0.39541  -0.37060
 Alpha  occ. eigenvalues --   -0.36477  -0.30280  -0.27678  -0.26347
 Alpha virt. eigenvalues --   -0.05818   0.02862   0.06134   0.06533   0.08153
 Alpha virt. eigenvalues --    0.09375   0.09706   0.10263   0.12807   0.13406
 Alpha virt. eigenvalues --    0.16178   0.17305   0.19799   0.23201   0.26251
 Alpha virt. eigenvalues --    0.26812   0.27509   0.31130   0.35980   0.36582
 Alpha virt. eigenvalues --    0.37897   0.40467   0.42685   0.45915   0.50650
 Alpha virt. eigenvalues --    0.52248   0.54110   0.54751   0.55871   0.56229
 Alpha virt. eigenvalues --    0.57199   0.58106   0.59300   0.60903   0.62100
 Alpha virt. eigenvalues --    0.64437   0.66085   0.71062   0.74003   0.75950
 Alpha virt. eigenvalues --    0.77864   0.79349   0.80488   0.83268   0.85615
 Alpha virt. eigenvalues --    0.90069   0.93390   0.93731   1.03268   1.03734
 Alpha virt. eigenvalues --    1.10923   1.13907   1.18686   1.23086   1.26501
 Alpha virt. eigenvalues --    1.28008   1.33395   1.34626   1.35389   1.37046
 Alpha virt. eigenvalues --    1.43666   1.44245   1.45622   1.47242   1.48264
 Alpha virt. eigenvalues --    1.48832   1.51290   1.53637   1.55944   1.56476
 Alpha virt. eigenvalues --    1.59017   1.61042   1.64350   1.68481   1.69975
 Alpha virt. eigenvalues --    1.73221   1.75982   1.79826   1.83165   1.87058
 Alpha virt. eigenvalues --    1.93725   1.97490   2.02648   2.05576   2.06598
 Alpha virt. eigenvalues --    2.12586   2.16278   2.20418   2.28778   2.29529
 Alpha virt. eigenvalues --    2.32625   2.35008   2.38013   2.38563   2.41274
 Alpha virt. eigenvalues --    2.44566   2.45578   2.46575   2.47562   2.49763
 Alpha virt. eigenvalues --    2.53974   2.55452   2.56531   2.60872   2.61187
 Alpha virt. eigenvalues --    2.63587   2.67099   2.70023   2.73432   2.75584
 Alpha virt. eigenvalues --    2.76013   2.80285   2.82437   2.85576   2.87198
 Alpha virt. eigenvalues --    2.94347   3.02068   3.05618   3.07466   3.27132
 Alpha virt. eigenvalues --    3.28424   3.32504   3.39157   3.42950   3.47409
 Alpha virt. eigenvalues --    3.60667   3.74951   3.75569   3.79066   3.79973
 Alpha virt. eigenvalues --    3.81126   3.82009   3.91498   4.19806   4.31038
 Alpha virt. eigenvalues --    4.59261   4.62292   4.79851   4.81820   4.87075
 Alpha virt. eigenvalues --    5.12477   5.26477   5.59026   5.89527  23.78847
 Alpha virt. eigenvalues --   23.79158  23.90197  23.91795  49.66651  49.73851
 Alpha virt. eigenvalues --   49.91452
  Beta  occ. eigenvalues --  -19.19586 -19.15580 -19.15461 -10.28554 -10.21007
  Beta  occ. eigenvalues --  -10.19014 -10.17742  -1.14236  -1.08482  -0.83068
  Beta  occ. eigenvalues --   -0.79927  -0.71280  -0.67366  -0.57464  -0.54180
  Beta  occ. eigenvalues --   -0.50714  -0.48003  -0.47598  -0.43803  -0.43085
  Beta  occ. eigenvalues --   -0.41259  -0.40777  -0.39534  -0.38518  -0.37059
  Beta  occ. eigenvalues --   -0.36466  -0.29958  -0.24802
  Beta virt. eigenvalues --   -0.09681  -0.05792   0.02869   0.06161   0.06540
  Beta virt. eigenvalues --    0.08216   0.09498   0.09944   0.10884   0.13052
  Beta virt. eigenvalues --    0.13462   0.16789   0.17612   0.19919   0.23205
  Beta virt. eigenvalues --    0.26259   0.26872   0.27537   0.31153   0.36006
  Beta virt. eigenvalues --    0.36828   0.37914   0.40489   0.42737   0.45938
  Beta virt. eigenvalues --    0.50676   0.52280   0.54120   0.54766   0.55887
  Beta virt. eigenvalues --    0.56252   0.57203   0.58120   0.59310   0.60955
  Beta virt. eigenvalues --    0.62107   0.64457   0.66141   0.73461   0.74676
  Beta virt. eigenvalues --    0.76737   0.78490   0.80791   0.81831   0.84635
  Beta virt. eigenvalues --    0.87380   0.90473   0.93693   0.93805   1.03337
  Beta virt. eigenvalues --    1.03918   1.11653   1.13941   1.18711   1.23516
  Beta virt. eigenvalues --    1.27328   1.28043   1.33552   1.34745   1.35847
  Beta virt. eigenvalues --    1.37527   1.43685   1.44252   1.45624   1.47251
  Beta virt. eigenvalues --    1.48278   1.48839   1.51354   1.53665   1.56077
  Beta virt. eigenvalues --    1.56498   1.59024   1.61070   1.64356   1.68484
  Beta virt. eigenvalues --    1.69976   1.73224   1.75986   1.79831   1.83175
  Beta virt. eigenvalues --    1.87071   1.93757   1.97490   2.02650   2.05602
  Beta virt. eigenvalues --    2.06603   2.12681   2.16333   2.20421   2.28795
  Beta virt. eigenvalues --    2.29541   2.32640   2.35721   2.38571   2.41285
  Beta virt. eigenvalues --    2.42078   2.44572   2.45581   2.46581   2.47577
  Beta virt. eigenvalues --    2.49765   2.53990   2.55653   2.56537   2.60933
  Beta virt. eigenvalues --    2.61305   2.64173   2.68898   2.70301   2.73453
  Beta virt. eigenvalues --    2.75615   2.80230   2.81812   2.85467   2.87055
  Beta virt. eigenvalues --    2.88394   2.94824   3.02217   3.07398   3.08533
  Beta virt. eigenvalues --    3.28295   3.32088   3.32532   3.39878   3.43269
  Beta virt. eigenvalues --    3.47429   3.62626   3.74954   3.75581   3.79085
  Beta virt. eigenvalues --    3.80501   3.81351   3.82419   3.91500   4.19808
  Beta virt. eigenvalues --    4.31038   4.63331   4.65300   4.83408   4.84553
  Beta virt. eigenvalues --    4.89306   5.12531   5.27350   5.59036   5.90944
  Beta virt. eigenvalues --   23.78847  23.79157  23.90197  23.91795  49.68629
  Beta virt. eigenvalues --   49.74813  49.91470
          Condensed to atoms (all electrons):
              1          2          3          4          5          6
     1  C    4.743038   0.249518  -0.036627  -0.049652  -0.006607  -0.005394
     2  C    0.249518   5.380984   0.390853   0.295263  -0.039195  -0.032029
     3  H   -0.036627   0.390853   0.580872  -0.031790   0.008656  -0.005287
     4  C   -0.049652   0.295263  -0.031790   4.863323   0.407874   0.403995
     5  H   -0.006607  -0.039195   0.008656   0.407874   0.565505  -0.026577
     6  H   -0.005394  -0.032029  -0.005287   0.403995  -0.026577   0.555697
     7  H    0.007891  -0.033109  -0.006936   0.404433  -0.029238  -0.026253
     8  C   -0.060292   0.344498  -0.039676  -0.062464  -0.005974   0.007731
     9  H    0.006305  -0.027093  -0.009170  -0.004644  -0.000986  -0.000089
    10  H   -0.002032  -0.035010  -0.004488   0.008014  -0.000030  -0.000399
    11  H   -0.005087  -0.040672   0.008906  -0.004705   0.005497  -0.000164
    12  O    0.546336  -0.094974   0.001115   0.016632   0.004970   0.006767
    13  H    0.399055  -0.099642   0.001064   0.009238   0.000498   0.000734
    14  O    0.000037   0.000594  -0.000023  -0.000008  -0.000001  -0.000001
    15  O    0.002119  -0.000218   0.000013   0.000011   0.000003   0.000004
    16  H   -0.009662   0.002403  -0.000175  -0.000186  -0.000059  -0.000058
              7          8          9         10         11         12
     1  C    0.007891  -0.060292   0.006305  -0.002032  -0.005087   0.546336
     2  C   -0.033109   0.344498  -0.027093  -0.035010  -0.040672  -0.094974
     3  H   -0.006936  -0.039676  -0.009170  -0.004488   0.008906   0.001115
     4  C    0.404433  -0.062464  -0.004644   0.008014  -0.004705   0.016632
     5  H   -0.029238  -0.005974  -0.000986  -0.000030   0.005497   0.004970
     6  H   -0.026253   0.007731  -0.000089  -0.000399  -0.000164   0.006767
     7  H    0.574984  -0.005092   0.003395  -0.000013  -0.000808   0.000184
     8  C   -0.005092   4.900301   0.404952   0.398908   0.404225   0.001657
     9  H    0.003395   0.404952   0.555525  -0.024696  -0.027771  -0.000188
    10  H   -0.000013   0.398908  -0.024696   0.564259  -0.027950  -0.000045
    11  H   -0.000808   0.404225  -0.027771  -0.027950   0.565857   0.000838
    12  O    0.000184   0.001657  -0.000188  -0.000045   0.000838   7.860141
    13  H   -0.000250   0.000574  -0.000699   0.004804   0.000028  -0.048118
    14  O    0.000000  -0.000008   0.000001  -0.000084  -0.000001   0.001468
    15  O    0.000000   0.000003   0.000000   0.000008   0.000001  -0.021743
    16  H    0.000004  -0.000139   0.000009  -0.000023  -0.000029   0.060556
             13         14         15         16
     1  C    0.399055   0.000037   0.002119  -0.009662
     2  C   -0.099642   0.000594  -0.000218   0.002403
     3  H    0.001064  -0.000023   0.000013  -0.000175
     4  C    0.009238  -0.000008   0.000011  -0.000186
     5  H    0.000498  -0.000001   0.000003  -0.000059
     6  H    0.000734  -0.000001   0.000004  -0.000058
     7  H   -0.000250   0.000000   0.000000   0.000004
     8  C    0.000574  -0.000008   0.000003  -0.000139
     9  H   -0.000699   0.000001   0.000000   0.000009
    10  H    0.004804  -0.000084   0.000008  -0.000023
    11  H    0.000028  -0.000001   0.000001  -0.000029
    12  O   -0.048118   0.001468  -0.021743   0.060556
    13  H    0.608674   0.020515  -0.000751  -0.007184
    14  O    0.020515   8.152603   0.055864  -0.045432
    15  O   -0.000751   0.055864   7.840817   0.281828
    16  H   -0.007184  -0.045432   0.281828   0.421126
 Mulliken atomic charges:
              1
     1  C    0.221055
     2  C   -0.262170
     3  H    0.142693
     4  C   -0.255333
     5  H    0.115663
     6  H    0.121325
     7  H    0.110808
     8  C   -0.289205
     9  H    0.125150
    10  H    0.118776
    11  H    0.121835
    12  O   -0.335596
    13  H    0.111460
    14  O   -0.185523
    15  O   -0.157956
    16  H    0.297020
 Sum of Mulliken charges=   0.00000
 Atomic charges with hydrogens summed into heavy atoms:
              1
     1  C    0.332515
     2  C   -0.119477
     3  H    0.000000
     4  C    0.092463
     5  H    0.000000
     6  H    0.000000
     7  H    0.000000
     8  C    0.076555
     9  H    0.000000
    10  H    0.000000
    11  H    0.000000
    12  O   -0.335596
    13  H    0.000000
    14  O   -0.185523
    15  O    0.139063
    16  H    0.000000
 Sum of Mulliken charges=   0.00000
          Atomic-Atomic Spin Densities.
              1          2          3          4          5          6
     1  C   -0.005987   0.004828  -0.000236  -0.000581  -0.000009  -0.000004
     2  C    0.004828  -0.005596   0.000328   0.000943  -0.000006  -0.000003
     3  H   -0.000236   0.000328  -0.000105  -0.000051  -0.000004   0.000005
     4  C   -0.000581   0.000943  -0.000051  -0.000433   0.000017   0.000015
     5  H   -0.000009  -0.000006  -0.000004   0.000017  -0.000015   0.000007
     6  H   -0.000004  -0.000003   0.000005   0.000015   0.000007  -0.000016
     7  H    0.000015  -0.000022   0.000002   0.000012   0.000001   0.000000
     8  C   -0.000182   0.000294   0.000016  -0.000056   0.000010  -0.000005
     9  H    0.000036  -0.000057   0.000002   0.000011  -0.000001   0.000001
    10  H   -0.000235   0.000203  -0.000010  -0.000023   0.000000   0.000000
    11  H   -0.000008   0.000007  -0.000002   0.000001  -0.000002   0.000000
    12  O   -0.000140   0.000108  -0.000001  -0.000011  -0.000001  -0.000002
    13  H    0.002213  -0.001264   0.000054   0.000119   0.000001   0.000002
    14  O   -0.000064  -0.000054   0.000001   0.000001   0.000000   0.000000
    15  O   -0.000222   0.000006   0.000000   0.000000   0.000000   0.000000
    16  H    0.000268   0.000066  -0.000002   0.000000  -0.000001  -0.000001
              7          8          9         10         11         12
     1  C    0.000015  -0.000182   0.000036  -0.000235  -0.000008  -0.000140
     2  C   -0.000022   0.000294  -0.000057   0.000203   0.000007   0.000108
     3  H    0.000002   0.000016   0.000002  -0.000010  -0.000002  -0.000001
     4  C    0.000012  -0.000056   0.000011  -0.000023   0.000001  -0.000011
     5  H    0.000001   0.000010  -0.000001   0.000000  -0.000002  -0.000001
     6  H    0.000000  -0.000005   0.000001   0.000000   0.000000  -0.000002
     7  H   -0.000016   0.000002  -0.000002   0.000001   0.000000   0.000000
     8  C    0.000002  -0.000122   0.000022  -0.000001   0.000005   0.000000
     9  H   -0.000002   0.000022  -0.000024   0.000019   0.000001   0.000000
    10  H    0.000001  -0.000001   0.000019  -0.000094   0.000000   0.000000
    11  H    0.000000   0.000005   0.000001   0.000000  -0.000005  -0.000001
    12  O    0.000000   0.000000   0.000000   0.000000  -0.000001  -0.001961
    13  H   -0.000002   0.000023  -0.000010   0.000137   0.000001   0.000023
    14  O    0.000000   0.000000   0.000000   0.000008   0.000000   0.000041
    15  O    0.000000   0.000000   0.000000  -0.000001   0.000000   0.000037
    16  H    0.000000  -0.000001   0.000000   0.000000  -0.000001   0.001010
             13         14         15         16
     1  C    0.002213  -0.000064  -0.000222   0.000268
     2  C   -0.001264  -0.000054   0.000006   0.000066
     3  H    0.000054   0.000001   0.000000  -0.000002
     4  C    0.000119   0.000001   0.000000   0.000000
     5  H    0.000001   0.000000   0.000000  -0.000001
     6  H    0.000002   0.000000   0.000000  -0.000001
     7  H   -0.000002   0.000000   0.000000   0.000000
     8  C    0.000023   0.000000   0.000000  -0.000001
     9  H   -0.000010   0.000000   0.000000   0.000000
    10  H    0.000137   0.000008  -0.000001   0.000000
    11  H    0.000001   0.000000   0.000000  -0.000001
    12  O    0.000023   0.000041   0.000037   0.001010
    13  H   -0.001410  -0.002096   0.000265   0.000041
    14  O   -0.002096   0.848715  -0.134407   0.000748
    15  O    0.000265  -0.134407   0.434299  -0.000740
    16  H    0.000041   0.000748  -0.000740  -0.010149
 Mulliken atomic spin densities:
              1
     1  C   -0.000309
     2  C   -0.000220
     3  H   -0.000002
     4  C   -0.000037
     5  H   -0.000001
     6  H   -0.000001
     7  H   -0.000008
     8  C    0.000005
     9  H   -0.000001
    10  H    0.000005
    11  H   -0.000002
    12  O   -0.000899
    13  H   -0.001902
    14  O    0.712894
    15  O    0.299239
    16  H   -0.008761
 Sum of Mulliken spin densities=   1.00000
 APT atomic charges:
              1
     1  C    0.691757
     2  C   -0.036665
     3  H   -0.024835
     4  C    0.043662
     5  H   -0.002648
     6  H   -0.000630
     7  H   -0.011473
     8  C    0.070932
     9  H   -0.008392
    10  H   -0.007410
    11  H   -0.008762
    12  O   -0.730112
    13  H   -0.003875
    14  O   -0.103766
    15  O   -0.387713
    16  H    0.519929
 Sum of APT charges=   0.00000
 APT Atomic charges with hydrogens summed into heavy atoms:
              1
     1  C    0.687882
     2  C   -0.061500
     3  H    0.000000
     4  C    0.028911
     5  H    0.000000
     6  H    0.000000
     7  H    0.000000
     8  C    0.046368
     9  H    0.000000
    10  H    0.000000
    11  H    0.000000
    12  O   -0.730112
    13  H    0.000000
    14  O   -0.103766
    15  O    0.132216
    16  H    0.000000
 Sum of APT charges=   0.00000
 Electronic spatial extent (au):  <R**2>=  1881.7828
 Charge=     0.0000 electrons
 Dipole moment (field-independent basis, Debye):
    X=     0.7450    Y=     2.0055    Z=     4.2087  Tot=     4.7213
 Quadrupole moment (field-independent basis, Debye-Ang):
   XX=   -43.9528   YY=   -40.0199   ZZ=   -49.0262
   XY=     1.8830   XZ=    -1.0108   YZ=     1.1113
 Traceless Quadrupole moment (field-independent basis, Debye-Ang):
   XX=     0.3802   YY=     4.3130   ZZ=    -4.6932
   XY=     1.8830   XZ=    -1.0108   YZ=     1.1113
 Octapole moment (field-independent basis, Debye-Ang**2):
  XXX=    63.2197  YYY=  -211.4164  ZZZ=    23.2367  XYY=    24.7781
  XXY=   -76.3616  XXZ=    -1.5921  XZZ=    23.0795  YZZ=   -61.8259
  YYZ=     3.6763  XYZ=    -0.5774
 Hexadecapole moment (field-independent basis, Debye-Ang**3):
 XXXX=  -333.8401 YYYY= -1156.6460 ZZZZ=  -973.5644 XXXY=   103.8926
 XXXZ=   -39.4965 YYYX=   110.2043 YYYZ=  -266.0909 ZZZX=   -51.8186
 ZZZY=  -278.1593 XXYY=  -261.8675 XXZZ=  -208.8237 YYZZ=  -330.8152
 XXYZ=   -93.0558 YYXZ=   -13.5377 ZZXY=    31.6342
 N-N= 2.968080030010D+02 E-N=-1.492917064273D+03  KE= 3.822339676091D+02
  Exact polarizability:  60.799  -5.033  52.462   5.949   7.608  60.988
 Approx polarizability:  88.354 -10.749  71.408  13.045   1.525  80.811
                          Isotropic Fermi Contact Couplings
        Atom                 a.u.       MegaHertz       Gauss      10(-4) cm-1
     1  C(13)             -0.00061      -0.68077      -0.24292      -0.22708
     2  C(13)             -0.00021      -0.23737      -0.08470      -0.07918
     3  H(1)               0.00001       0.05584       0.01993       0.01863
     4  C(13)             -0.00002      -0.01850      -0.00660      -0.00617
     5  H(1)               0.00000       0.00141       0.00050       0.00047
     6  H(1)               0.00000      -0.00021      -0.00007      -0.00007
     7  H(1)               0.00000      -0.01667      -0.00595      -0.00556
     8  C(13)              0.00002       0.02356       0.00841       0.00786
     9  H(1)               0.00000      -0.00199      -0.00071      -0.00066
    10  H(1)               0.00000      -0.00062      -0.00022      -0.00021
    11  H(1)               0.00000      -0.00311      -0.00111      -0.00104
    12  O(17)             -0.00216       1.30782       0.46666       0.43624
    13  H(1)               0.00003       0.11970       0.04271       0.03993
    14  O(17)              0.05385     -32.64104     -11.64713     -10.88788
    15  O(17)              0.03809     -23.08900      -8.23873      -7.70166
    16  H(1)              -0.00556     -24.85861      -8.87017      -8.29194
 --------------------------------------------------------
       Center         ----  Spin Dipole Couplings  ----
                      3XX-RR        3YY-RR        3ZZ-RR
 --------------------------------------------------------
     1   Atom       -0.003919     -0.000407      0.004326
     2   Atom       -0.001162     -0.000220      0.001382
     3   Atom       -0.001065     -0.000776      0.001841
     4   Atom       -0.000688      0.000020      0.000668
     5   Atom       -0.000671      0.000433      0.000238
     6   Atom       -0.000486     -0.000178      0.000664
     7   Atom       -0.000445     -0.000032      0.000477
     8   Atom       -0.000749     -0.000049      0.000798
     9   Atom       -0.000458     -0.000092      0.000550
    10   Atom       -0.000551     -0.000404      0.000955
    11   Atom       -0.000701      0.000443      0.000259
    12   Atom       -0.000872      0.001217     -0.000345
    13   Atom       -0.005664     -0.003284      0.008948
    14   Atom       -0.207188      0.938995     -0.731807
    15   Atom       -0.113157      0.494155     -0.380998
    16   Atom       -0.022758      0.012450      0.010309
 --------------------------------------------------------
                        XY            XZ            YZ
 --------------------------------------------------------
     1   Atom        0.000249     -0.000526      0.004730
     2   Atom       -0.000041     -0.000089      0.001541
     3   Atom       -0.000027     -0.000053      0.000980
     4   Atom       -0.000252     -0.000340      0.001063
     5   Atom       -0.000313     -0.000277      0.001096
     6   Atom       -0.000453     -0.000674      0.000955
     7   Atom       -0.000123     -0.000177      0.000654
     8   Atom        0.000382      0.000546      0.001232
     9   Atom        0.000196      0.000313      0.000703
    10   Atom        0.000609      0.001064      0.001189
    11   Atom        0.000485      0.000467      0.001236
    12   Atom       -0.003259     -0.002065      0.003708
    13   Atom        0.001455      0.003044      0.006663
    14   Atom        1.866689     -1.062435     -1.444027
    15   Atom        0.945526     -0.566421     -0.723898
    16   Atom       -0.020303     -0.029332      0.043324
 --------------------------------------------------------


 ---------------------------------------------------------------------------------
              Anisotropic Spin Dipole Couplings in Principal Axis System
 ---------------------------------------------------------------------------------

       Atom             a.u.   MegaHertz   Gauss  10(-4) cm-1        Axes

              Baa    -0.0042    -0.564    -0.201    -0.188  0.8722 -0.4030  0.2773
     1 C(13)  Bbb    -0.0031    -0.410    -0.146    -0.137  0.4884  0.7501 -0.4459
              Bcc     0.0073     0.974     0.348     0.325 -0.0284  0.5243  0.8511
 
              Baa    -0.0012    -0.157    -0.056    -0.052  0.8219 -0.4746  0.3149
     2 C(13)  Bbb    -0.0011    -0.154    -0.055    -0.051  0.5689  0.7112 -0.4130
              Bcc     0.0023     0.311     0.111     0.104 -0.0279  0.5186  0.8545
 
              Baa    -0.0011    -0.589    -0.210    -0.197  0.2263  0.9255 -0.3038
     3 H(1)   Bbb    -0.0011    -0.567    -0.202    -0.189  0.9739 -0.2092  0.0882
              Bcc     0.0022     1.157     0.413     0.386 -0.0181  0.3158  0.9486
 
              Baa    -0.0008    -0.103    -0.037    -0.034  0.9801  0.1658  0.1092
     4 C(13)  Bbb    -0.0008    -0.103    -0.037    -0.034 -0.0670  0.7941 -0.6041
              Bcc     0.0015     0.206     0.074     0.069 -0.1869  0.5847  0.7894
 
              Baa    -0.0008    -0.410    -0.146    -0.137  0.3710  0.6770 -0.6356
     5 H(1)   Bbb    -0.0007    -0.399    -0.142    -0.133  0.9094 -0.1264  0.3962
              Bcc     0.0015     0.809     0.289     0.270 -0.1879  0.7251  0.6626
 
              Baa    -0.0008    -0.433    -0.154    -0.144  0.6732  0.7220 -0.1597
     6 H(1)   Bbb    -0.0008    -0.422    -0.151    -0.141  0.6445 -0.4670  0.6054
              Bcc     0.0016     0.855     0.305     0.285 -0.3625  0.5105  0.7797
 
              Baa    -0.0005    -0.256    -0.091    -0.086  0.4677  0.7677 -0.4381
     7 H(1)   Bbb    -0.0005    -0.255    -0.091    -0.085  0.8708 -0.3152  0.3773
              Bcc     0.0010     0.511     0.182     0.170 -0.1516  0.5579  0.8159
 
              Baa    -0.0009    -0.125    -0.045    -0.042  0.4682  0.6432 -0.6059
     8 C(13)  Bbb    -0.0009    -0.123    -0.044    -0.041  0.8480 -0.5198  0.1034
              Bcc     0.0018     0.248     0.089     0.083  0.2485  0.5622  0.7888
 
              Baa    -0.0005    -0.293    -0.105    -0.098  0.7466  0.4430 -0.4963
     9 H(1)   Bbb    -0.0005    -0.289    -0.103    -0.096 -0.6234  0.7262 -0.2896
              Bcc     0.0011     0.582     0.208     0.194  0.2321  0.5256  0.8184
 
              Baa    -0.0011    -0.589    -0.210    -0.196  0.7527  0.3212 -0.5747
    10 H(1)   Bbb    -0.0011    -0.581    -0.207    -0.194 -0.5167  0.8292 -0.2133
              Bcc     0.0022     1.170     0.417     0.390  0.4080  0.4575  0.7901
 
              Baa    -0.0009    -0.480    -0.171    -0.160 -0.6191 -0.3993  0.6762
    11 H(1)   Bbb    -0.0009    -0.467    -0.166    -0.156  0.7401 -0.5845  0.3325
              Bcc     0.0018     0.946     0.338     0.316  0.2625  0.7064  0.6574
 
              Baa    -0.0036     0.260     0.093     0.087  0.4586  0.7162 -0.5260
    12 O(17)  Bbb    -0.0027     0.195     0.069     0.065  0.7522  0.0022  0.6589
              Bcc     0.0063    -0.455    -0.162    -0.152 -0.4731  0.6979  0.5377
 
              Baa    -0.0064    -3.395    -1.211    -1.132  0.8056 -0.5849  0.0944
    13 H(1)   Bbb    -0.0061    -3.276    -1.169    -1.093  0.5637  0.7075 -0.4262
              Bcc     0.0125     6.671     2.380     2.225  0.1825  0.3966  0.8997
 
              Baa    -1.5872   114.851    40.982    38.310  0.7655 -0.6326 -0.1171
    14 O(17)  Bbb    -1.5599   112.875    40.276    37.651  0.3510  0.2580  0.9001
              Bcc     3.1472  -227.726   -81.258   -75.961  0.5392  0.7302 -0.4195
 
              Baa    -0.8323    60.226    21.490    20.089  0.7346 -0.1644  0.6583
    15 O(17)  Bbb    -0.7756    56.125    20.027    18.721 -0.4118  0.6630  0.6252
              Bcc     1.6080  -116.351   -41.517   -38.810  0.5392  0.7303 -0.4194
 
              Baa    -0.0408   -21.785    -7.773    -7.267  0.7614 -0.2089  0.6137
    16 H(1)   Bbb    -0.0274   -14.634    -5.222    -4.881  0.5387  0.7304 -0.4198
              Bcc     0.0683    36.418    12.995    12.148 -0.3606  0.6503  0.6687
 

 ---------------------------------------------------------------------------------

 Use density number 0.
 Entering OneElI...
 Calculate overlap and kinetic energy integrals
    NBasis = 187  MinDer = 2  MaxDer = 2
 Requested accuracy = 0.1000D-12
 PrsmSu:  NPrtUS=   1 ThrOK=F
 PRISM was handed   130767655 working-precision words and  2473 shell-pairs
 Entering OneElI...
 Calculate potential energy integrals
    NBasis = 187  MinDer = 2  MaxDer = 2
 Requested accuracy = 0.1000D-12
 PrsmSu:  NPrtUS=   8 ThrOK=T
 PRISM was handed    16306533 working-precision words and  2206 shell-pairs
 PRISM was handed    16306533 working-precision words and  2206 shell-pairs
 PRISM was handed    16306533 working-precision words and  2206 shell-pairs
 PRISM was handed    16306533 working-precision words and  2206 shell-pairs
 PRISM was handed    16306533 working-precision words and  2206 shell-pairs
 PRISM was handed    16306533 working-precision words and  2206 shell-pairs
 PRISM was handed    16306533 working-precision words and  2206 shell-pairs
 PRISM was handed    16306533 working-precision words and  2206 shell-pairs
 Polarizability after L701:
                1             2             3
      1  0.607989D+02
      2 -0.503341D+01  0.524624D+02
      3  0.594934D+01  0.760815D+01  0.609879D+02
 Dipole Derivatives after L701:
               1            2            3            4            5
      1 0.616777D+00-0.178078D+00 0.387579D+00 0.553002D-01-0.546102D-01
      2-0.997615D-01 0.386070D+00 0.344947D+00-0.417137D-01 0.864304D-01
      3 0.423933D+00 0.180853D+00 0.107242D+01-0.113819D+00-0.127904D+00
               6            7            8            9           10
      1-0.121569D+00 0.380521D-01-0.719220D-02 0.311175D-02-0.901891D-02
      2-0.163009D+00 0.170782D-01-0.106611D+00 0.580639D-01 0.210694D-01
      3-0.251726D+00 0.256420D-01 0.355536D-01-0.594521D-02-0.136568D-01
              11           12           13           14           15
      1 0.614133D-02 0.847919D-02 0.492938D-01 0.139266D-01 0.539002D-02
      2 0.513177D-01-0.233459D-01-0.120906D-01-0.479329D-01 0.114501D+00
      3-0.124666D-01 0.886865D-01 0.377018D-01 0.679304D-01-0.930482D-02
              16           17           18           19           20
      1-0.104898D+00-0.713008D-01-0.230789D-01 0.587638D-01 0.183125D-01
      2-0.438688D-01 0.169824D-01-0.321238D-02 0.340442D-02 0.275484D-01
      3 0.550431D-02-0.382911D-02 0.860267D-01-0.355825D-01-0.732381D-01
              21           22           23           24           25
      1-0.451382D-02 0.770281D-01 0.218079D-01-0.158957D-01 0.380821D-01
      2-0.880668D-01 0.373128D-01 0.926186D-01-0.421191D-01-0.307155D-01
      3-0.120731D+00 0.838555D-01-0.357648D-01 0.431489D-01-0.231241D-01
              26           27           28           29           30
      1-0.385658D-01-0.412674D-01-0.680039D-01 0.108657D+00 0.500371D-01
      2 0.407416D-01-0.683757D-01 0.668763D-01-0.301594D-01-0.308760D-01
      3-0.686675D-01-0.103999D+00 0.362583D-01-0.248200D-01 0.759337D-01
              31           32           33           34           35
      1 0.364758D-01-0.473848D-01 0.159687D-01-0.667732D+00 0.121379D+00
      2-0.105791D-02-0.567589D-01 0.109259D+00-0.250033D-01-0.437958D+00
      3-0.277460D-01 0.762662D-01-0.600406D-02-0.448689D+00-0.123313D+00
              36           37           38           39           40
      1-0.318959D+00-0.482116D-01 0.102722D+00 0.445375D-01 0.863944D-01
      2-0.317583D+00 0.942830D-01-0.162876D-01-0.318917D-01-0.129407D+00
      3-0.108464D+01 0.240106D-01-0.106018D-01 0.528747D-01 0.110568D+00
              41           42           43           44           45
      1-0.172883D+00 0.322864D-01-0.420923D+00 0.136954D+00 0.150620D-01
      2-0.128963D+00-0.835538D-01 0.125688D+00-0.387192D+00-0.852718D-01
      3-0.138450D+00-0.268730D+00-0.115851D-01-0.528388D-01-0.355025D+00
              46           47           48
      1 0.262620D+00 0.401148D-01-0.371675D-01
      2 0.179065D-01 0.510153D+00 0.310536D+00
      3-0.732707D-01 0.311291D+00 0.787014D+00
 Hessian after L701:
                1             2             3             4             5
      1  0.156977D+02
      2  0.477517D+01  0.248875D+02
      3 -0.933273D+01 -0.270885D+01  0.138422D+02
      4 -0.610721D+01  0.388404D+00  0.813324D+00  0.144885D+02
      5  0.346113D+00 -0.501204D+01  0.250787D+01 -0.272652D+00  0.154493D+02
      6  0.766870D+00  0.254832D+01 -0.974025D+00 -0.314239D+00 -0.233761D+01
      7  0.760304D-01  0.754561D-02  0.214783D-01 -0.438687D+01  0.108108D+00
      8  0.360923D-02  0.945039D-01  0.171986D-01  0.129207D+00 -0.271409D+01
      9  0.310302D-01  0.641503D-01 -0.155910D-01 -0.107825D+00 -0.142717D+01
     10 -0.144012D-01  0.125481D-01 -0.664316D-01 -0.264879D+01 -0.240735D+01
     11 -0.412236D-01  0.553597D-01  0.711921D-01 -0.246388D+01 -0.352182D+01
     12 -0.146266D+00  0.114292D+00  0.863952D-01 -0.806977D+00  0.678670D+00
     13 -0.130128D-01  0.242915D-01  0.629727D-02  0.602890D-01  0.392640D-01
     14 -0.451530D-02 -0.115242D-01 -0.140808D-01 -0.446187D-02  0.871773D-01
     15  0.109392D-01 -0.260939D-01 -0.550364D-02  0.566394D-02 -0.260306D-01
     16  0.132753D-01 -0.898312D-02  0.129662D-02  0.727497D-01 -0.132364D-02
     17  0.199429D-01 -0.123256D-01 -0.859165D-02  0.656019D-01  0.560469D-01
     18 -0.695085D-03  0.291371D-02 -0.151853D-01  0.983937D-02  0.960743D-02
     19 -0.373652D-01 -0.321153D-01 -0.485119D-01  0.587266D-01  0.234727D-01
     20 -0.358749D-01  0.340609D-01  0.103518D+00 -0.113801D-01  0.131437D-01
     21 -0.599793D-01  0.114427D+00  0.958250D-01 -0.656082D-02 -0.212501D-01
     22 -0.374046D-01  0.378958D-01  0.778973D-01 -0.125178D+01  0.177776D+01
     23  0.887524D-01  0.218885D-01  0.127510D+00  0.180320D+01 -0.480078D+01
     24  0.112981D+00  0.121185D+00  0.154856D+00  0.449970D+00  0.139012D+00
     25  0.493785D-02  0.540346D-01  0.794794D-01  0.305758D-01 -0.322531D-01
     26  0.487245D-01  0.687405D-02  0.713499D-01  0.365696D-02  0.732651D-02
     27  0.780102D-01  0.784692D-01  0.706063D-01  0.575813D-01  0.160062D-01
     28  0.179046D-01  0.762813D-02  0.201558D-01 -0.256423D-01  0.135682D-01
     29 -0.139410D-01 -0.270783D-01 -0.371401D-02 -0.425236D-01  0.978281D-01
     30  0.111820D-01  0.277824D-02 -0.176865D-01 -0.281244D-01  0.125738D-01
     31 -0.178986D-01 -0.204021D-02  0.314454D-02  0.168095D-01 -0.938356D-01
     32  0.131255D-01  0.881540D-02  0.584527D-02 -0.435387D-01  0.603491D-01
     33 -0.654899D-02 -0.110217D-01 -0.697661D-02 -0.759846D-02 -0.218729D-01
     34 -0.637047D+01 -0.358035D+01  0.920737D+01 -0.410055D+00  0.211541D+00
     35 -0.356829D+01 -0.167929D+02 -0.132322D+01  0.150419D+00  0.366262D+00
     36  0.914592D+01 -0.131477D+01 -0.923649D+01 -0.408040D+00  0.667153D+00
     37 -0.280423D+01 -0.170283D+01 -0.795045D+00  0.240507D+00  0.285371D+00
     38 -0.167824D+01 -0.314869D+01  0.599579D+00  0.290478D+00 -0.563366D-01
     39 -0.671653D+00  0.496578D+00 -0.455762D+01  0.303994D+00 -0.430862D+00
     40 -0.218252D+00 -0.470465D-01 -0.942119D-01 -0.706106D-01 -0.137098D-01
     41 -0.470803D-01 -0.110151D-01  0.280845D+00 -0.971910D-02  0.223275D-02
     42 -0.935624D-01  0.279193D+00  0.155952D+00 -0.967533D-02  0.126346D+00
     43 -0.204563D+00  0.644280D-01  0.914617D-01 -0.563674D-01  0.679715D-02
     44  0.107188D+00 -0.935746D-01  0.298855D+00  0.103612D-01 -0.211207D-01
     45  0.164869D+00  0.244678D+00  0.444512D+00  0.306089D-01  0.916407D-01
     46  0.149665D-01  0.141771D-02  0.150303D-01 -0.108834D-01  0.913095D-02
     47 -0.134649D-01  0.871420D-04 -0.252954D-01  0.682481D-02 -0.134689D-01
     48 -0.103601D-01 -0.624011D-02 -0.212989D-01  0.180567D-01  0.159204D-01
                6             7             8             9            10
      6  0.138099D+02
      7 -0.834950D-01  0.446496D+01
      8 -0.132718D+01 -0.996689D-01  0.241872D+01
      9 -0.331293D+01  0.234572D-01  0.163906D+01  0.285324D+01
     10 -0.724746D+00  0.223160D-03  0.579934D-01  0.785465D-02  0.127905D+02
     11  0.638688D+00  0.761770D-01  0.459472D-01 -0.631936D-01  0.141357D+01
     12 -0.534351D+01  0.407699D-02 -0.602188D-01  0.109137D+00  0.474552D+00
     13 -0.449013D-01 -0.157910D-01 -0.490232D-01  0.260106D-01 -0.420565D+01
     14  0.441118D-01 -0.457339D-01  0.104567D+00 -0.694613D-01  0.418520D-01
     15  0.869744D-01  0.202273D-01 -0.585215D-01 -0.317289D-02 -0.244659D-01
     16 -0.481457D-01 -0.218329D-01  0.137034D-01 -0.137198D-02 -0.187556D+01
     17  0.951567D-02  0.252931D-01 -0.667701D-02  0.984176D-02  0.965902D+00
     18  0.489759D-01 -0.593703D-02  0.216982D-02  0.118257D-01  0.124341D+00
     19  0.524807D-01  0.509358D-02  0.255331D-01  0.594947D-02 -0.397352D+01
     20 -0.395813D-01  0.235777D-01 -0.318669D-01 -0.167999D-01  0.915244D-01
     21  0.442198D-01  0.780512D-02 -0.743682D-02  0.689441D-02  0.197464D+00
     22  0.389881D+00 -0.297678D-01 -0.627419D-01  0.221388D-01  0.253911D+00
     23  0.127300D+00 -0.785570D-01  0.943558D-01 -0.282959D-01 -0.811377D-01
     24 -0.550859D+01  0.218606D-01 -0.274307D-01  0.120343D+00 -0.592703D-01
     25 -0.661952D-02 -0.168064D-01 -0.459863D-01 -0.917637D-02  0.113714D-01
     26  0.104814D-01 -0.434836D-01 -0.245106D-01 -0.122621D-01 -0.109947D-02
     27  0.106436D+00 -0.111001D-01 -0.485659D-02  0.157232D-01  0.336111D-01
     28  0.152201D-01 -0.222979D-01 -0.294916D-02  0.544704D-02  0.160924D+00
     29  0.926794D-02 -0.138631D-01  0.679997D-03  0.988071D-02 -0.768521D-01
     30  0.657233D-01  0.970027D-02  0.138914D-03  0.807840D-02 -0.265626D-01
     31  0.460805D-01  0.397586D-02  0.674643D-01 -0.437644D-01 -0.528004D-02
     32  0.101047D-01  0.610717D-01  0.776757D-01 -0.687803D-01  0.793733D-02
     33  0.112255D+00 -0.350926D-01 -0.614674D-01  0.602334D-02 -0.282108D-01
     34 -0.410232D+00 -0.357998D-01 -0.410822D-01  0.569451D-01 -0.418459D+00
     35  0.587304D+00 -0.173780D-01 -0.249112D-01 -0.677994D-01  0.734919D-01
     36  0.660789D+00  0.312930D-01 -0.924878D-01  0.130846D+00  0.165559D+00
     37  0.336117D+00 -0.589063D-02  0.479717D-02 -0.182897D-01  0.175232D-01
     38 -0.481342D+00 -0.287521D-02 -0.134530D-01  0.108355D-01 -0.943105D-01
     39 -0.155308D-01 -0.446216D-02 -0.218369D-02  0.170265D-01 -0.744852D-01
     40 -0.155675D-01 -0.808276D-02  0.111678D-04 -0.185110D-02 -0.380131D-01
     41  0.109245D+00 -0.752454D-03 -0.105931D-01  0.121865D-01 -0.103849D-01
     42  0.912825D-01 -0.224189D-02 -0.682624D-02  0.270901D-01 -0.109514D-01
     43  0.213709D-01 -0.665251D-02  0.309220D-04  0.322309D-02 -0.494321D-01
     44  0.733723D-01  0.843466D-03 -0.117911D-01  0.107688D-01  0.821969D-02
     45  0.877384D-01  0.291648D-02 -0.119861D-01  0.297723D-01  0.132640D-01
     46  0.199256D-01 -0.491597D-03 -0.898140D-03  0.221787D-03 -0.531283D-02
     47  0.179967D-01 -0.304846D-03  0.144807D-02 -0.295575D-02 -0.190364D-02
     48  0.402538D-01 -0.486339D-03  0.202677D-02 -0.431002D-02 -0.152249D-02
               11            12            13            14            15
     11  0.134478D+02
     12 -0.949481D+00  0.135993D+02
     13 -0.553220D-01  0.572957D-01  0.409089D+01
     14 -0.247747D+01 -0.152338D+01  0.110026D+00  0.212378D+01
     15 -0.129419D+01 -0.309582D+01 -0.597368D-01  0.129119D+01  0.310226D+01
     16  0.113636D+01  0.306137D+00  0.371236D-01 -0.479782D-01  0.122525D-01
     17 -0.367666D+01  0.106440D+00 -0.623010D-01 -0.135585D-02  0.112321D-01
     18  0.399293D-01 -0.415422D+01  0.467464D-01  0.483037D-01  0.556458D-01
     19  0.406843D-01  0.840490D-01  0.780670D-01 -0.739061D-03  0.182396D-02
     20 -0.356780D+01  0.962076D+00  0.577996D-02  0.823827D-01  0.617517D-01
     21  0.920783D+00 -0.171366D+01 -0.202627D-01  0.396173D-01 -0.862868D-01
     22  0.265227D-01  0.100624D-01 -0.121224D-01 -0.244115D-02  0.270286D-01
     23 -0.472889D-01  0.609003D-02  0.305507D-02 -0.322187D-02 -0.192394D-01
     24  0.541956D-02 -0.322586D-01  0.606661D-02 -0.584572D-02 -0.532514D-02
     25 -0.131956D-02  0.112457D-01 -0.206902D-02 -0.337768D-02  0.375002D-02
     26 -0.159726D-01  0.290010D-02  0.116626D-02 -0.259509D-02  0.160675D-02
     27  0.697919D-02 -0.147278D-02  0.324284D-02 -0.924876D-02  0.842722D-02
     28 -0.751539D-01 -0.304830D-01  0.444511D-02 -0.107475D-01  0.587436D-02
     29 -0.241983D-01  0.881772D-02 -0.460460D-02  0.603829D-02 -0.470698D-02
     30  0.771886D-02 -0.453593D-01 -0.849950D-04  0.844183D-03 -0.275640D-02
     31 -0.891644D-03 -0.468278D-02  0.570101D-01 -0.227910D-01  0.143398D-02
     32 -0.731919D-02 -0.382304D-02  0.553735D-03 -0.272105D-01  0.453615D-02
     33 -0.103440D-01 -0.763434D-02 -0.117493D-01  0.795285D-02 -0.265795D-01
     34  0.737851D-01  0.169107D+00 -0.677082D-01  0.138166D-01 -0.538015D-02
     35 -0.263122D+00  0.419376D+00 -0.264699D-02  0.761241D-01  0.558052D-01
     36  0.426293D+00  0.495875D+00 -0.355216D-02  0.145035D+00 -0.139310D-01
     37 -0.103730D+00 -0.920773D-01  0.511608D-03 -0.143359D-01  0.110800D-02
     38  0.748896D-01  0.109623D+00 -0.693736D-02  0.158762D-01  0.362258D-03
     39  0.957953D-01  0.222840D-01 -0.255336D-02  0.715299D-02 -0.361432D-02
     40 -0.177144D-01 -0.231845D-01 -0.466171D-02 -0.542179D-02 -0.563713D-03
     41 -0.429290D-02  0.554808D-01 -0.286192D-02  0.128463D-01  0.307674D-03
     42  0.477221D-01  0.237662D-01 -0.240903D-02  0.157253D-01 -0.548580D-02
     43 -0.738745D-02 -0.137381D-01 -0.658245D-02 -0.366841D-02  0.226837D-03
     44 -0.126489D-01  0.730280D-01 -0.386698D-03  0.167504D-01  0.116188D-02
     45  0.547943D-01  0.621909D-01 -0.424355D-03  0.249842D-01 -0.519997D-02
     46 -0.478737D-03  0.883532D-03 -0.738011D-03  0.516801D-03 -0.182082D-03
     47 -0.541976D-02  0.111713D-03 -0.529745D-04 -0.216238D-02  0.826815D-03
     48  0.189602D-02 -0.502832D-02  0.145076D-04 -0.290165D-02  0.367269D-03
               16            17            18            19            20
     16  0.157797D+01
     17 -0.981860D+00  0.373290D+01
     18 -0.288683D-01 -0.134167D+00  0.399125D+01
     19  0.199497D-01 -0.422915D-01 -0.756807D-01  0.383566D+01
     20 -0.441763D-01  0.315872D-01 -0.537420D-01 -0.834035D-02  0.346777D+01
     21 -0.535781D-01 -0.333617D-01  0.198049D-01 -0.911873D-02 -0.108711D+01
     22  0.191766D+00  0.170481D-01 -0.964704D-02 -0.163876D-02 -0.288461D-02
     23  0.121103D-01 -0.497976D-01 -0.208879D-02 -0.840006D-03 -0.151046D-01
     24 -0.428519D-02 -0.257618D-02 -0.486148D-01 -0.152814D-01  0.870194D-02
     25  0.858617D-02  0.281829D-02  0.211060D-02  0.373353D-01 -0.128947D-01
     26  0.484080D-02 -0.442045D-03  0.813214D-03 -0.364126D-02 -0.151713D-01
     27  0.122479D-01  0.422294D-02  0.184088D-03  0.651678D-02 -0.480758D-02
     28  0.122430D-02  0.527251D-02  0.160685D-02  0.459157D-02 -0.681845D-02
     29 -0.582681D-02 -0.136060D-02 -0.247035D-03 -0.381080D-02  0.213656D-02
     30 -0.192589D-02 -0.679623D-03  0.369740D-04 -0.288112D-02  0.276966D-02
     31  0.611934D-02  0.318377D-02 -0.800267D-03 -0.156617D-02 -0.109893D-02
     32  0.982678D-02  0.233787D-02 -0.564952D-03  0.234489D-02 -0.370341D-02
     33 -0.799708D-02 -0.344622D-02 -0.134557D-02 -0.279813D-02  0.284818D-02
     34 -0.508636D-01 -0.125805D-01 -0.439380D-01 -0.174725D-01  0.832214D-02
     35 -0.471156D-01 -0.610694D-01  0.654705D-01 -0.291690D-03 -0.284203D-02
     36 -0.136035D+00  0.357847D-01  0.795769D-01  0.239405D-02  0.419129D-01
     37  0.167349D-01 -0.497756D-02 -0.894675D-02 -0.270666D-03 -0.319589D-02
     38 -0.159663D-01 -0.113723D-02  0.640355D-02  0.836958D-03  0.138304D-02
     39 -0.114378D-01  0.373533D-02  0.834353D-03  0.181151D-02 -0.625639D-04
     40  0.308445D-02 -0.103235D-02 -0.497019D-02 -0.328056D-02 -0.174031D-02
     41 -0.115414D-01 -0.458761D-02  0.626168D-02 -0.914046D-03  0.228964D-02
     42 -0.170872D-01  0.119999D-02  0.286974D-02 -0.106858D-02  0.853806D-02
     43  0.519259D-03  0.180514D-03 -0.494290D-02 -0.380887D-02 -0.107110D-02
     44 -0.142136D-01 -0.727755D-02  0.937278D-02  0.222172D-03  0.286984D-02
     45 -0.238785D-01 -0.775047D-04  0.950489D-02  0.447199D-03  0.105910D-01
     46 -0.840322D-03 -0.200373D-03 -0.217924D-03 -0.500499D-03  0.271427D-03
     47  0.214428D-02 -0.178679D-03 -0.436222D-03 -0.110073D-03 -0.112979D-02
     48  0.267695D-02  0.926774D-03 -0.114447D-02 -0.132242D-03 -0.604911D-03
               21            22            23            24            25
     21  0.153871D+01
     22 -0.326386D-01  0.113961D+02
     23  0.166711D-01 -0.108891D+01  0.139058D+02
     24  0.109054D-01 -0.624071D+00 -0.373006D+00  0.138996D+02
     25 -0.165770D-01 -0.387093D+01  0.190051D+00  0.503765D+00  0.367524D+01
     26 -0.158897D-02  0.142256D+00 -0.361879D+01  0.845544D+00 -0.193698D+00
     27 -0.254652D-01  0.374522D+00  0.830433D+00 -0.172315D+01 -0.628656D+00
     28 -0.111423D-01 -0.256153D+01 -0.136139D+01 -0.483895D+00  0.527444D-01
     29  0.765880D-02 -0.120158D+01 -0.293652D+01  0.375146D+00  0.227171D-01
     30  0.236418D-02 -0.370467D+00  0.322106D+00 -0.391611D+01  0.462425D-01
     31 -0.476073D-02 -0.408766D+01  0.332127D+00 -0.285057D+00  0.711535D-01
     32 -0.842232D-02  0.192512D+00 -0.241470D+01 -0.140088D+01  0.746819D-02
     33  0.936810D-02 -0.154667D+00 -0.127578D+01 -0.306363D+01 -0.101576D-01
     34  0.196573D-01  0.137725D+00  0.141460D+00  0.312274D+00  0.450538D-02
     35  0.316214D-01  0.128940D+00 -0.144942D+00  0.118106D+00  0.607444D-02
     36  0.675039D-01  0.252970D+00  0.106553D+00  0.357593D-01  0.162015D-01
     37 -0.598355D-02 -0.396145D-01 -0.469749D-02 -0.869031D-02 -0.149254D-02
     38  0.580210D-02  0.118592D-01  0.378194D-01  0.663527D-01  0.569653D-03
     39  0.200940D-02  0.348449D-02  0.477273D-01 -0.679921D-02 -0.938994D-03
     40 -0.278407D-02 -0.528485D-01  0.221312D-01  0.289016D-01 -0.328812D-02
     41  0.104966D-01  0.667979D-02 -0.315941D-02  0.754637D-01  0.250868D-02
     42  0.119233D-01  0.615368D-02  0.706434D-01  0.422548D-01  0.366945D-02
     43 -0.215625D-02 -0.314391D-01  0.206287D-01  0.387677D-01 -0.194143D-02
     44  0.135910D-01  0.163762D-01 -0.202747D-01  0.559335D-01  0.317921D-02
     45  0.180879D-01  0.258729D-01  0.435054D-01  0.475534D-01  0.542400D-02
     46  0.615347D-03 -0.275577D-02  0.201709D-02  0.596324D-02  0.839191D-04
     47 -0.149854D-02  0.716131D-03 -0.527730D-02 -0.112854D-02  0.107707D-03
     48 -0.220148D-02  0.147932D-02 -0.132718D-03 -0.678754D-02  0.237116D-03
               26            27            28            29            30
     26  0.357969D+01
     27 -0.950139D+00  0.153918D+01
     28  0.191911D-01  0.248778D-01  0.223802D+01
     29  0.152943D-01 -0.349416D-01  0.128910D+01  0.297293D+01
     30 -0.646528D-01  0.726877D-02  0.340587D+00 -0.380414D+00  0.382501D+01
     31  0.466592D-02  0.419689D-02  0.603317D-01  0.606788D-01 -0.335908D-01
     32  0.713326D-01  0.276158D-01  0.602671D-01 -0.593648D-01  0.579279D-01
     33  0.620799D-01 -0.647174D-01 -0.154340D-01  0.173236D-01  0.710072D-01
     34  0.152658D-01  0.400913D-01  0.619886D-01 -0.241236D-01  0.211739D-01
     35 -0.689090D-02  0.119104D-01  0.827705D-04 -0.190367D-01  0.521266D-03
     36  0.162047D-01  0.359603D-01  0.489396D-01 -0.156574D-01 -0.805794D-02
     37 -0.348901D-02 -0.692842D-02 -0.324317D-03  0.186407D-01  0.222098D-01
     38  0.141649D-02  0.583264D-02  0.403891D-01 -0.815118D-02  0.264950D-01
     39  0.837277D-04  0.172281D-02  0.377178D-01  0.178984D-01  0.488656D-02
     40  0.262423D-02  0.509552D-02  0.152869D-02 -0.139876D-02  0.568274D-02
     41  0.193709D-02  0.120948D-01  0.124063D-01 -0.994131D-02  0.758923D-02
     42  0.956183D-02  0.147333D-01  0.206784D-01 -0.199700D-02  0.296374D-02
     43  0.239422D-02  0.510831D-02  0.477084D-02 -0.181841D-02  0.625829D-02
     44  0.143906D-02  0.121899D-01  0.112415D-01 -0.981925D-02  0.432183D-02
     45  0.854287D-02  0.171274D-01  0.222627D-01 -0.594051D-02  0.316493D-02
     46  0.624967D-03  0.158295D-02  0.131971D-02 -0.790818D-03  0.600071D-03
     47 -0.938794D-03 -0.176031D-02 -0.209130D-02  0.566618D-03 -0.381388D-04
     48 -0.525178D-03 -0.256572D-02 -0.241324D-02  0.162593D-02 -0.535764D-03
               31            32            33            34            35
     31  0.388139D+01
     32 -0.396743D+00  0.223883D+01
     33  0.268746D+00  0.128579D+01  0.301150D+01
     34  0.287007D-01  0.722423D-01  0.739816D-02  0.808877D+01
     35  0.343842D-01  0.106406D-01  0.813935D-02  0.368480D+01  0.167712D+02
     36  0.369378D-01  0.463710D-01 -0.231058D-01 -0.847930D+01 -0.131446D+01
     37 -0.455600D-02 -0.431201D-02  0.282495D-02  0.173967D-01 -0.465332D-01
     38  0.430990D-02  0.172174D-01 -0.213286D-02 -0.781956D-01  0.340150D+00
     39  0.151443D-02  0.737610D-02 -0.460845D-02 -0.397304D+00  0.194431D+00
     40 -0.554709D-02  0.740691D-02  0.544999D-04 -0.996245D-01 -0.329001D+00
     41  0.436813D-02  0.151053D-01  0.130355D-02 -0.378989D+00  0.145929D+00
     42  0.384083D-02  0.192155D-01 -0.601817D-02 -0.340568D+00  0.435722D+00
     43 -0.292598D-02  0.823593D-02  0.148363D-02 -0.328412D+00 -0.838325D-01
     44  0.647529D-02  0.121121D-01 -0.260573D-03 -0.102149D+00 -0.653478D-01
     45  0.728254D-02  0.203583D-01 -0.614079D-02 -0.154852D+00  0.384349D+00
     46 -0.544068D-04  0.160124D-02 -0.253007D-03 -0.540225D+00  0.168907D-01
     47 -0.257332D-03 -0.211476D-02  0.882201D-03 -0.376858D-02 -0.329291D+00
     48 -0.521677D-03 -0.267556D-02  0.601013D-03 -0.244283D-02  0.392728D+00
               36            37            38            39            40
     36  0.748966D+01
     37 -0.329831D+00  0.269539D+01
     38  0.151186D+00  0.152898D+01  0.284392D+01
     39  0.472489D-01  0.796571D+00 -0.570103D+00  0.439377D+01
     40 -0.254125D+00 -0.126504D+00  0.280320D-02  0.159099D-01 -0.921737D+00
     41  0.372663D+00  0.370262D-01 -0.879279D-01  0.124313D+00  0.523348D+01
     42 -0.260682D-01  0.741452D-01  0.834237D-01  0.931100D-01 -0.297035D+01
     43 -0.122690D+00  0.132909D-01 -0.293599D-02  0.516310D-01  0.179816D+01
     44  0.360143D+00  0.167973D-01 -0.409848D-01  0.585270D-02 -0.506718D+01
     45  0.126050D+00  0.866982D-01 -0.177942D-01  0.425656D-01  0.356848D+01
     46  0.333577D-01 -0.184702D-01 -0.761178D-03 -0.498004D-01 -0.250327D+00
     47  0.368082D+00 -0.350440D-02  0.240067D-01  0.226681D-02  0.215790D+00
     48  0.138388D+00 -0.538826D-01  0.547667D-02 -0.372851D-01 -0.256520D+00
               41            42            43            44            45
     41  0.453564D+01
     42 -0.941371D-01  0.460672D+01
     43 -0.511524D+01  0.348640D+01  0.440137D+01
     44 -0.478770D+01 -0.120245D+01  0.607431D+01  0.912828D+01
     45 -0.126334D+01 -0.545159D+01 -0.262002D+01 -0.183142D+01  0.820610D+01
     46  0.281015D+00 -0.146970D+00 -0.552599D+01 -0.107129D+01 -0.112895D+01
     47  0.203237D+00  0.208122D+00 -0.961057D+00 -0.409091D+01  0.224711D+01
     48  0.289225D+00  0.416496D+00 -0.942376D+00  0.211554D+01 -0.363144D+01
               46            47            48
     46  0.634021D+01
     47  0.760932D+00  0.422155D+01
     48  0.124819D+01 -0.281229D+01  0.311649D+01
 ReadGW:  IGet=0 IStart=         114 Next=        7248 LGW=        7134.
 ICntrl=12127.
 Symmetry not used in FoFDir.
 MinBra= 0 MaxBra= 2 Meth= 1.
 IRaf=       0 NMat=   1 IRICut=       1 DoRegI=T DoRafI=F ISym2E= 0 JSym2E=0.
 PrsmSu:  NPrtUS=   8 ThrOK=T
 PRISM was handed    16292470 working-precision words and  2300 shell-pairs
 PRISM was handed    16292470 working-precision words and  2300 shell-pairs
 PRISM was handed    16292470 working-precision words and  2300 shell-pairs
 PRISM was handed    16292470 working-precision words and  2300 shell-pairs
 PRISM was handed    16292470 working-precision words and  2300 shell-pairs
 PRISM was handed    16292470 working-precision words and  2300 shell-pairs
 PRISM was handed    16292470 working-precision words and  2300 shell-pairs
 PRISM was handed    16292470 working-precision words and  2300 shell-pairs
 Pruned (  75, 302) grid will be used in CalDFT.
 CkSvGd:  ISavGI=        -1 IRadAn=       4 IRASav=       4 ISavGd=        -1.
 CalDSu:  NPrtUS=   8 ThrOK=T
 IPart= 0 IRanGd=          0 ScrnBf=T ScrnGd=T RCrit=4.00D+00 DoMicB=T.
 IPart= 4 IRanGd=          0 ScrnBf=T ScrnGd=T RCrit=4.00D+00 DoMicB=T.
 IPart= 6 IRanGd=          0 ScrnBf=T ScrnGd=T RCrit=4.00D+00 DoMicB=T.
 IPart= 5 IRanGd=          0 ScrnBf=T ScrnGd=T RCrit=4.00D+00 DoMicB=T.
 IPart= 1 IRanGd=          0 ScrnBf=T ScrnGd=T RCrit=4.00D+00 DoMicB=T.
 IPart= 2 IRanGd=          0 ScrnBf=T ScrnGd=T RCrit=4.00D+00 DoMicB=T.
 CutRad = 1000.00    CtRdIn =    0.00    XCrit =  15.00   ICut = 0
 CutRad = 1000.00    CtRdIn =    0.00    XCrit =  15.00   ICut = 0
 CutRad = 1000.00    CtRdIn =    0.00    XCrit =  15.00   ICut = 0
 CutRad = 1000.00    CtRdIn =    0.00    XCrit =  15.00   ICut = 0
 IPart= 7 IRanGd=          0 ScrnBf=T ScrnGd=T RCrit=4.00D+00 DoMicB=T.
 CutRad = 1000.00    CtRdIn =    0.00    XCrit =  15.00   ICut = 0
 CutRad = 1000.00    CtRdIn =    0.00    XCrit =  15.00   ICut = 0
 IPart= 3 IRanGd=          0 ScrnBf=T ScrnGd=T RCrit=4.00D+00 DoMicB=T.
 CutRad = 1000.00    CtRdIn =    0.00    XCrit =  15.00   ICut = 0
 CutRad = 1000.00    CtRdIn =    0.00    XCrit =  15.00   ICut = 0
 IPart= 2        15261 of        17384 points in      35 batches and      113 microbatches, Max-NSigAt=      16 Max-NSgAt2=      16
 IPart= 1        14604 of        16740 points in      35 batches and      101 microbatches, Max-NSigAt=      16 Max-NSgAt2=      16
 IPart= 4        13543 of        15066 points in      30 batches and       82 microbatches, Max-NSigAt=      16 Max-NSgAt2=      16
 IPart= 0        15488 of        17278 points in      34 batches and      100 microbatches, Max-NSigAt=      16 Max-NSgAt2=      16
 IPart= 5        14129 of        16040 points in      34 batches and       96 microbatches, Max-NSigAt=      16 Max-NSgAt2=      16
 IPart= 6        13700 of        15908 points in      35 batches and      109 microbatches, Max-NSigAt=      16 Max-NSgAt2=      16
 IPart= 7        13303 of        15206 points in      32 batches and      106 microbatches, Max-NSigAt=      16 Max-NSgAt2=      16
 IPart= 3        12990 of        14460 points in      29 batches and       88 microbatches, Max-NSigAt=      16 Max-NSgAt2=      16
 Polarizability after L703:
                1             2             3
      1  0.607989D+02
      2 -0.503341D+01  0.524624D+02
      3  0.594934D+01  0.760815D+01  0.609879D+02
 Dipole Derivatives after L703:
               1            2            3            4            5
      1 0.616777D+00-0.178078D+00 0.387579D+00 0.553002D-01-0.546102D-01
      2-0.997615D-01 0.386070D+00 0.344947D+00-0.417137D-01 0.864304D-01
      3 0.423933D+00 0.180853D+00 0.107242D+01-0.113819D+00-0.127904D+00
               6            7            8            9           10
      1-0.121569D+00 0.380521D-01-0.719220D-02 0.311175D-02-0.901891D-02
      2-0.163009D+00 0.170782D-01-0.106611D+00 0.580639D-01 0.210694D-01
      3-0.251726D+00 0.256420D-01 0.355536D-01-0.594521D-02-0.136568D-01
              11           12           13           14           15
      1 0.614133D-02 0.847919D-02 0.492938D-01 0.139266D-01 0.539002D-02
      2 0.513177D-01-0.233459D-01-0.120906D-01-0.479329D-01 0.114501D+00
      3-0.124666D-01 0.886865D-01 0.377018D-01 0.679304D-01-0.930482D-02
              16           17           18           19           20
      1-0.104898D+00-0.713008D-01-0.230789D-01 0.587638D-01 0.183125D-01
      2-0.438688D-01 0.169824D-01-0.321238D-02 0.340442D-02 0.275484D-01
      3 0.550431D-02-0.382911D-02 0.860267D-01-0.355825D-01-0.732381D-01
              21           22           23           24           25
      1-0.451382D-02 0.770281D-01 0.218079D-01-0.158957D-01 0.380821D-01
      2-0.880668D-01 0.373128D-01 0.926186D-01-0.421191D-01-0.307155D-01
      3-0.120731D+00 0.838555D-01-0.357648D-01 0.431489D-01-0.231241D-01
              26           27           28           29           30
      1-0.385658D-01-0.412674D-01-0.680039D-01 0.108657D+00 0.500371D-01
      2 0.407416D-01-0.683757D-01 0.668763D-01-0.301594D-01-0.308760D-01
      3-0.686675D-01-0.103999D+00 0.362583D-01-0.248200D-01 0.759337D-01
              31           32           33           34           35
      1 0.364758D-01-0.473848D-01 0.159687D-01-0.667732D+00 0.121379D+00
      2-0.105791D-02-0.567589D-01 0.109259D+00-0.250033D-01-0.437958D+00
      3-0.277460D-01 0.762662D-01-0.600406D-02-0.448689D+00-0.123313D+00
              36           37           38           39           40
      1-0.318959D+00-0.482116D-01 0.102722D+00 0.445375D-01 0.863944D-01
      2-0.317583D+00 0.942830D-01-0.162876D-01-0.318917D-01-0.129407D+00
      3-0.108464D+01 0.240106D-01-0.106018D-01 0.528747D-01 0.110568D+00
              41           42           43           44           45
      1-0.172883D+00 0.322864D-01-0.420923D+00 0.136954D+00 0.150620D-01
      2-0.128963D+00-0.835538D-01 0.125688D+00-0.387192D+00-0.852718D-01
      3-0.138450D+00-0.268730D+00-0.115851D-01-0.528388D-01-0.355025D+00
              46           47           48
      1 0.262620D+00 0.401148D-01-0.371675D-01
      2 0.179065D-01 0.510153D+00 0.310536D+00
      3-0.732707D-01 0.311291D+00 0.787014D+00
 Hessian after L703:
                1             2             3             4             5
      1  0.714289D+00
      2 -0.210429D+00  0.395770D+00
      3  0.246183D+00  0.519196D-01  0.621192D+00
      4 -0.831739D-01  0.751853D-02  0.164618D-01  0.453388D+00
      5  0.879179D-02 -0.116771D+00 -0.470267D-01 -0.340925D-01  0.514308D+00
      6  0.151142D-01 -0.469999D-01 -0.151686D+00 -0.286060D-02 -0.271398D-01
      7 -0.173068D-02  0.274691D-02 -0.551326D-02 -0.384829D-01 -0.131067D-02
      8  0.191976D-02  0.107533D-01 -0.599835D-02 -0.222722D-02 -0.178423D+00
      9 -0.711681D-03  0.281273D-01 -0.231708D-01  0.861950D-02  0.122375D+00
     10  0.453249D-02  0.124121D-02  0.816281D-02 -0.135743D+00  0.494860D-01
     11  0.123319D-01 -0.140721D-01 -0.101939D-01  0.517363D-01 -0.125202D+00
     12  0.266869D-01 -0.259756D-01 -0.110946D-01  0.130997D-01 -0.120599D-01
     13  0.405723D-03 -0.575012D-03 -0.733398D-03 -0.665317D-03  0.200481D-01
     14  0.142454D-02 -0.857026D-04  0.305884D-02 -0.119724D-03 -0.185009D-01
     15 -0.653890D-04 -0.943971D-03  0.515263D-03 -0.923571D-03 -0.599575D-02
     16 -0.134457D-02 -0.580723D-03 -0.219177D-02 -0.205141D-01 -0.108311D-01
     17 -0.123291D-03  0.981008D-03 -0.126220D-03  0.207541D-01  0.111242D-01
     18  0.161205D-02  0.331620D-03  0.103296D-02  0.551122D-02  0.415098D-02
     19 -0.571429D-02  0.360484D-02 -0.107345D-02  0.110776D-02  0.900897D-02
     20  0.447114D-02 -0.244782D-02  0.474617D-03 -0.224369D-02 -0.929205D-02
     21 -0.115813D-03 -0.242604D-03  0.700777D-03 -0.102784D-02 -0.128796D-02
     22 -0.116508D-01 -0.729314D-02 -0.177709D-01 -0.146078D+00 -0.298643D-01
     23 -0.153140D-01 -0.793228D-02 -0.245082D-02 -0.367584D-01 -0.959585D-01
     24 -0.323619D-01 -0.142465D-01 -0.189083D-02 -0.909964D-02 -0.114770D-01
     25 -0.543622D-02 -0.563862D-03  0.439424D-02 -0.831734D-02 -0.136142D-01
     26 -0.315654D-02 -0.716060D-03  0.133336D-02 -0.267080D-02 -0.659309D-02
     27 -0.140511D-04  0.341709D-03  0.919027D-03  0.417837D-03 -0.168792D-03
     28 -0.624284D-03  0.277831D-02  0.164672D-02 -0.201533D-01  0.200488D-01
     29 -0.715049D-03  0.568085D-03 -0.103208D-02 -0.100026D-01  0.110989D-01
     30 -0.149653D-02  0.104407D-02  0.687226D-04 -0.160566D-02  0.262508D-02
     31  0.119914D-02 -0.212065D-03  0.284351D-02 -0.393505D-02 -0.240563D-01
     32  0.673383D-03 -0.391837D-03  0.283281D-02 -0.210227D-02 -0.113920D-01
     33  0.000000D+00 -0.117345D-02  0.579848D-03 -0.242375D-03 -0.327424D-02
     34 -0.452835D+00  0.107124D+00 -0.300859D+00 -0.317722D-02  0.248390D-02
     35  0.107974D+00 -0.108776D+00  0.587920D-01 -0.560375D-02  0.221058D-01
     36 -0.299355D+00  0.571361D-01 -0.341466D+00 -0.459829D-01  0.187450D-02
     37 -0.156432D+00  0.958015D-01  0.535060D-01  0.548855D-02  0.311410D-02
     38  0.962868D-01 -0.159123D+00 -0.486506D-01  0.138941D-01  0.335953D-02
     39  0.546330D-01 -0.501175D-01 -0.853253D-01  0.158111D-01 -0.213799D-01
     40  0.220635D-02 -0.503947D-03  0.156766D-02 -0.192586D-03  0.911581D-04
     41 -0.279237D-02  0.902502D-03 -0.247754D-02  0.673535D-03 -0.670690D-03
     42 -0.221251D-02  0.287828D-03 -0.167362D-02  0.101238D-02 -0.607542D-03
     43 -0.483989D-02  0.235292D-02 -0.191056D-02  0.529964D-03 -0.638380D-03
     44  0.793322D-02 -0.409225D-02  0.319468D-02 -0.167066D-02  0.365647D-03
     45  0.755087D-02 -0.388902D-02  0.282145D-02 -0.154574D-02  0.665002D-03
     46  0.114838D-02 -0.301051D-02 -0.471306D-02 -0.819211D-04  0.133463D-02
     47 -0.927641D-02  0.543242D-02 -0.364973D-02  0.291498D-02  0.441485D-03
     48 -0.154464D-01  0.440031D-02 -0.115231D-01  0.235485D-02 -0.127268D-02
                6             7             8             9            10
      6  0.490438D+00
      7  0.704530D-02  0.525183D-01
      8  0.113926D+00  0.530802D-02  0.199287D+00
      9 -0.154450D+00 -0.586564D-02 -0.130288D+00  0.166935D+00
     10  0.131585D-01 -0.876405D-03  0.105705D-02 -0.196584D-03  0.517578D+00
     11 -0.127477D-01  0.191936D-01 -0.171206D-01 -0.666258D-02  0.530559D-01
     12 -0.829920D-01 -0.159558D-01  0.136363D-01  0.566489D-02  0.170105D-01
     13 -0.167315D-01 -0.321534D-02  0.346479D-02  0.131837D-02 -0.469174D-01
     14  0.126586D-01  0.318957D-02 -0.188120D-02 -0.171839D-02 -0.518413D-02
     15  0.517677D-02  0.116443D-02 -0.149601D-02  0.404710D-03  0.486112D-02
     16 -0.116517D-02  0.473879D-03  0.121487D-03 -0.491878D-03 -0.257383D+00
     17  0.233924D-02 -0.493568D-03  0.925346D-03  0.524908D-03 -0.107376D+00
     18 -0.129610D-02 -0.347572D-03 -0.165323D-03  0.187842D-03 -0.201670D-01
     19  0.250536D-01  0.923075D-03 -0.591525D-03 -0.497752D-03 -0.498058D-01
     20 -0.207630D-01 -0.800549D-03  0.386253D-03  0.407228D-04 -0.100801D-01
     21 -0.502797D-02  0.211691D-03 -0.271902D-03  0.650663D-03 -0.246166D-01
     22  0.264994D-02 -0.703944D-02 -0.342969D-02  0.180587D-03 -0.288226D-01
     23 -0.360274D-02 -0.251610D-01 -0.121049D-01 -0.260869D-02  0.196938D-01
     24 -0.698794D-01  0.203787D-01  0.111916D-01  0.312243D-02  0.681412D-02
     25 -0.291961D-01  0.179306D-02  0.962297D-03  0.474744D-03  0.171707D-02
     26 -0.130139D-01  0.814271D-03  0.197147D-03 -0.410695D-03  0.806203D-03
     27 -0.741747D-03 -0.231372D-03 -0.262145D-03  0.881173D-03  0.292878D-03
     28  0.542693D-02  0.950014D-03 -0.835872D-04  0.452647D-03 -0.453737D-02
     29  0.416332D-02  0.542312D-03  0.795716D-03  0.245968D-03 -0.211106D-02
     30 -0.129268D-02  0.317390D-03 -0.145188D-03  0.818529D-04 -0.459913D-03
     31  0.174462D-01 -0.528108D-02 -0.313727D-02 -0.899452D-03  0.205155D-02
     32  0.616337D-02 -0.230228D-02 -0.212439D-03 -0.844136D-03  0.926534D-03
     33  0.245274D-02 -0.916441D-03 -0.634904D-03  0.979395D-03  0.137300D-03
     34 -0.304624D-01  0.106952D-03 -0.307067D-02 -0.150115D-02 -0.293718D-02
     35 -0.974753D-02 -0.148297D-02 -0.208006D-02 -0.556883D-02 -0.126545D-02
     36 -0.330000D-01 -0.335640D-03 -0.154020D-02 -0.351525D-02 -0.233585D-02
     37 -0.527278D-02 -0.106588D-03 -0.224479D-03 -0.771698D-03  0.103740D-02
     38 -0.540506D-02 -0.201765D-03 -0.565684D-03 -0.327423D-02 -0.245871D-03
     39  0.737635D-03  0.456794D-04  0.170809D-02  0.173438D-02 -0.275090D-02
     40  0.223468D-03  0.106816D-04  0.000000D+00 -0.168465D-04  0.144771D-04
     41  0.628817D-04  0.982853D-05  0.399324D-04  0.431302D-04 -0.136135D-03
     42  0.155035D-03  0.228628D-04 -0.109191D-04  0.412416D-04 -0.206202D-03
     43  0.440821D-04 -0.571726D-05  0.101515D-03  0.183145D-03 -0.416360D-05
     44 -0.518796D-03 -0.857970D-05 -0.132016D-03 -0.288644D-03 -0.150124D-03
     45 -0.139292D-02 -0.505843D-04 -0.209309D-03 -0.432430D-03 -0.237075D-03
     46 -0.473600D-03 -0.377740D-04 -0.170922D-03 -0.276312D-03  0.955494D-04
     47  0.625116D-03 -0.430611D-04  0.135737D-03  0.307620D-03  0.282080D-03
     48  0.279856D-02  0.302627D-04  0.560611D-03  0.884818D-03  0.532979D-03
               11            12            13            14            15
     11  0.525250D+00
     12 -0.893373D-02  0.568572D+00
     13 -0.630104D-02  0.516001D-02  0.497014D-01
     14 -0.200077D+00  0.128220D+00  0.255307D-02  0.218273D+00
     15  0.129831D+00 -0.155207D+00 -0.617528D-02 -0.141844D+00  0.165419D+00
     16 -0.105288D+00 -0.188182D-01  0.489014D-04 -0.276432D-03  0.269585D-03
     17 -0.101632D+00 -0.958996D-02 -0.220399D-01 -0.110830D-01 -0.317512D-02
     18 -0.106917D-01 -0.480991D-01  0.195050D-01  0.910665D-02  0.165694D-02
     19 -0.105946D-01 -0.260164D-01 -0.104597D-02  0.387435D-03  0.144565D-02
     20 -0.790277D-01 -0.850611D-01  0.288339D-02  0.104692D-01  0.234208D-01
     21 -0.859138D-01 -0.275237D+00 -0.239024D-02 -0.766428D-02 -0.182214D-01
     22 -0.834538D-02 -0.112759D-02  0.169846D-02 -0.111120D-02 -0.181014D-03
     23  0.109340D-01  0.266188D-02  0.779510D-03  0.738568D-03 -0.157075D-03
     24  0.315870D-02  0.104773D-02 -0.111759D-02 -0.752842D-04  0.193731D-03
     25 -0.316208D-03 -0.925631D-03 -0.146014D-03  0.618337D-04  0.243119D-04
     26  0.264795D-03  0.393694D-03 -0.382874D-04  0.364113D-04  0.123250D-03
     27  0.275699D-03  0.133923D-03  0.110776D-04 -0.671880D-04 -0.880614D-04
     28 -0.477775D-02 -0.105381D-02  0.254020D-03 -0.459644D-04 -0.132729D-03
     29 -0.100095D-02 -0.703859D-03 -0.281911D-03  0.191320D-03 -0.186099D-03
     30 -0.212931D-03  0.747932D-04  0.247445D-03 -0.298592D-03  0.824143D-04
     31 -0.791597D-03  0.706869D-03 -0.248444D-03  0.674123D-03 -0.375292D-03
     32  0.777314D-03 -0.582232D-03 -0.593973D-03  0.643057D-03  0.645821D-04
     33 -0.423302D-04 -0.174031D-04  0.419900D-03 -0.844047D-04  0.127947D-03
     34  0.265058D-03  0.234688D-02  0.342690D-03 -0.145081D-02  0.462740D-04
     35 -0.469139D-03  0.111727D-02  0.378249D-03  0.119314D-02 -0.399335D-04
     36  0.386157D-02  0.177086D-02  0.510947D-03 -0.102840D-02  0.514955D-04
     37 -0.215147D-03 -0.127183D-02 -0.223393D-03 -0.803257D-04  0.497297D-04
     38  0.145445D-02 -0.285391D-02 -0.250010D-03  0.133040D-03  0.420821D-03
     39 -0.155954D-02 -0.434781D-02  0.604982D-05 -0.203073D-03 -0.440127D-04
     40 -0.379748D-05  0.289511D-04 -0.960039D-05  0.308336D-04 -0.100624D-05
     41 -0.694536D-04 -0.292601D-03  0.000000D+00 -0.128196D-04  0.115367D-04
     42 -0.125285D-03 -0.454655D-03  0.163858D-05 -0.188772D-04  0.275625D-04
     43 -0.261799D-04 -0.655889D-04 -0.533755D-05 -0.376266D-04 -0.205781D-04
     44  0.109230D-03  0.135245D-03  0.248323D-04  0.719167D-04  0.479711D-04
     45  0.225922D-03  0.129205D-03  0.334851D-04  0.396963D-04  0.728025D-04
     46  0.772355D-04  0.195040D-03  0.256562D-04 -0.151957D-04  0.137544D-04
     47 -0.119775D-03 -0.111054D-03 -0.515038D-04 -0.109058D-03 -0.814839D-04
     48 -0.269118D-03  0.558040D-04 -0.658476D-04 -0.808211D-04 -0.168301D-03
               16            17            18            19            20
     16  0.281127D+00
     17  0.113867D+00  0.108497D+00
     18  0.212261D-01  0.118245D-01  0.476120D-01
     19 -0.146431D-02 -0.884783D-02 -0.274713D-01  0.527772D-01
     20 -0.657445D-03 -0.569442D-02 -0.133511D-01  0.773112D-02  0.843087D-01
     21 -0.541027D-03  0.814302D-04 -0.122250D-02  0.275857D-01  0.953161D-01
     22 -0.237385D-02  0.252312D-02  0.793687D-03  0.156624D-02 -0.115069D-02
     23  0.475759D-02 -0.301786D-02 -0.114799D-02 -0.574359D-04  0.557255D-03
     24  0.133753D-02 -0.139987D-02 -0.348790D-03  0.805660D-03  0.277368D-03
     25  0.361826D-03 -0.908292D-04  0.258672D-03 -0.390620D-03  0.401984D-03
     26  0.333163D-04 -0.164724D-03  0.877074D-04 -0.108436D-03  0.460183D-03
     27 -0.666876D-04  0.127828D-03  0.246394D-03 -0.439801D-03  0.213081D-03
     28 -0.136164D-02  0.133156D-02  0.454186D-03  0.288926D-03 -0.111912D-03
     29 -0.704513D-03  0.585135D-03 -0.217570D-04 -0.645802D-04 -0.114812D-03
     30 -0.118239D-03 -0.944008D-04  0.491451D-03 -0.270827D-03  0.225809D-03
     31  0.319554D-03  0.212845D-03 -0.322389D-03 -0.140064D-03  0.111029D-03
     32  0.550992D-04  0.999598D-04 -0.205539D-03 -0.308011D-04  0.677417D-04
     33  0.366551D-04 -0.268441D-03  0.862242D-04  0.273148D-04  0.139054D-03
     34  0.206046D-02  0.278469D-03 -0.863809D-03  0.159004D-02 -0.460282D-03
     35 -0.506292D-03 -0.506003D-03  0.721587D-04 -0.120176D-02  0.780394D-03
     36  0.380290D-03 -0.529653D-03 -0.245870D-03 -0.465417D-03  0.188298D-03
     37  0.248927D-04  0.287059D-04 -0.170858D-03  0.340821D-03 -0.136184D-03
     38 -0.164797D-05 -0.123239D-03  0.638283D-04  0.699091D-03 -0.412498D-03
     39  0.630974D-04  0.305078D-03  0.198161D-04  0.122970D-02 -0.113251D-02
     40 -0.172628D-04  0.123401D-05  0.867681D-05 -0.243824D-04  0.786003D-05
     41  0.318439D-04  0.101758D-04  0.863447D-05  0.833407D-04 -0.897253D-04
     42 -0.995488D-05  0.359258D-04  0.299844D-04  0.122363D-03 -0.133319D-03
     43  0.572212D-04 -0.856762D-05 -0.447152D-04  0.438242D-04  0.000000D+00
     44 -0.604797D-04  0.162566D-04  0.103593D-03 -0.418148D-04 -0.216497D-04
     45 -0.603362D-04  0.197879D-04  0.122405D-03 -0.257128D-04 -0.582808D-04
     46 -0.151671D-04 -0.176676D-04  0.180963D-04 -0.524954D-04  0.338232D-04
     47  0.400169D-04 -0.186351D-04 -0.166239D-03  0.240091D-04  0.709986D-04
     48  0.150005D-03 -0.750460D-04 -0.273620D-03 -0.933838D-05  0.203473D-03
               21            22            23            24            25
     21  0.297577D+00
     22 -0.616020D-03  0.464624D+00
     23  0.333028D-03 -0.476723D-01  0.548000D+00
     24  0.151071D-03 -0.719338D-02 -0.756644D-04  0.566350D+00
     25  0.654878D-03 -0.489367D-01 -0.108644D-01 -0.345386D-01  0.558361D-01
     26  0.951250D-04 -0.115493D-01 -0.742314D-01 -0.798905D-01  0.157274D-01
     27  0.364806D-03 -0.353909D-01 -0.809204D-01 -0.279689D+00  0.380463D-01
     28  0.787421D-04 -0.178920D+00  0.123167D+00  0.397826D-01  0.378535D-02
     29  0.100652D-03  0.124166D+00 -0.164969D+00 -0.369116D-01  0.662011D-02
     30  0.304496D-03  0.398016D-01 -0.373783D-01 -0.591471D-01  0.224811D-01
     31  0.248927D-04 -0.489684D-01 -0.144840D-01  0.129595D-01 -0.438077D-03
     32 -0.360244D-04 -0.155266D-01 -0.203315D+00  0.126258D+00  0.136932D-02
[...]
    Z6        3.29619   0.00000   0.00000  -0.00074  -0.00128   3.29491
    X7       -2.54773   0.00000   0.00000  -0.00192  -0.00124  -2.54897
    Y7        6.64930  -0.00001   0.00000  -0.00475  -0.00307   6.64623
    Z7        5.38176   0.00000   0.00000   0.00200   0.00112   5.38289
    X8        2.04158   0.00000   0.00000  -0.00025   0.00006   2.04165
    Y8        5.24367   0.00000   0.00000   0.00153   0.00101   5.24467
    Z8        3.09499   0.00000   0.00000   0.00112   0.00085   3.09584
    X9        2.35679   0.00000   0.00000  -0.00114  -0.00070   2.35610
    Y9        5.92709   0.00000   0.00000  -0.00037  -0.00050   5.92659
    Z9        5.01607   0.00000   0.00000   0.00194   0.00152   5.01759
   X10        3.53089   0.00000   0.00000   0.00088   0.00074   3.53163
   Y10        3.88135   0.00000   0.00000   0.00316   0.00200   3.88334
   Z10        2.65388   0.00000   0.00000  -0.00011   0.00006   2.65394
   X11        2.23474   0.00000   0.00000  -0.00126  -0.00032   2.23441
   Y11        6.84850   0.00000   0.00000   0.00314   0.00221   6.85071
   Z11        1.80757   0.00000   0.00000   0.00296   0.00228   1.80985
   X12       -2.61103   0.00000   0.00000   0.00350   0.00334  -2.60770
   Y12        3.24659   0.00001   0.00000   0.00491   0.00488   3.25148
   Z12       -1.13578   0.00000   0.00000  -0.00310  -0.00308  -1.13886
   X13        0.61392   0.00000   0.00000   0.00234   0.00152   0.61544
   Y13        1.47612   0.00001   0.00000   0.00301   0.00210   1.47822
   Z13       -0.22081  -0.00001   0.00000  -0.00273  -0.00207  -0.22288
   X14        0.03094   0.00001   0.00000  -0.00524  -0.00659   0.02435
   Y14       -0.70686   0.00000   0.00000  -0.00677  -0.00865  -0.71551
   Z14       -4.62308   0.00000   0.00000   0.00369   0.00490  -4.61818
   X15       -2.08140   0.00000   0.00000  -0.00029  -0.00121  -2.08261
   Y15        0.41227  -0.00001   0.00000  -0.00017  -0.00151   0.41076
   Z15       -5.39067  -0.00001   0.00000  -0.00032   0.00048  -5.39019
   X16       -2.53122   0.00001   0.00000   0.00221   0.00161  -2.52961
   Y16        1.55766   0.00001   0.00000   0.00343   0.00262   1.56028
   Z16       -3.97570   0.00000   0.00000  -0.00243  -0.00195  -3.97766
         Item               Value     Threshold  Converged?
 Maximum Force            0.000013     0.000450     YES
 RMS     Force            0.000005     0.000300     YES
 Maximum Displacement     0.008646     0.001800     NO 
 RMS     Displacement     0.002408     0.001200     NO 
 Predicted change in Energy=-3.131282D-08
 GradGradGradGradGradGradGradGradGradGradGradGradGradGradGradGradGradGrad


 Test job not archived.
 1\1\GINC-NODE30\Freq\UB3LYP\CBSB7\C4H9O3(2)\NYEE\16-Jul-2014\0\\# freq
  nosymm b3lyp/cbsb7 iop(7/33=1)\\Title Card Required\\0,2\C,-0.467332,
 1.497564,0.169246\C,-0.323293,2.145463,1.522674\H,-0.358936,1.304619,2
 .233536\C,-1.451834,3.12757,1.833156\H,-1.434893,3.970951,1.138408\H,-
 2.428812,2.649481,1.74427\H,-1.348201,3.51866,2.847906\C,1.080359,2.77
 4829,1.637797\H,1.247161,3.136483,2.65439\H,1.868469,2.053921,1.404372
 \H,1.182571,3.62407,0.956526\O,-1.3817,1.718023,-0.601029\H,0.324872,0
 .781127,-0.116848\O,0.016374,-0.374054,-2.44643\O,-1.10143,0.218166,-2
 .852618\H,-1.339466,0.824278,-2.103851\\Version=AM64L-G03RevD.01\HF=-3
 83.4962465\S2=0.753016\S2-1=0.\S2A=0.750006\RMSD=8.260e-09\RMSF=4.517e
 -06\ZeroPoint=0.1292041\Thermal=0.1392129\Dipole=0.2931012,0.7890232,1
 .6558461\DipoleDeriv=0.6167771,-0.0997615,0.4239325,-0.1780785,0.38607
 03,0.1808526,0.3875792,0.3449467,1.0724241,0.0553002,-0.0417137,-0.113
 8185,-0.0546102,0.0864304,-0.1279038,-0.1215691,-0.1630092,-0.2517256,
 0.0380521,0.0170782,0.025642,-0.0071922,-0.106611,0.0355536,0.0031118,
 0.0580639,-0.0059452,-0.0090189,0.0210694,-0.0136568,0.0061413,0.05131
 77,-0.0124666,0.0084792,-0.0233459,0.0886865,0.0492938,-0.0120906,0.03
 77018,0.0139266,-0.0479329,0.0679304,0.00539,0.1145009,-0.0093048,-0.1
 04898,-0.0438688,0.0055043,-0.0713008,0.0169824,-0.0038291,-0.0230789,
 -0.0032124,0.0860267,0.0587638,0.0034044,-0.0355825,0.0183125,0.027548
 4,-0.0732381,-0.0045138,-0.0880668,-0.1207306,0.0770281,0.0373128,0.08
 38555,0.0218079,0.0926186,-0.0357648,-0.0158957,-0.0421191,0.0431489,0
 .0380821,-0.0307155,-0.0231241,-0.0385658,0.0407416,-0.0686675,-0.0412
 674,-0.0683757,-0.1039994,-0.0680039,0.0668763,0.0362583,0.1086574,-0.
 0301594,-0.02482,0.0500371,-0.030876,0.0759337,0.0364758,-0.0010579,-0
 .027746,-0.0473848,-0.0567589,0.0762662,0.0159687,0.1092586,-0.0060041
 ,-0.6677323,-0.0250033,-0.4486893,0.1213786,-0.4379582,-0.1233131,-0.3
 189594,-0.3175835,-1.084644,-0.0482116,0.094283,0.0240106,0.1027224,-0
 .0162876,-0.0106018,0.0445375,-0.0318917,0.0528747,0.0863944,-0.129407
 2,0.1105679,-0.1728834,-0.1289627,-0.1384501,0.0322864,-0.0835538,-0.2
 687298,-0.4209229,0.125688,-0.0115851,0.1369541,-0.3871919,-0.0528388,
 0.015062,-0.0852718,-0.3550253,0.2626201,0.0179065,-0.0732707,0.040114
 8,0.5101532,0.311291,-0.0371675,0.3105359,0.7870142\Polar=60.7988926,-
 5.0334134,52.4624423,5.9493384,7.6081539,60.9879407\PG=C01 [X(C4H9O3)]
 \NImag=0\\0.71428915,-0.21042855,0.39577044,0.24618284,0.05191956,0.62
 119246,-0.08317393,0.00751853,0.01646176,0.45338850,0.00879179,-0.1167
 7069,-0.04702666,-0.03409250,0.51430779,0.01511421,-0.04699991,-0.1516
 8625,-0.00286060,-0.02713983,0.49043841,-0.00173068,0.00274691,-0.0055
 1326,-0.03848295,-0.00131067,0.00704530,0.05251832,0.00191976,0.010753
 25,-0.00599835,-0.00222722,-0.17842304,0.11392587,0.00530802,0.1992865
 7,-0.00071168,0.02812732,-0.02317075,0.00861950,0.12237469,-0.15445004
 ,-0.00586564,-0.13028817,0.16693509,0.00453249,0.00124121,0.00816281,-
 0.13574307,0.04948600,0.01315846,-0.00087641,0.00105705,-0.00019658,0.
 51757837,0.01233187,-0.01407205,-0.01019390,0.05173630,-0.12520235,-0.
 01274766,0.01919357,-0.01712060,-0.00666258,0.05305588,0.52525048,0.02
 668692,-0.02597564,-0.01109459,0.01309971,-0.01205994,-0.08299197,-0.0
 1595578,0.01363630,0.00566489,0.01701049,-0.00893373,0.56857197,0.0004
 0572,-0.00057501,-0.00073340,-0.00066532,0.02004811,-0.01673150,-0.003
 21534,0.00346479,0.00131837,-0.04691741,-0.00630104,0.00516001,0.04970
 137,0.00142454,-0.00008570,0.00305884,-0.00011972,-0.01850090,0.012658
 65,0.00318957,-0.00188120,-0.00171839,-0.00518413,-0.20007667,0.128219
 64,0.00255307,0.21827273,-0.00006539,-0.00094397,0.00051526,-0.0009235
 7,-0.00599575,0.00517677,0.00116443,-0.00149601,0.00040471,0.00486112,
 0.12983067,-0.15520668,-0.00617528,-0.14184417,0.16541885,-0.00134457,
 -0.00058072,-0.00219177,-0.02051415,-0.01083111,-0.00116517,0.00047388
 ,0.00012149,-0.00049188,-0.25738296,-0.10528819,-0.01881823,0.00004890
 ,-0.00027643,0.00026958,0.28112717,-0.00012329,0.00098101,-0.00012622,
 0.02075412,0.01112417,0.00233924,-0.00049357,0.00092535,0.00052491,-0.
 10737586,-0.10163153,-0.00958996,-0.02203992,-0.01108305,-0.00317512,0
 .11386748,0.10849740,0.00161205,0.00033162,0.00103296,0.00551122,0.004
 15098,-0.00129610,-0.00034757,-0.00016532,0.00018784,-0.02016701,-0.01
 069174,-0.04809913,0.01950495,0.00910665,0.00165694,0.02122613,0.01182
 452,0.04761200,-0.00571429,0.00360484,-0.00107345,0.00110776,0.0090089
 7,0.02505358,0.00092307,-0.00059152,-0.00049775,-0.04980577,-0.0105946
 2,-0.02601640,-0.00104597,0.00038744,0.00144565,-0.00146431,-0.0088478
 3,-0.02747132,0.05277722,0.00447114,-0.00244782,0.00047462,-0.00224369
 ,-0.00929205,-0.02076298,-0.00080055,0.00038625,0.00004072,-0.01008007
 ,-0.07902774,-0.08506109,0.00288339,0.01046921,0.02342079,-0.00065745,
 -0.00569442,-0.01335110,0.00773112,0.08430867,-0.00011581,-0.00024260,
 0.00070078,-0.00102784,-0.00128796,-0.00502797,0.00021169,-0.00027190,
 0.00065066,-0.02461662,-0.08591375,-0.27523693,-0.00239024,-0.00766428
 ,-0.01822143,-0.00054103,0.00008143,-0.00122250,0.02758574,0.09531607,
 0.29757664,-0.01165078,-0.00729314,-0.01777095,-0.14607795,-0.02986427
 ,0.00264994,-0.00703944,-0.00342969,0.00018059,-0.02882258,-0.00834538
 ,-0.00112759,0.00169846,-0.00111120,-0.00018101,-0.00237385,0.00252312
 ,0.00079369,0.00156624,-0.00115069,-0.00061602,0.46462361,-0.01531401,
 -0.00793228,-0.00245082,-0.03675836,-0.09595846,-0.00360274,-0.0251610
 5,-0.01210492,-0.00260869,0.01969375,0.01093400,0.00266188,0.00077951,
 0.00073857,-0.00015707,0.00475759,-0.00301786,-0.00114799,-0.00005744,
 0.00055725,0.00033303,-0.04767228,0.54800044,-0.03236189,-0.01424646,-
 0.00189083,-0.00909964,-0.01147699,-0.06987943,0.02037867,0.01119156,0
 .00312243,0.00681412,0.00315870,0.00104773,-0.00111759,-0.00007528,0.0
 0019373,0.00133753,-0.00139987,-0.00034879,0.00080566,0.00027737,0.000
 15107,-0.00719338,-0.00007566,0.56635038,-0.00543622,-0.00056386,0.004
 39424,-0.00831734,-0.01361419,-0.02919611,0.00179306,0.00096230,0.0004
 7474,0.00171707,-0.00031621,-0.00092563,-0.00014601,0.00006183,0.00002
 431,0.00036183,-0.00009083,0.00025867,-0.00039062,0.00040198,0.0006548
 8,-0.04893668,-0.01086439,-0.03453861,0.05583611,-0.00315654,-0.000716
 06,0.00133336,-0.00267080,-0.00659309,-0.01301394,0.00081427,0.0001971
 5,-0.00041070,0.00080620,0.00026480,0.00039369,-0.00003829,0.00003641,
 0.00012325,0.00003332,-0.00016472,0.00008771,-0.00010844,0.00046018,0.
 00009512,-0.01154932,-0.07423136,-0.07989052,0.01572740,0.07805776,-0.
 00001405,0.00034171,0.00091903,0.00041784,-0.00016879,-0.00074175,-0.0
 0023137,-0.00026215,0.00088117,0.00029288,0.00027570,0.00013392,0.0000
 1108,-0.00006719,-0.00008806,-0.00006669,0.00012783,0.00024639,-0.0004
 3980,0.00021308,0.00036481,-0.03539094,-0.08092041,-0.27968908,0.03804
 635,0.08865806,0.30092429,-0.00062428,0.00277831,0.00164672,-0.0201533
 0,0.02004879,0.00542693,0.00095001,-0.00008359,0.00045265,-0.00453737,
 -0.00477775,-0.00105381,0.00025402,-0.00004596,-0.00013273,-0.00136164
 ,0.00133156,0.00045419,0.00028893,-0.00011191,0.00007874,-0.17892045,0
 .12316688,0.03978261,0.00378535,-0.00367516,-0.00044185,0.19676224,-0.
 00071505,0.00056808,-0.00103208,-0.01000258,0.01109886,0.00416332,0.00
 054231,0.00079572,0.00024597,-0.00211106,-0.00100095,-0.00070386,-0.00
 028191,0.00019132,-0.00018610,-0.00070451,0.00058513,-0.00002176,-0.00
 006458,-0.00011481,0.00010065,0.12416624,-0.16496913,-0.03691165,0.006
 62011,-0.00734552,-0.00131873,-0.13476727,0.17631912,-0.00149653,0.001
 04407,0.00006872,-0.00160566,0.00262508,-0.00129268,0.00031739,-0.0001
 4519,0.00008185,-0.00045991,-0.00021293,0.00007479,0.00024744,-0.00029
 859,0.00008241,-0.00011824,-0.00009440,0.00049145,-0.00027083,0.000225
 81,0.00030450,0.03980157,-0.03737829,-0.05914711,0.02248109,-0.0203688
 9,-0.00540210,-0.04351703,0.04174957,0.05971846,0.00119914,-0.00021207
 ,0.00284351,-0.00393505,-0.02405633,0.01744619,-0.00528108,-0.00313727
 ,-0.00089945,0.00205155,-0.00079160,0.00070687,-0.00024844,0.00067412,
 -0.00037529,0.00031955,0.00021285,-0.00032239,-0.00014006,0.00011103,0
 .00002489,-0.04896843,-0.01448404,0.01295949,-0.00043808,0.00382105,-0
 .00229743,0.00250447,0.01711865,-0.01583118,0.05353881,0.00067338,-0.0
 0039184,0.00283281,-0.00210227,-0.01139198,0.00616337,-0.00230228,-0.0
 0021244,-0.00084414,0.00092653,0.00077731,-0.00058223,-0.00059397,0.00
 064306,0.00006458,0.00005510,0.00009996,-0.00020554,-0.00003080,0.0000
 6774,-0.00003602,-0.01552660,-0.20331462,0.12625837,0.00136932,0.00946
 406,-0.00688641,-0.00211794,-0.01588087,0.01337640,0.02050672,0.219912
 74,-0.00000086,-0.00117345,0.00057985,-0.00024237,-0.00327424,0.002452
 74,-0.00091644,-0.00063490,0.00097940,0.00013730,-0.00004233,-0.000017
 40,0.00041990,-0.00008440,0.00012795,0.00003666,-0.00026844,0.00008622
 ,0.00002731,0.00013905,-0.00007833,0.01293087,0.12623740,-0.15142416,0
 .00214180,0.02426975,-0.01806296,-0.00149521,-0.00672086,0.00485807,-0
 .01357118,-0.13893398,0.16008596,-0.45283458,0.10712362,-0.30085914,-0
 .00317722,0.00248390,-0.03046241,0.00010695,-0.00307067,-0.00150115,-0
 .00293718,0.00026506,0.00234688,0.00034269,-0.00145081,0.00004627,0.00
 206046,0.00027847,-0.00086381,0.00159004,-0.00046028,0.00068472,0.0039
 8437,0.00128374,0.00070428,-0.00054658,-0.00032598,-0.00000759,0.00064
 685,0.00024892,0.00043706,-0.00051339,-0.00080964,0.00044472,0.4851651
 7,0.10797376,-0.10877556,0.05879204,-0.00560375,0.02210577,-0.00974753
 ,-0.00148297,-0.00208006,-0.00556883,-0.00126545,-0.00046914,0.0011172
 7,0.00037825,0.00119314,-0.00003993,-0.00050629,-0.00050600,0.00007216
 ,-0.00120176,0.00078039,-0.00052730,-0.00170374,0.00012101,0.00063468,
 0.00001816,0.00030333,-0.00017903,-0.00094318,-0.00015353,-0.00032857,
 0.00047078,0.00037124,0.00038497,-0.12720411,0.08801145,-0.29935481,0.
 05713614,-0.34146611,-0.04598294,0.00187450,-0.03300004,-0.00033564,-0
 .00154020,-0.00351525,-0.00233585,0.00386157,0.00177086,0.00051095,-0.
 00102840,0.00005150,0.00038029,-0.00052965,-0.00024587,-0.00046542,0.0
 0018830,0.00017058,0.00550776,-0.00078692,-0.00856981,-0.00356559,-0.0
 0169712,0.00037067,-0.00016515,0.00054760,0.00027373,-0.00066796,-0.00
 125242,0.00053967,0.35436266,-0.05370368,0.38261943,-0.15643201,0.0958
 0148,0.05350603,0.00548855,0.00311410,-0.00527278,-0.00010659,-0.00022
 448,-0.00077170,0.00103740,-0.00021515,-0.00127183,-0.00022339,-0.0000
 8033,0.00004973,0.00002489,0.00002871,-0.00017086,0.00034082,-0.000136
 18,0.00002692,0.00105695,0.00055986,0.00133307,0.00064392,0.00029944,0
 .00009822,0.00042308,-0.00001658,0.00003804,-0.00007991,-0.00003972,0.
 00009887,-0.03082904,0.02877026,-0.01415244,0.17948250,0.09628677,-0.1
 5912347,-0.04865061,0.01389409,0.00335953,-0.00540506,-0.00020177,-0.0
 0056568,-0.00327423,-0.00024587,0.00145445,-0.00285391,-0.00025001,0.0
 0013304,0.00042082,-0.00000165,-0.00012324,0.00006383,0.00069909,-0.00
 041250,-0.00002094,0.00120549,0.00103155,0.00211492,0.00010327,0.00021
 197,0.00016609,-0.00082320,-0.00004047,-0.00019690,-0.00020407,-0.0001
 6016,0.00012247,0.01921713,0.00988807,0.00416226,-0.12931778,0.1457141
 8,0.05463303,-0.05011750,-0.08532525,0.01581110,-0.02137989,0.00073763
 ,0.00004568,0.00170809,0.00173438,-0.00275090,-0.00155954,-0.00434781,
 0.00000605,-0.00020307,-0.00004401,0.00006310,0.00030508,0.00001982,0.
 00122970,-0.00113251,-0.00023508,0.00091469,-0.00022935,-0.00029730,-0
 .00045941,0.00033264,0.00008695,-0.00106472,0.00014427,-0.00009360,-0.
 00003327,-0.00000189,-0.00005728,-0.03179536,0.01653401,0.01064001,-0.
 03615945,0.05444758,0.07671349,0.00220635,-0.00050395,0.00156766,-0.00
 019259,0.00009116,0.00022347,0.00001068,0.00000045,-0.00001685,0.00001
 448,-0.00000380,0.00002895,-0.00000960,0.00003083,-0.00000101,-0.00001
 726,0.00000123,0.00000868,-0.00002438,0.00000786,-0.00001371,0.0000138
 0,-0.00004148,-0.00004169,-0.00000402,-0.00000332,-0.00001185,-0.00002
 317,-0.00001778,-0.00000886,0.00000741,0.00003365,0.00000183,0.0007636
 9,-0.00156918,-0.00199285,-0.00048576,0.00012830,0.00020403,0.32570562
 ,-0.00279237,0.00090250,-0.00247754,0.00067353,-0.00067069,0.00006288,
 0.00000983,0.00003993,0.00004313,-0.00013614,-0.00006945,-0.00029260,-
 0.00000029,-0.00001282,0.00001154,0.00003184,0.00001018,0.00000863,0.0
 0008334,-0.00008973,-0.00003310,0.00004714,0.00003569,-0.00004365,-0.0
 0000336,-0.00003539,-0.00004578,0.00004383,-0.00002223,0.00004754,-0.0
 0001233,0.00002496,0.00001851,-0.00042439,0.00181999,0.00253634,0.0010
 0854,-0.00111056,0.00017685,-0.18443973,0.11461802,-0.00221251,0.00028
 783,-0.00167362,0.00101238,-0.00060754,0.00015503,0.00002286,-0.000010
 92,0.00004124,-0.00020620,-0.00012529,-0.00045466,0.00000164,-0.000018
 88,0.00002756,-0.00000995,0.00003593,0.00002998,0.00012236,-0.00013332
 ,-0.00007495,0.00021840,0.00006032,-0.00002451,-0.00004232,-0.00005482
 ,-0.00004187,0.00003450,0.00001570,0.00002342,-0.00001773,-0.00003976,
 0.00002320,0.00008135,0.00099142,0.00180888,0.00166781,-0.00091490,-0.
 00003927,0.09672050,-0.03870845,0.05771852,-0.00483989,0.00235292,-0.0
 0191056,0.00052996,-0.00063838,0.00004408,-0.00000572,0.00010152,0.000
 18315,-0.00000416,-0.00002618,-0.00006559,-0.00000534,-0.00003763,-0.0
 0002058,0.00005722,-0.00000857,-0.00004472,0.00004382,0.00000047,0.000
 04734,-0.00019739,0.00006676,0.00011236,0.00006875,0.00001828,0.000003
 26,0.00007724,-0.00001482,0.00003717,-0.00000342,0.00001109,-0.0000127
 4,0.00532953,0.00093173,0.00319791,0.00075381,-0.00026693,0.00016597,-
 0.29467649,0.14783800,-0.11991063,0.33513816,0.00793322,-0.00409225,0.
 00319468,-0.00167066,0.00036565,-0.00051880,-0.00000858,-0.00013202,-0
 .00028864,-0.00015012,0.00010923,0.00013524,0.00002483,0.00007192,0.00
 004797,-0.00006048,0.00001626,0.00010359,-0.00004181,-0.00002165,-0.00
 010551,0.00037815,-0.00013135,-0.00048040,-0.00022252,-0.00009026,-0.0
 0003780,-0.00004444,0.00005744,0.00000856,0.00001434,-0.00002400,0.000
 04594,-0.00245191,-0.00366390,-0.01672944,-0.00128123,0.00105989,-0.00
 035843,0.16966549,-0.09912825,0.04748683,-0.20781794,0.25082137,0.0075
 5087,-0.00388902,0.00282145,-0.00154574,0.00066500,-0.00139292,-0.0000
 5058,-0.00020931,-0.00043243,-0.00023708,0.00022592,0.00012921,0.00003
 349,0.00003970,0.00007280,-0.00006034,0.00001979,0.00012240,-0.0000257
 1,-0.00005828,-0.00011326,0.00039218,-0.00001836,-0.00049541,-0.000233
 26,-0.00013185,-0.00004506,0.00001089,0.00006327,0.00004989,-0.0000068
 3,-0.00006952,0.00007300,-0.00273262,-0.01238212,-0.02070010,-0.001632
 24,0.00088644,-0.00004099,-0.08190493,0.01942996,-0.07276705,0.0595955
 7,0.15653282,0.35644764,0.00114838,-0.00301051,-0.00471306,-0.00008192
 ,0.00133463,-0.00047360,-0.00003777,-0.00017092,-0.00027631,0.00009555
 ,0.00007724,0.00019504,0.00002566,-0.00001520,0.00001375,-0.00001517,-
 0.00001767,0.00001810,-0.00005250,0.00003382,0.00000636,0.00004413,0.0
 0004494,0.00012502,0.00000945,0.00000788,0.00003194,-0.00007198,-0.000
 00007,-0.00005152,-0.00001307,-0.00005257,-0.00000045,-0.00915177,0.00
 293748,0.00505908,-0.00109521,-0.00022287,-0.00081025,-0.03328876,0.03
 807254,0.02251753,-0.04226611,0.03573368,0.02084633,0.08475110,-0.0092
 7641,0.00543242,-0.00364973,0.00291498,0.00044149,0.00062512,-0.000043
 06,0.00013574,0.00030762,0.00028208,-0.00011978,-0.00011105,-0.0000515
 0,-0.00010906,-0.00008148,0.00004002,-0.00001864,-0.00016624,0.0000240
 1,0.00007100,0.00017707,-0.00067382,0.00024147,0.00096489,0.00041099,0
 .00018075,0.00010382,0.00002102,-0.00008816,-0.00005327,-0.00003183,0.
 00001483,-0.00008549,0.00529696,-0.00894621,0.00696113,0.00172905,-0.0
 0131660,0.00133367,0.01662025,-0.01631214,-0.00826416,0.05748967,-0.14
 521806,-0.16110445,-0.07475240,0.16561095,-0.01544639,0.00440031,-0.01
 152311,0.00235485,-0.00127268,0.00279856,0.00003026,0.00056061,0.00088
 482,0.00053298,-0.00026912,0.00005580,-0.00006585,-0.00008082,-0.00016
 830,0.00015001,-0.00007505,-0.00027362,-0.00000934,0.00020347,0.000291
 40,-0.00110978,0.00008368,0.00090109,0.00048487,0.00027424,0.00014365,
 -0.00001674,-0.00013531,-0.00009181,0.00004176,0.00015637,-0.00016591,
 0.00911411,0.00395047,0.00925187,0.00261260,-0.00106787,0.00054831,-0.
 01476338,0.01926573,0.01524807,0.05857800,-0.18903663,-0.26372917,-0.0
 4248797,0.16304258,0.24582837\\-0.00000932,0.00001039,-0.00000488,0.00
 000519,0.00000378,-0.00000246,-0.00000060,0.00000074,-0.00000084,0.000
 00249,0.00000109,-0.00000251,0.00000302,0.00000293,-0.00000242,0.00000
 054,0.00000602,-0.00000101,0.00000291,0.00000532,-0.00000265,0.0000028
 5,0.00000223,0.00000455,0.00000188,-0.00000116,-0.00000047,-0.00000045
 ,-0.00000294,0.00000016,0.00000263,-0.00000468,-0.00000048,0.00000241,
 -0.00000555,-0.00000275,-0.00000204,-0.00000652,0.00000508,-0.00000858
 ,-0.00000417,0.00000057,0.00000257,0.00000599,0.00000646,-0.00000550,-
 0.00001345,0.00000365\\\@


 YOU WILL NEVER "FIND" TIME FOR ANYTHING.
 IF YOU WANT TIME, YOU MUST MAKE IT.

                        -- CHARLES BIXTON
 Job cpu time:  0 days  0 hours 55 minutes 50.1 seconds.
 File lengths (MBytes):  RWF=    109 Int=      0 D2E=      0 Chk=      8 Scr=      1
 Normal termination of Gaussian 03 at Wed Jul 16 14:04:28 2014.
