 Entering Gaussian System, Link 0=g03
 Input=ts5-freq.gjf
 Output=ts5-freq.log
 Initial command:
 /opt/g03/l1.exe /scratch/shamel/Gau-2588.inp -scrdir=/scratch/shamel/
 Entering Link 1 = /opt/g03/l1.exe PID=      2590.
  
 Copyright (c) 1988,1990,1992,1993,1995,1998,2003,2004, Gaussian, Inc.
                  All Rights Reserved.
  
 This is the Gaussian(R) 03 program.  It is based on the
 the Gaussian(R) 98 system (copyright 1998, Gaussian, Inc.),
 the Gaussian(R) 94 system (copyright 1995, Gaussian, Inc.),
 the Gaussian 92(TM) system (copyright 1992, Gaussian, Inc.),
 the Gaussian 90(TM) system (copyright 1990, Gaussian, Inc.),
 the Gaussian 88(TM) system (copyright 1988, Gaussian, Inc.),
 the Gaussian 86(TM) system (copyright 1986, Carnegie Mellon
 University), and the Gaussian 82(TM) system (copyright 1983,
 Carnegie Mellon University). Gaussian is a federally registered
 trademark of Gaussian, Inc.
  
 This software contains proprietary and confidential information,
 including trade secrets, belonging to Gaussian, Inc.
  
 This software is provided under written license and may be
 used, copied, transmitted, or stored only in accord with that
 written license.
  
 The following legend is applicable only to US Government
 contracts under FAR:
  
                    RESTRICTED RIGHTS LEGEND
  
 Use, reproduction and disclosure by the US Government is
 subject to restrictions as set forth in subparagraphs (a)
 and (c) of the Commercial Computer Software - Restricted
 Rights clause in FAR 52.227-19.
  
 Gaussian, Inc.
 340 Quinnipiac St., Bldg. 40, Wallingford CT 06492
  
  
 ---------------------------------------------------------------
 Warning -- This program may not be used in any manner that
 competes with the business of Gaussian, Inc. or will provide
 assistance to any competitor of Gaussian, Inc.  The licensee
 of this program is prohibited from giving any competitor of
 Gaussian, Inc. access to this program.  By using this program,
 the user acknowledges that Gaussian, Inc. is engaged in the
 business of creating and licensing software in the field of
 computational chemistry and represents and warrants to the
 licensee that it is not a competitor of Gaussian, Inc. and that
 it will not use this program in any manner prohibited above.
 ---------------------------------------------------------------
  

 Cite this work as:
 Gaussian 03, Revision D.01,
 M. J. Frisch, G. W. Trucks, H. B. Schlegel, G. E. Scuseria, 
 M. A. Robb, J. R. Cheeseman, J. A. Montgomery, Jr., T. Vreven, 
 K. N. Kudin, J. C. Burant, J. M. Millam, S. S. Iyengar, J. Tomasi, 
 V. Barone, B. Mennucci, M. Cossi, G. Scalmani, N. Rega, 
 G. A. Petersson, H. Nakatsuji, M. Hada, M. Ehara, K. Toyota, 
 R. Fukuda, J. Hasegawa, M. Ishida, T. Nakajima, Y. Honda, O. Kitao, 
 H. Nakai, M. Klene, X. Li, J. E. Knox, H. P. Hratchian, J. B. Cross, 
 V. Bakken, C. Adamo, J. Jaramillo, R. Gomperts, R. E. Stratmann, 
 O. Yazyev, A. J. Austin, R. Cammi, C. Pomelli, J. W. Ochterski, 
 P. Y. Ayala, K. Morokuma, G. A. Voth, P. Salvador, J. J. Dannenberg, 
 V. G. Zakrzewski, S. Dapprich, A. D. Daniels, M. C. Strain, 
 O. Farkas, D. K. Malick, A. D. Rabuck, K. Raghavachari, 
 J. B. Foresman, J. V. Ortiz, Q. Cui, A. G. Baboul, S. Clifford, 
 J. Cioslowski, B. B. Stefanov, G. Liu, A. Liashenko, P. Piskorz, 
 I. Komaromi, R. L. Martin, D. J. Fox, T. Keith, M. A. Al-Laham, 
 C. Y. Peng, A. Nanayakkara, M. Challacombe, P. M. W. Gill, 
 B. Johnson, W. Chen, M. W. Wong, C. Gonzalez, and J. A. Pople, 
 Gaussian, Inc., Wallingford CT, 2004.
 
 ******************************************
 Gaussian 03:  AM64L-G03RevD.01 13-Oct-2005
                18-Jun-2013 
 ******************************************
 %chk=ts5-freq.chk
 %mem=1000mb
 %nproc=8
 Will use up to    8 processors via shared memory.
 -------------------------------------
 # freq nosymm b3lyp/cbsb7 iop(7/33=1)
 -------------------------------------
 1/10=4,30=1,38=1/1,3;
 2/15=1,17=6,18=5,40=1/2;
 3/5=4,6=6,7=700,11=2,16=1,25=1,30=1,74=-5/1,2,3;
 4//1;
 5/5=2,38=5/2;
 8/6=4,10=90,11=11/1;
 11/6=1,8=1,9=11,15=111,16=1,31=1/1,2,10;
 10/6=1,31=1/2;
 6/7=2,8=2,9=2,10=2,18=1,28=1/1;
 7/8=1,10=1,25=1,30=1,33=1/1,2,3,16;
 1/10=4,30=1/3;
 99//99;
 -------------------
 Title Card Required
 -------------------
 Symbolic Z-matrix:
 Charge =  0 Multiplicity = 2
 C                     0.88601  -0.07772  -0.28998 
 C                     2.37359  -0.4217   -0.12322 
 C                     0.00116  -1.19201   0.37912 
 C                     0.62578   1.29512   0.21212 
 O                    -1.22689  -1.41663  -0.20914 
 O                    -2.11739  -0.0177    0.08079 
 O                    -0.51133   1.94721   0.05432 
 H                     0.61641  -0.13198  -1.35589 
 H                     2.64568  -0.47967   0.93545 
 H                     3.00751   0.33592  -0.58986 
 H                     2.60477  -1.38468  -0.584 
 H                     0.52238  -2.14404   0.21502 
 H                    -0.08437  -1.02535   1.46415 
 H                     1.39654   1.85728   0.72995 
 H                    -2.82956  -0.23732  -0.53415 
 H                    -1.24732   1.28255  -0.11085 
 

 GradGradGradGradGradGradGradGradGradGradGradGradGradGradGradGradGradGrad
 Berny optimization.
 Initialization pass.
 Trust Radius=3.00D-01 FncErr=1.00D-07 GrdErr=1.00D-07
 Number of steps in this run=   2 maximum allowed number of steps=   2.
 GradGradGradGradGradGradGradGradGradGradGradGradGradGradGradGradGradGrad

                          Input orientation:                          
 ---------------------------------------------------------------------
 Center     Atomic     Atomic              Coordinates (Angstroms)
 Number     Number      Type              X           Y           Z
 ---------------------------------------------------------------------
    1          6             0        0.886006   -0.077722   -0.289983
    2          6             0        2.373590   -0.421697   -0.123221
    3          6             0        0.001160   -1.192007    0.379121
    4          6             0        0.625777    1.295123    0.212120
    5          8             0       -1.226885   -1.416625   -0.209140
    6          8             0       -2.117393   -0.017697    0.080788
    7          8             0       -0.511333    1.947212    0.054317
    8          1             0        0.616405   -0.131981   -1.355894
    9          1             0        2.645682   -0.479665    0.935453
   10          1             0        3.007507    0.335923   -0.589861
   11          1             0        2.604772   -1.384678   -0.584000
   12          1             0        0.522384   -2.144038    0.215022
   13          1             0       -0.084374   -1.025350    1.464150
   14          1             0        1.396541    1.857277    0.729953
   15          1             0       -2.829557   -0.237319   -0.534145
   16          1             0       -1.247316    1.282552   -0.110851
 ---------------------------------------------------------------------
                    Distance matrix (angstroms):
                    1          2          3          4          5
     1  C    0.000000
     2  C    1.535915   0.000000
     3  C    1.572350   2.544435   0.000000
     4  C    1.484766   2.472807   2.569796   0.000000
     5  O    2.502700   3.736400   1.380072   3.311102   0.000000
     6  O    3.026794   4.513731   2.440548   3.043966   1.683467
     7  O    2.484242   3.737115   3.197318   1.320281   3.449177
     8  H    1.100816   2.165899   2.124255   2.120231   2.522513
     9  H    2.181676   1.094616   2.794715   2.784439   4.145451
    10  H    2.182154   1.092516   3.508792   2.689958   4.598527
    11  H    2.179160   1.092289   2.782718   3.425137   3.850083
    12  H    2.157988   2.551045   1.097709   3.440716   1.941387
    13  H    2.217345   2.987596   1.101081   2.730657   2.063571
    14  H    2.246138   2.622261   3.371692   1.085470   4.299150
    15  H    3.726995   5.222604   3.123851   3.852872   2.016172
    16  H    2.536434   4.001947   2.814642   1.900775   2.701043
                    6          7          8          9         10
     6  O    0.000000
     7  O    2.537912   0.000000
     8  H    3.090432   2.753821   0.000000
     9  H    4.861147   4.078342   3.080442   0.000000
    10  H    5.180677   3.923449   2.554038   1.767112   0.000000
    11  H    4.960788   4.606414   2.473595   1.769028   1.767116
    12  H    3.392310   4.222881   2.554406   2.792410   3.601927
    13  H    2.657484   3.317536   3.040041   2.833813   3.953701
    14  H    4.035427   2.025970   2.986054   2.657796   2.579077
    15  H    0.966206   3.239232   3.544153   5.674213   5.865409
    16  H    1.576200   1.005348   2.650376   4.399499   4.385097
                   11         12         13         14         15
    11  H    0.000000
    12  H    2.356142   0.000000
    13  H    3.399344   1.783238   0.000000
    14  H    3.700887   4.127932   3.322904   0.000000
    15  H    5.554354   3.928401   3.485714   4.883153   0.000000
    16  H    4.709200   3.870342   3.026462   2.833238   2.234429
                   16
    16  H    0.000000
 Symmetry turned off by external request.
 Stoichiometry    C4H9O3(2)
 Framework group  C1[X(C4H9O3)]
 Deg. of freedom    42
 Full point group                 C1
 Rotational constants (GHZ):      3.2498975      2.2223627      1.3967394
 Standard basis: CBSB7 (5D, 7F)
 Integral buffers will be    131072 words long.
 Raffenetti 2 integral format.
 Two-electron integral symmetry is turned off.
   180 basis functions,   296 primitive gaussians,   187 cartesian basis functions
    29 alpha electrons       28 beta electrons
       nuclear repulsion energy       327.0558425635 Hartrees.
 NAtoms=   16 NActive=   16 NUniq=   16 SFac= 7.50D-01 NAtFMM=   80 NAOKFM=F Big=F
 One-electron integrals computed using PRISM.
 NBasis=   180 RedAO= T  NBF=   180
 NBsUse=   180 1.00D-06 NBFU=   180
 Harris functional with IExCor=  402 diagonalized for initial guess.
 ExpMin= 1.03D-01 ExpMax= 8.59D+03 ExpMxC= 1.30D+03 IAcc=1 IRadAn=         1 AccDes= 1.00D-06
 HarFok:  IExCor= 402 AccDes= 1.00D-06 IRadAn=         1 IDoV=1
 ScaDFX=  1.000000  1.000000  1.000000  1.000000
 <S**2> of initial guess= 0.7500
 Requested convergence on RMS density matrix=1.00D-08 within 128 cycles.
 Requested convergence on MAX density matrix=1.00D-06.
 Requested convergence on             energy=1.00D-06.
 No special actions if energy rises.
 Integral accuracy reduced to 1.0D-05 until final iterations.
 EnCoef did     3 forward-backward iterations
 Problem detected with inexpensive integrals.
 Switching to full accuracy and repeating last cycle.
 EnCoef did     2 forward-backward iterations
 EnCoef did     3 forward-backward iterations
 SCF Done:  E(UB+HF-LYP) =  -383.457072962     A.U. after   22 cycles
             Convg  =    0.7657D-08             -V/T =  2.0033
             S**2   =   0.7574
 Annihilation of the first spin contaminant:
 S**2 before annihilation     0.7574,   after     0.7500
 Range of M.O.s used for correlation:     1   180
 NBasis=   180 NAE=    29 NBE=    28 NFC=     0 NFV=     0
 NROrb=    180 NOA=    29 NOB=    28 NVA=   151 NVB=   152

 **** Warning!!: The smallest alpha delta epsilon is  0.60245983D-01

 Symmetrizing basis deriv contribution to polar:
 IMax=3 JMax=2 DiffMx= 0.00D+00
 G2DrvN: will do   17 centers at a time, making    1 passes doing MaxLOS=2.
 FoFDir/FoFCou used for L=0 through L=2.
 DoAtom=TTTTTTTTTTTTTTTT
          Differentiating once with respect to electric field.
                with respect to dipole field.
          Differentiating once with respect to nuclear coordinates.
 Symmetry not used in FoFDir.
 MinBra= 0 MaxBra= 2 Meth= 1.
 IRaf=       0 NMat=  51 IRICut=      51 DoRegI=T DoRafI=T ISym2E= 0 JSym2E=0.
          There are  51 degrees of freedom in the 1st order CPHF.
    48 vectors were produced by pass  0.
 AX will form  48 AO Fock derivatives at one time.
    48 vectors were produced by pass  1.
    48 vectors were produced by pass  2.
    48 vectors were produced by pass  3.
    48 vectors were produced by pass  4.
    48 vectors were produced by pass  5.
    26 vectors were produced by pass  6.
     5 vectors were produced by pass  7.
     3 vectors were produced by pass  8.
     1 vectors were produced by pass  9.
 Inv2:  IOpt= 1 Iter= 1 AM= 2.60D-15 Conv= 1.00D-12.
 Inverted reduced A of dimension  323 with in-core refinement.
 Isotropic polarizability for W=    0.000000       82.33 Bohr**3.
 End of Minotr Frequency-dependent properties file   721 does not exist.

 **********************************************************************

            Population analysis using the SCF density.

 **********************************************************************

 Alpha  occ. eigenvalues --  -19.16064 -19.15185 -19.14839 -10.23876 -10.22689
 Alpha  occ. eigenvalues --  -10.19476 -10.17695  -1.07306  -1.05207  -0.94771
 Alpha  occ. eigenvalues --   -0.80959  -0.68124  -0.67114  -0.60293  -0.53601
 Alpha  occ. eigenvalues --   -0.50226  -0.48069  -0.46629  -0.45198  -0.43021
 Alpha  occ. eigenvalues --   -0.41162  -0.39937  -0.39572  -0.36273  -0.35024
 Alpha  occ. eigenvalues --   -0.34494  -0.31902  -0.26254  -0.15636
 Alpha virt. eigenvalues --   -0.09611   0.04302   0.04871   0.07293   0.07969
 Alpha virt. eigenvalues --    0.08940   0.10386   0.12103   0.13290   0.15734
 Alpha virt. eigenvalues --    0.17935   0.19446   0.21195   0.24233   0.25015
 Alpha virt. eigenvalues --    0.32319   0.34738   0.36137   0.37280   0.38317
 Alpha virt. eigenvalues --    0.40985   0.43617   0.44511   0.48459   0.49589
 Alpha virt. eigenvalues --    0.50699   0.51826   0.54344   0.54964   0.55601
 Alpha virt. eigenvalues --    0.57383   0.57937   0.60421   0.61171   0.62420
 Alpha virt. eigenvalues --    0.63928   0.66832   0.73097   0.76203   0.80587
 Alpha virt. eigenvalues --    0.81529   0.85769   0.87867   0.91736   0.92782
 Alpha virt. eigenvalues --    0.96845   1.01063   1.02378   1.03809   1.07458
 Alpha virt. eigenvalues --    1.16611   1.21464   1.22524   1.24814   1.31792
 Alpha virt. eigenvalues --    1.32458   1.37545   1.38883   1.42208   1.42949
 Alpha virt. eigenvalues --    1.44360   1.45298   1.47339   1.47555   1.51438
 Alpha virt. eigenvalues --    1.53943   1.55684   1.56785   1.57463   1.59640
 Alpha virt. eigenvalues --    1.63437   1.64407   1.69546   1.70660   1.72254
 Alpha virt. eigenvalues --    1.74075   1.76684   1.82068   1.83448   1.84855
 Alpha virt. eigenvalues --    1.91578   1.95665   1.99156   2.02577   2.03781
 Alpha virt. eigenvalues --    2.05919   2.10745   2.15812   2.18261   2.22723
 Alpha virt. eigenvalues --    2.26417   2.33734   2.38108   2.39113   2.41461
 Alpha virt. eigenvalues --    2.46651   2.49125   2.49500   2.51180   2.53892
 Alpha virt. eigenvalues --    2.54940   2.55622   2.56728   2.60622   2.65600
 Alpha virt. eigenvalues --    2.66885   2.70914   2.78228   2.80176   2.83068
 Alpha virt. eigenvalues --    2.88740   2.91805   2.95474   2.98501   3.03721
 Alpha virt. eigenvalues --    3.06435   3.07227   3.16125   3.19244   3.22355
 Alpha virt. eigenvalues --    3.23499   3.27046   3.37372   3.41012   3.48170
 Alpha virt. eigenvalues --    3.74673   3.77004   3.77682   3.81295   3.82109
 Alpha virt. eigenvalues --    3.84357   3.90664   4.01753   4.19182   4.28004
 Alpha virt. eigenvalues --    4.80237   4.82460   4.85459   4.90146   5.04368
 Alpha virt. eigenvalues --    5.27267   5.44124   5.50778   5.74816  23.73020
 Alpha virt. eigenvalues --   23.77568  23.84273  23.91934  49.80248  49.84335
 Alpha virt. eigenvalues --   49.90720
  Beta  occ. eigenvalues --  -19.15552 -19.14708 -19.14433 -10.22965 -10.22617
  Beta  occ. eigenvalues --  -10.19557 -10.17686  -1.06357  -1.04110  -0.93860
  Beta  occ. eigenvalues --   -0.80524  -0.67514  -0.66057  -0.59917  -0.53004
  Beta  occ. eigenvalues --   -0.49192  -0.47341  -0.46094  -0.44504  -0.42712
  Beta  occ. eigenvalues --   -0.40577  -0.39316  -0.38113  -0.35627  -0.34607
  Beta  occ. eigenvalues --   -0.33386  -0.31302  -0.25765
  Beta virt. eigenvalues --   -0.06999  -0.03773   0.04413   0.05065   0.07461
  Beta virt. eigenvalues --    0.08063   0.09209   0.10632   0.12280   0.13385
  Beta virt. eigenvalues --    0.16067   0.18333   0.19826   0.21259   0.24417
  Beta virt. eigenvalues --    0.25944   0.32496   0.35220   0.36555   0.37841
  Beta virt. eigenvalues --    0.38624   0.41483   0.43971   0.46786   0.48776
  Beta virt. eigenvalues --    0.50189   0.51160   0.52231   0.54452   0.55262
  Beta virt. eigenvalues --    0.55783   0.57478   0.58151   0.60607   0.61298
  Beta virt. eigenvalues --    0.62859   0.64252   0.67192   0.73970   0.76772
  Beta virt. eigenvalues --    0.81030   0.82027   0.86042   0.88294   0.92280
  Beta virt. eigenvalues --    0.93254   0.97318   1.01459   1.02802   1.04243
  Beta virt. eigenvalues --    1.07823   1.17006   1.22282   1.23385   1.25884
  Beta virt. eigenvalues --    1.31977   1.32790   1.37840   1.39011   1.42800
  Beta virt. eigenvalues --    1.43281   1.44569   1.45448   1.47677   1.47921
  Beta virt. eigenvalues --    1.51677   1.54179   1.56005   1.57138   1.57830
  Beta virt. eigenvalues --    1.60377   1.64239   1.64565   1.69712   1.71132
  Beta virt. eigenvalues --    1.72712   1.74334   1.77224   1.82234   1.84446
  Beta virt. eigenvalues --    1.85877   1.92010   1.95826   1.99373   2.02859
  Beta virt. eigenvalues --    2.04170   2.06111   2.10990   2.16150   2.18528
  Beta virt. eigenvalues --    2.23288   2.26663   2.33862   2.38177   2.39351
  Beta virt. eigenvalues --    2.41578   2.46767   2.49418   2.49719   2.51423
  Beta virt. eigenvalues --    2.54111   2.55544   2.55796   2.57196   2.61143
  Beta virt. eigenvalues --    2.65881   2.67396   2.73027   2.78769   2.80663
  Beta virt. eigenvalues --    2.83435   2.89425   2.92363   2.96520   2.98964
  Beta virt. eigenvalues --    3.04656   3.07071   3.07802   3.16749   3.20275
  Beta virt. eigenvalues --    3.23393   3.24426   3.27608   3.37947   3.42178
  Beta virt. eigenvalues --    3.48670   3.75121   3.77219   3.77753   3.81717
  Beta virt. eigenvalues --    3.82472   3.84770   3.91170   4.02176   4.19658
  Beta virt. eigenvalues --    4.28206   4.81610   4.83194   4.87005   4.90554
  Beta virt. eigenvalues --    5.05930   5.27797   5.44673   5.51306   5.75323
  Beta virt. eigenvalues --   23.73700  23.77682  23.84486  23.91971  49.80738
  Beta virt. eigenvalues --   49.84859  49.91136
          Condensed to atoms (all electrons):
              1          2          3          4          5          6
     1  C    5.374488   0.288810   0.256464   0.348521  -0.058080   0.013041
     2  C    0.288810   4.929683  -0.039633  -0.051890   0.003371   0.000209
     3  C    0.256464  -0.039633   4.841946  -0.076340   0.303351  -0.057298
     4  C    0.348521  -0.051890  -0.076340   5.030613  -0.005347   0.000351
     5  O   -0.058080   0.003371   0.303351  -0.005347   8.065500   0.011760
     6  O    0.013041   0.000209  -0.057298   0.000351   0.011760   8.108873
     7  O   -0.057282   0.003733   0.004601   0.345909   0.001477  -0.036784
     8  H    0.365919  -0.021942  -0.066564  -0.057299   0.005485   0.005316
     9  H   -0.038877   0.403182  -0.010225  -0.004758  -0.000026   0.000037
    10  H   -0.028868   0.397791   0.008903   0.001972  -0.000254  -0.000025
    11  H   -0.028734   0.399525  -0.004751   0.006926   0.000110  -0.000011
    12  H   -0.040689  -0.002901   0.401858   0.005669  -0.021905   0.004527
    13  H   -0.063064  -0.000312   0.364593   0.007748  -0.041076   0.006455
    14  H   -0.069391  -0.001662   0.000061   0.419584  -0.000226  -0.000368
    15  H    0.000498  -0.000010   0.000750  -0.001111   0.001522   0.270266
    16  H    0.002993  -0.000407   0.004167  -0.061381  -0.000489   0.072757
              7          8          9         10         11         12
     1  C   -0.057282   0.365919  -0.038877  -0.028868  -0.028734  -0.040689
     2  C    0.003733  -0.021942   0.403182   0.397791   0.399525  -0.002901
     3  C    0.004601  -0.066564  -0.010225   0.008903  -0.004751   0.401858
     4  C    0.345909  -0.057299  -0.004758   0.001972   0.006926   0.005669
     5  O    0.001477   0.005485  -0.000026  -0.000254   0.000110  -0.021905
     6  O   -0.036784   0.005316   0.000037  -0.000025  -0.000011   0.004527
     7  O    7.760966   0.004305  -0.000101  -0.000064  -0.000190  -0.000117
     8  H    0.004305   0.630101   0.010772  -0.012757  -0.007690  -0.006486
     9  H   -0.000101   0.010772   0.581460  -0.033605  -0.029341  -0.001886
    10  H   -0.000064  -0.012757  -0.033605   0.572895  -0.024844   0.000562
    11  H   -0.000190  -0.007690  -0.029341  -0.024844   0.569702   0.005612
    12  H   -0.000117  -0.006486  -0.001886   0.000562   0.005612   0.559987
    13  H   -0.000297   0.015771   0.006109  -0.001446  -0.000544  -0.031254
    14  H   -0.033287   0.006301   0.003039   0.000517  -0.000170  -0.000400
    15  H    0.002128  -0.000552  -0.000004   0.000008  -0.000003  -0.000709
    16  H    0.311705  -0.003774  -0.000117   0.000170   0.000035  -0.000162
             13         14         15         16
     1  C   -0.063064  -0.069391   0.000498   0.002993
     2  C   -0.000312  -0.001662  -0.000010  -0.000407
     3  C    0.364593   0.000061   0.000750   0.004167
     4  C    0.007748   0.419584  -0.001111  -0.061381
     5  O   -0.041076  -0.000226   0.001522  -0.000489
     6  O    0.006455  -0.000368   0.270266   0.072757
     7  O   -0.000297  -0.033287   0.002128   0.311705
     8  H    0.015771   0.006301  -0.000552  -0.003774
     9  H    0.006109   0.003039  -0.000004  -0.000117
    10  H   -0.001446   0.000517   0.000008   0.000170
    11  H   -0.000544  -0.000170  -0.000003   0.000035
    12  H   -0.031254  -0.000400  -0.000709  -0.000162
    13  H    0.638710   0.000916  -0.000103  -0.002478
    14  H    0.000916   0.552944   0.000008   0.003931
    15  H   -0.000103   0.000008   0.461324  -0.003364
    16  H   -0.002478   0.003931  -0.003364   0.388043
 Mulliken atomic charges:
              1
     1  C   -0.265749
     2  C   -0.307546
     3  C    0.068115
     4  C    0.090832
     5  O   -0.265176
     6  O   -0.399105
     7  O   -0.306703
     8  H    0.133093
     9  H    0.114340
    10  H    0.119047
    11  H    0.114365
    12  H    0.128293
    13  H    0.100270
    14  H    0.118202
    15  H    0.269351
    16  H    0.288371
 Sum of Mulliken charges=   0.00000
 Atomic charges with hydrogens summed into heavy atoms:
              1
     1  C   -0.132656
     2  C    0.040206
     3  C    0.296678
     4  C    0.209034
     5  O   -0.265176
     6  O   -0.129755
     7  O   -0.018331
     8  H    0.000000
     9  H    0.000000
    10  H    0.000000
    11  H    0.000000
    12  H    0.000000
    13  H    0.000000
    14  H    0.000000
    15  H    0.000000
    16  H    0.000000
 Sum of Mulliken charges=   0.00000
          Atomic-Atomic Spin Densities.
              1          2          3          4          5          6
     1  C   -0.037856  -0.004741  -0.032014   0.045813  -0.000789   0.001319
     2  C   -0.004741   0.017486   0.007674  -0.016907  -0.000117  -0.000047
     3  C   -0.032014   0.007674   0.145039  -0.045126   0.015613  -0.010274
     4  C    0.045813  -0.016907  -0.045126   0.750465  -0.006430   0.006673
     5  O   -0.000789  -0.000117   0.015613  -0.006430   0.246755  -0.109557
     6  O    0.001319  -0.000047  -0.010274   0.006673  -0.109557   0.244522
     7  O   -0.004333   0.000382   0.002735  -0.118337   0.000550   0.000724
     8  H   -0.012409   0.006922  -0.036167  -0.024214  -0.005275   0.006935
     9  H    0.002852  -0.002307  -0.006558   0.001802  -0.000021   0.000062
    10  H    0.001068  -0.004910   0.003159   0.006709   0.000015  -0.000032
    11  H    0.000322  -0.000451   0.001611   0.000137  -0.000044  -0.000016
    12  H   -0.000405   0.000425   0.005039  -0.000511  -0.000117  -0.000208
    13  H    0.009259  -0.001903  -0.035156   0.016538  -0.007485   0.007133
    14  H    0.000728   0.000642  -0.003140  -0.000316  -0.000123   0.000148
    15  H   -0.000048   0.000003   0.000742  -0.000827   0.007948  -0.006604
    16  H    0.000358  -0.000076   0.005539  -0.007828   0.005264  -0.003982
              7          8          9         10         11         12
     1  C   -0.004333  -0.012409   0.002852   0.001068   0.000322  -0.000405
     2  C    0.000382   0.006922  -0.002307  -0.004910  -0.000451   0.000425
     3  C    0.002735  -0.036167  -0.006558   0.003159   0.001611   0.005039
     4  C   -0.118337  -0.024214   0.001802   0.006709   0.000137  -0.000511
     5  O    0.000550  -0.005275  -0.000021   0.000015  -0.000044  -0.000117
     6  O    0.000724   0.006935   0.000062  -0.000032  -0.000016  -0.000208
     7  O    0.221768   0.005410  -0.000086  -0.000192  -0.000001   0.000004
     8  H    0.005410   0.097836   0.002673  -0.006057  -0.001441  -0.001499
     9  H   -0.000086   0.002673   0.003302  -0.003008  -0.000553  -0.000330
    10  H   -0.000192  -0.006057  -0.003008   0.005824   0.001279   0.000129
    11  H   -0.000001  -0.001441  -0.000553   0.001279  -0.001757  -0.000037
    12  H    0.000004  -0.001499  -0.000330   0.000129  -0.000037  -0.009246
    13  H   -0.001593   0.004937   0.001801  -0.000498  -0.000239  -0.001859
    14  H    0.000150   0.002764   0.001313  -0.001549  -0.000147  -0.000009
    15  H   -0.000005  -0.001198  -0.000009   0.000007   0.000003   0.000047
    16  H   -0.000459  -0.005698  -0.000140   0.000181   0.000020   0.000066
             13         14         15         16
     1  C    0.009259   0.000728  -0.000048   0.000358
     2  C   -0.001903   0.000642   0.000003  -0.000076
     3  C   -0.035156  -0.003140   0.000742   0.005539
     4  C    0.016538  -0.000316  -0.000827  -0.007828
     5  O   -0.007485  -0.000123   0.007948   0.005264
     6  O    0.007133   0.000148  -0.006604  -0.003982
     7  O   -0.001593   0.000150  -0.000005  -0.000459
     8  H    0.004937   0.002764  -0.001198  -0.005698
     9  H    0.001801   0.001313  -0.000009  -0.000140
    10  H   -0.000498  -0.001549   0.000007   0.000181
    11  H   -0.000239  -0.000147   0.000003   0.000020
    12  H   -0.001859  -0.000009   0.000047   0.000066
    13  H    0.025574   0.000962  -0.000706  -0.001959
    14  H    0.000962  -0.032712  -0.000037  -0.001491
    15  H   -0.000706  -0.000037  -0.001316   0.002312
    16  H   -0.001959  -0.001491   0.002312   0.011713
 Mulliken atomic spin densities:
              1
     1  C   -0.030876
     2  C    0.002076
     3  C    0.018717
     4  C    0.607643
     5  O    0.146188
     6  O    0.136798
     7  O    0.106716
     8  H    0.033519
     9  H    0.000793
    10  H    0.002126
    11  H   -0.001314
    12  H   -0.008510
    13  H    0.014808
    14  H   -0.032816
    15  H    0.000313
    16  H    0.003820
 Sum of Mulliken spin densities=   1.00000
 APT atomic charges:
              1
     1  C    0.122706
     2  C    0.136141
     3  C   -0.107328
     4  C    0.025426
     5  O   -0.272090
     6  O   -0.092555
     7  O   -0.185397
     8  H   -0.045069
     9  H   -0.018372
    10  H    0.002925
    11  H   -0.014272
    12  H    0.140959
    13  H   -0.006318
    14  H    0.047147
    15  H    0.311255
    16  H   -0.045159
 Sum of APT charges=   0.00000
 APT Atomic charges with hydrogens summed into heavy atoms:
              1
     1  C    0.077637
     2  C    0.106423
     3  C    0.027312
     4  C    0.072573
     5  O   -0.272090
     6  O    0.218701
     7  O   -0.230557
     8  H    0.000000
     9  H    0.000000
    10  H    0.000000
    11  H    0.000000
    12  H    0.000000
    13  H    0.000000
    14  H    0.000000
    15  H    0.000000
    16  H    0.000000
 Sum of APT charges=   0.00000
 Electronic spatial extent (au):  <R**2>=   858.2515
 Charge=     0.0000 electrons
 Dipole moment (field-independent basis, Debye):
    X=     1.4518    Y=    -0.6422    Z=    -0.6534  Tot=     1.7167
 Quadrupole moment (field-independent basis, Debye-Ang):
   XX=   -38.3720   YY=   -47.1638   ZZ=   -42.8687
   XY=    -1.0493   XZ=     3.4714   YZ=    -0.3335
 Traceless Quadrupole moment (field-independent basis, Debye-Ang):
   XX=     4.4295   YY=    -4.3623   ZZ=    -0.0672
   XY=    -1.0493   XZ=     3.4714   YZ=    -0.3335
 Octapole moment (field-independent basis, Debye-Ang**2):
  XXX=   -32.5567  YYY=    -7.5886  ZZZ=    -2.5596  XYY=     4.0744
  XXY=     4.6935  XXZ=   -10.4325  XZZ=    -5.1922  YZZ=     0.7902
  YYZ=     0.3830  XYZ=     1.6361
 Hexadecapole moment (field-independent basis, Debye-Ang**3):
 XXXX=  -538.1107 YYYY=  -407.9110 ZZZZ=   -80.5351 XXXY=     3.4300
 XXXZ=    32.5592 YYYX=    -1.6966 YYYZ=    -2.2945 ZZZX=     6.5722
 ZZZY=    -5.1181 XXYY=  -164.3334 XXZZ=  -110.8933 YYZZ=   -79.0112
 XXYZ=     1.4237 YYXZ=     2.6725 ZZXY=     0.1486
 N-N= 3.270558425635D+02 E-N=-1.553990917156D+03  KE= 3.821881030404D+02
  Exact polarizability: 106.232  25.306  92.936   4.420   2.536  47.810
 Approx polarizability: 189.803  77.083 190.874  12.999  12.816  70.682
                          Isotropic Fermi Contact Couplings
        Atom                 a.u.       MegaHertz       Gauss      10(-4) cm-1
     1  C(13)             -0.02230     -25.06990      -8.94556      -8.36242
     2  C(13)              0.00211       2.37297       0.84673       0.79154
     3  C(13)              0.03830      43.06130      15.36534      14.36370
     4  C(13)              0.04259      47.87826      17.08415      15.97047
     5  O(17)              0.13548     -82.12668     -29.30484     -27.39451
     6  O(17)              0.16214     -98.29066     -35.07255     -32.78623
     7  O(17)              0.02958     -17.92836      -6.39729      -5.98026
     8  H(1)               0.01008      45.03438      16.06939      15.02185
     9  H(1)              -0.00027      -1.22812      -0.43822      -0.40966
    10  H(1)              -0.00015      -0.66351      -0.23676      -0.22132
    11  H(1)              -0.00045      -1.99535      -0.71199      -0.66558
    12  H(1)              -0.00363     -16.23861      -5.79434      -5.41662
    13  H(1)               0.00091       4.07764       1.45500       1.36015
    14  H(1)              -0.00965     -43.14966     -15.39687     -14.39318
    15  H(1)              -0.00245     -10.97248      -3.91526      -3.66003
    16  H(1)               0.00180       8.05925       2.87574       2.68828
 --------------------------------------------------------
       Center         ----  Spin Dipole Couplings  ----
                      3XX-RR        3YY-RR        3ZZ-RR
 --------------------------------------------------------
     1   Atom       -0.002583      0.013335     -0.010752
     2   Atom        0.001643      0.001433     -0.003076
     3   Atom        0.028377     -0.001075     -0.027302
     4   Atom       -0.269304     -0.234226      0.503530
     5   Atom        0.043510      0.172496     -0.216006
     6   Atom        0.018541      0.262084     -0.280625
     7   Atom       -0.327070     -0.291951      0.619021
     8   Atom       -0.004618      0.005379     -0.000762
     9   Atom        0.003280     -0.000046     -0.003234
    10   Atom        0.006604     -0.002226     -0.004378
    11   Atom        0.001063      0.001053     -0.002116
    12   Atom        0.001259      0.007297     -0.008555
    13   Atom       -0.004096      0.003196      0.000900
    14   Atom        0.004386     -0.012953      0.008567
    15   Atom        0.016596     -0.010876     -0.005719
    16   Atom        0.016927     -0.001349     -0.015578
 --------------------------------------------------------
                        XY            XZ            YZ
 --------------------------------------------------------
     1   Atom       -0.003412      0.002741      0.012446
     2   Atom       -0.007766      0.000708     -0.002279
     3   Atom        0.034292     -0.004498     -0.003719
     4   Atom        0.123967     -0.301603     -0.349112
     5   Atom       -0.474556     -0.215268      0.310331
     6   Atom       -0.413987     -0.075101      0.103649
     7   Atom        0.031852     -0.124064     -0.217433
     8   Atom        0.001174     -0.002473      0.007812
     9   Atom       -0.005121      0.001957     -0.001135
    10   Atom       -0.003967     -0.002759      0.000847
    11   Atom       -0.003291     -0.001008      0.000894
    12   Atom       -0.001517      0.003256      0.000053
    13   Atom        0.003146      0.002008     -0.003422
    14   Atom        0.042566      0.019494      0.008551
    15   Atom       -0.000519      0.022889      0.006116
    16   Atom        0.024750      0.004970      0.003790
 --------------------------------------------------------


 ---------------------------------------------------------------------------------
              Anisotropic Spin Dipole Couplings in Principal Axis System
 ---------------------------------------------------------------------------------

       Atom             a.u.   MegaHertz   Gauss  10(-4) cm-1        Axes

              Baa    -0.0171    -2.290    -0.817    -0.764 -0.2592 -0.3907  0.8832
     1 C(13)  Bbb    -0.0018    -0.235    -0.084    -0.078  0.9608 -0.0113  0.2770
              Bcc     0.0188     2.525     0.901     0.842 -0.0983  0.9204  0.3783
 
              Baa    -0.0066    -0.888    -0.317    -0.296  0.6327  0.7026  0.3257
     2 C(13)  Bbb    -0.0030    -0.408    -0.145    -0.136 -0.3436 -0.1222  0.9311
              Bcc     0.0097     1.296     0.462     0.432 -0.6940  0.7010 -0.1641
 
              Baa    -0.0278    -3.734    -1.332    -1.245 -0.0217  0.1649  0.9861
     3 C(13)  Bbb    -0.0236    -3.163    -1.129    -1.055 -0.5537  0.8192 -0.1492
              Bcc     0.0514     6.897     2.461     2.301  0.8324  0.5492 -0.0735
 
              Baa    -0.3770   -50.592   -18.052   -16.876 -0.7053  0.7078  0.0390
     4 C(13)  Bbb    -0.3701   -49.667   -17.723   -16.567  0.6397  0.6118  0.4653
              Bcc     0.7471   100.259    35.775    33.443 -0.3055 -0.3532  0.8843
 
              Baa    -0.4068    29.439    10.504     9.820  0.3989  0.6650 -0.6314
     5 O(17)  Bbb    -0.3284    23.765     8.480     7.927  0.6924  0.2329  0.6828
              Bcc     0.7353   -53.204   -18.984   -17.747 -0.6012  0.7096  0.3675
 
              Baa    -0.2999    21.698     7.742     7.238 -0.0905 -0.2447  0.9654
     6 O(17)  Bbb    -0.2908    21.040     7.508     7.018  0.8005  0.5588  0.2167
              Bcc     0.5906   -42.738   -15.250   -14.256 -0.5925  0.7924  0.1453
 
              Baa    -0.3460    25.037     8.934     8.352  0.7924 -0.6089 -0.0353
     7 O(17)  Bbb    -0.3384    24.490     8.739     8.169  0.5969  0.7622  0.2504
              Bcc     0.6845   -49.527   -17.673   -16.521 -0.1256 -0.2195  0.9675
 
              Baa    -0.0082    -4.353    -1.553    -1.452  0.6081 -0.4357  0.6636
     8 H(1)   Bbb    -0.0026    -1.364    -0.487    -0.455  0.7933  0.3634 -0.4884
              Bcc     0.0107     5.717     2.040     1.907 -0.0283  0.8235  0.5667
 
              Baa    -0.0040    -2.116    -0.755    -0.706 -0.5494 -0.5308  0.6453
     9 H(1)   Bbb    -0.0035    -1.872    -0.668    -0.624  0.2598  0.6255  0.7357
              Bcc     0.0075     3.988     1.423     1.330  0.7942 -0.5718  0.2058
 
              Baa    -0.0050    -2.688    -0.959    -0.897  0.2501  0.0619  0.9662
    10 H(1)   Bbb    -0.0037    -1.984    -0.708    -0.662  0.3215  0.9360 -0.1432
              Bcc     0.0088     4.671     1.667     1.558  0.9133 -0.3464 -0.2142
 
              Baa    -0.0024    -1.290    -0.460    -0.430  0.4031  0.1496  0.9029
    11 H(1)   Bbb    -0.0022    -1.174    -0.419    -0.392  0.5948  0.7069 -0.3827
              Bcc     0.0046     2.464     0.879     0.822  0.6955 -0.6913 -0.1960
 
              Baa    -0.0096    -5.096    -1.818    -1.700 -0.2921 -0.0293  0.9560
    12 H(1)   Bbb     0.0019     0.994     0.355     0.331  0.9226  0.2547  0.2897
              Bcc     0.0077     4.103     1.464     1.369 -0.2520  0.9666 -0.0474
 
              Baa    -0.0066    -3.534    -1.261    -1.179  0.8216 -0.4035 -0.4027
    13 H(1)   Bbb     0.0007     0.394     0.141     0.132  0.5464  0.3561  0.7580
              Bcc     0.0059     3.140     1.120     1.047  0.1625  0.8429 -0.5130
 
              Baa    -0.0483   -25.797    -9.205    -8.605 -0.6484  0.7535  0.1089
    14 H(1)   Bbb    -0.0012    -0.620    -0.221    -0.207 -0.2803 -0.3693  0.8861
              Bcc     0.0495    26.417     9.426     8.812  0.7078  0.5440  0.4506
 
              Baa    -0.0226   -12.059    -4.303    -4.022 -0.4603 -0.4265  0.7786
    15 H(1)   Bbb    -0.0085    -4.530    -1.616    -1.511 -0.2807  0.9020  0.3281
              Bcc     0.0311    16.589     5.919     5.533  0.8422  0.0675  0.5349
 
              Baa    -0.0186    -9.938    -3.546    -3.315 -0.5566  0.8227 -0.1156
    16 H(1)   Bbb    -0.0163    -8.707    -3.107    -2.904 -0.1666  0.0258  0.9857
              Bcc     0.0349    18.645     6.653     6.219  0.8139  0.5679  0.1227
 

 ---------------------------------------------------------------------------------

 Use density number 0.
 Entering OneElI...
 Calculate overlap and kinetic energy integrals
    NBasis = 187  MinDer = 2  MaxDer = 2
 Requested accuracy = 0.1000D-12
 PrsmSu:  NPrtUS=   1 ThrOK=F
 PRISM was handed   130760300 working-precision words and  2545 shell-pairs
 Entering OneElI...
 Calculate potential energy integrals
    NBasis = 187  MinDer = 2  MaxDer = 2
 Requested accuracy = 0.1000D-12
 PrsmSu:  NPrtUS=   8 ThrOK=T
 PRISM was handed    16301981 working-precision words and  2361 shell-pairs
 PRISM was handed    16301981 working-precision words and  2361 shell-pairs
 PRISM was handed    16301981 working-precision words and  2361 shell-pairs
 PRISM was handed    16301981 working-precision words and  2361 shell-pairs
 PRISM was handed    16301981 working-precision words and  2361 shell-pairs
 PRISM was handed    16301981 working-precision words and  2361 shell-pairs
 PRISM was handed    16301981 working-precision words and  2361 shell-pairs
 PRISM was handed    16301981 working-precision words and  2361 shell-pairs
 Polarizability after L701:
                1             2             3
      1  0.106232D+03
      2  0.253059D+02  0.929364D+02
      3  0.442041D+01  0.253558D+01  0.478096D+02
 Dipole Derivatives after L701:
               1            2            3            4            5
      1 0.251185D+00 0.806200D-01-0.226957D-01 0.100127D+00 0.123365D+00
      2 0.108732D+00 0.242791D-01 0.519960D-01 0.517031D-01 0.183245D+00
      3-0.265613D-01 0.962877D-02 0.926543D-01 0.188954D-02 0.136547D-01
               6            7            8            9           10
      1 0.553287D-01-0.428946D+00-0.201029D+00-0.162310D+00-0.693816D+00
      2 0.781670D-02-0.542921D+00-0.333486D+00-0.296337D+00-0.155746D+01
      3 0.125052D+00 0.431490D-01 0.272366D-01 0.440448D+00 0.152601D+00
              11           12           13           14           15
      1-0.486506D-01-0.253099D+00 0.136868D+01-0.217402D+01-0.280039D+00
      2 0.780121D+00-0.247712D+00 0.115286D+01-0.182841D+01-0.299641D+00
      3 0.158158D+00-0.100265D-01 0.224466D-01-0.728349D-01-0.356539D+00
              16           17           18           19           20
      1-0.167989D+01 0.246102D+01 0.361956D+00 0.730172D+00-0.954282D-01
      2-0.942796D+00 0.166950D+01 0.385887D+00 0.181807D+01-0.995373D+00
      3-0.146767D-01 0.150828D+00-0.267281D+00-0.560310D-02-0.489655D-01
              21           22           23           24           25
      1 0.289485D+00-0.720492D-01 0.893771D-01 0.750945D-01 0.359708D-01
      2 0.435619D+00-0.457592D-01 0.648331D-01 0.722799D-01 0.884038D-02
      3-0.290991D+00-0.777532D-01-0.247248D-01-0.127991D+00-0.666406D-02
              26           27           28           29           30
      1-0.158718D-01-0.838048D-01 0.105772D-01-0.121685D+00 0.395622D-01
      2 0.451860D-01 0.138161D-01-0.281260D-02-0.351941D-01 0.503679D-01
      3-0.422995D-02-0.136273D+00 0.391840D-01 0.707444D-01 0.333928D-01
              31           32           33           34           35
      1-0.731072D-02 0.995975D-01 0.150566D-01 0.219067D+00 0.176009D+00
      2-0.289435D-01-0.718257D-01-0.691912D-01 0.291247D+00 0.137123D+00
      3-0.585470D-02-0.756518D-01 0.363211D-01 0.344108D-02-0.190065D-01
              36           37           38           39           40
      1 0.271543D-01 0.330328D-01-0.876131D-02 0.606199D-01-0.278817D-01
      2 0.430668D-01 0.474338D-01 0.135447D+00 0.112618D+00-0.296367D-01
      3 0.666867D-01 0.114815D-01-0.644162D-01-0.187436D+00-0.650126D-01
              41           42           43           44           45
      1 0.317359D-01-0.300738D-01 0.409275D+00 0.911739D-01 0.472758D-01
      2 0.828258D-01-0.747010D-01 0.776964D-01 0.270606D+00 0.125190D-01
      3-0.558781D-01 0.864978D-01-0.533974D-01-0.418394D-01 0.253886D+00
              46           47           48
      1-0.248193D+00-0.487453D+00-0.139511D+00
      2-0.406261D+00-0.128884D+00-0.198404D+00
      3-0.186693D-01-0.227036D-01 0.241600D+00
 Hessian after L701:
                1             2             3             4             5
      1  0.141996D+02
      2  0.137289D+00  0.134170D+02
      3  0.860591D+00 -0.501995D+00  0.188202D+02
      4 -0.881206D+00 -0.109957D+01  0.445139D+00  0.113094D+02
      5 -0.109570D+01 -0.536130D+01 -0.146108D+00  0.659491D+00  0.144205D+02
      6  0.460789D+00 -0.149684D+00 -0.546027D+01 -0.550008D-01  0.575191D-01
      7 -0.314742D+01  0.251157D+01 -0.135232D+01  0.807037D-01  0.185989D+00
      8  0.261340D+01 -0.267026D+01 -0.151347D+01  0.528713D-01 -0.438283D-01
      9 -0.139137D+01 -0.153176D+01 -0.475154D+01 -0.343532D-01 -0.270654D-01
     10 -0.661141D+01 -0.140547D+01 -0.309115D+00 -0.448177D-01 -0.146417D+00
     11 -0.162240D+01 -0.112559D+01  0.214432D+01 -0.308450D-01  0.122175D+00
     12 -0.362384D+00  0.215325D+01 -0.679870D+01 -0.536698D-01 -0.565151D-02
     13  0.700806D-01  0.242805D+00 -0.366598D+00  0.335181D+00  0.143033D+00
     14  0.249432D+00  0.154492D+00 -0.174450D+00  0.114484D+00 -0.130945D+00
     15 -0.496809D+00 -0.230223D+00 -0.711808D-02  0.302070D-01  0.972691D-02
     16  0.659156D+00 -0.920550D-01  0.813365D-01  0.130737D+00 -0.130776D-01
     17 -0.886141D-01 -0.368190D+00  0.558318D-02 -0.226843D-01 -0.925561D-01
     18  0.454511D-01  0.818953D-02 -0.408144D+00 -0.171133D-01 -0.158558D-02
     19 -0.225420D+00 -0.108367D+00 -0.896844D-01  0.155049D+00 -0.285908D+00
     20 -0.107876D+00  0.508355D+00  0.383294D-01 -0.266326D+00  0.517283D-01
     21 -0.149862D+00  0.107010D+00  0.774947D-01 -0.115589D-01  0.916201D-02
     22 -0.457192D+01  0.486252D-01  0.699804D+00 -0.187602D-01  0.381926D-01
     23  0.581716D-01 -0.475693D+01  0.178881D+00  0.446503D-01  0.312255D-01
     24  0.931832D+00  0.188831D+00 -0.166321D+01 -0.178861D-01  0.281414D-01
     25  0.261250D-02  0.846619D-02 -0.891063D-01 -0.399329D+01 -0.430177D-01
     26  0.794996D-02  0.984154D-01  0.960873D-02 -0.401095D-01 -0.417004D+01
     27 -0.128697D-01 -0.640710D-02  0.103825D+00  0.639744D+00 -0.142760D+00
     28  0.165823D-01  0.656560D-02 -0.123314D-01 -0.311232D+01  0.121413D+01
     29  0.652074D-01  0.843704D-01 -0.326696D-01  0.103766D+01 -0.282325D+01
     30 -0.273797D-01 -0.219477D-01  0.638104D-01 -0.644256D+00 -0.792182D+00
     31 -0.775189D-02  0.522474D-01  0.629490D-02 -0.397662D+01 -0.671360D+00
     32 -0.161714D-01  0.788622D-01  0.314958D-01 -0.486533D+00 -0.202212D+01
     33 -0.126512D-01  0.254022D-01  0.580370D-01 -0.225531D+00  0.983813D+00
     34  0.918011D-01 -0.107806D+00  0.819094D-02 -0.411275D-02  0.115568D-01
     35 -0.594904D-01 -0.395097D-01 -0.384799D-02  0.560055D-01  0.245104D-01
     36  0.405701D-02  0.246785D-01  0.115801D+00  0.120654D-01  0.124978D-01
     37  0.163365D+00 -0.519336D-01  0.201801D+00  0.120548D-01  0.191342D-01
     38 -0.782888D-01  0.188898D+00  0.206092D+00  0.105006D-01 -0.292451D-01
     39  0.204107D+00  0.159004D+00 -0.223954D+00 -0.660200D-01 -0.261012D-01
     40  0.256903D+00 -0.109457D+00 -0.702495D-01 -0.268547D-01  0.523462D-02
     41 -0.118410D+00 -0.168912D+00 -0.273487D+00 -0.308889D-01  0.381621D-01
     42 -0.560825D-01 -0.246318D+00  0.103558D+00 -0.122149D-01  0.408352D-01
     43  0.668606D-01 -0.105162D-02  0.132399D-01  0.126364D-01  0.110767D-02
     44  0.834722D-02 -0.166231D-01  0.316942D-02  0.117680D-02 -0.492313D-02
     45  0.266057D-01 -0.139878D-02 -0.736612D-02  0.688209D-02  0.978140D-03
     46 -0.818270D-01 -0.318623D-01 -0.269920D-01  0.222125D-01 -0.223854D-01
     47  0.471608D-01 -0.230363D-01  0.285452D-01  0.123168D-03 -0.100486D-01
     48 -0.240282D-01  0.233740D-01 -0.223924D-01  0.356654D-02 -0.122025D-02
                6             7             8             9            10
      6  0.147988D+02
      7 -0.767066D-01  0.118404D+02
      8 -0.126938D-01 -0.267967D+01  0.177357D+02
      9 -0.114813D+00 -0.229664D+01 -0.386014D-01  0.188725D+02
     10 -0.929643D-01  0.132878D+00  0.127524D+00 -0.371635D-01  0.102612D+02
     11  0.341186D-02  0.201827D+00  0.187417D+00 -0.910655D-01  0.479810D+01
     12 -0.706870D-02 -0.495977D-01 -0.230574D+00  0.154463D+00 -0.163503D+01
     13  0.234838D-01 -0.347210D+00  0.156426D+01  0.415759D+01  0.221912D-01
     14  0.459590D-02  0.152621D+01 -0.925695D+01  0.804672D+00  0.105731D+00
     15 -0.170674D+00  0.415034D+01  0.777842D+00 -0.767037D+01 -0.323954D-01
     16 -0.150433D-01 -0.212555D+00 -0.171757D+00 -0.337995D+00  0.277329D+00
     17 -0.240232D-03 -0.177789D+00  0.182536D+00  0.582745D-01  0.554954D+00
     18 -0.901766D-01 -0.276627D+00  0.382942D-01 -0.705573D-01  0.136263D-01
     19 -0.154546D-01 -0.192571D+00 -0.113271D+00  0.101782D-01 -0.138730D+01
     20  0.138995D-01 -0.151670D+00  0.449528D+00 -0.108252D-01 -0.529013D+01
     21 -0.173943D+00  0.128556D-01 -0.151635D-01 -0.255980D+00  0.119580D+01
     22 -0.380646D-01  0.228499D+00 -0.451079D-01  0.998310D-01  0.178107D+00
     23  0.306766D-01 -0.143878D-01  0.152444D+00  0.173408D+00 -0.886131D-01
     24  0.743107D-01  0.418128D-01  0.187407D+00 -0.849136D-01 -0.944352D-01
     25  0.876492D+00 -0.301437D-01 -0.293848D-02 -0.142994D-01  0.108549D-01
     26 -0.190149D+00  0.113311D-01  0.784758D-02 -0.233055D-02 -0.163652D-01
     27 -0.157721D+01  0.132228D-01 -0.674789D-02  0.109504D-01  0.148309D-01
     28 -0.717855D+00  0.147990D+00  0.101410D+00 -0.608750D-01  0.335134D-01
     29 -0.751782D+00  0.105028D+00 -0.804455D-02 -0.292289D-01 -0.965020D-02
     30 -0.359932D+01 -0.683663D-01 -0.305123D-01 -0.310342D-01 -0.162875D-01
     31 -0.310943D+00 -0.297070D-02 -0.173868D-01  0.562756D-05  0.238089D-01
     32  0.974373D+00 -0.360004D-01 -0.256880D-03  0.785332D-02 -0.109617D+00
     33 -0.363878D+01 -0.256565D-01  0.132094D-01 -0.106535D-01 -0.364526D-01
     34  0.110816D-01 -0.392281D+01 -0.136350D+01 -0.154051D+00 -0.384530D-01
     35  0.269135D-02 -0.142488D+01 -0.220831D+01  0.301933D+00  0.806887D-02
     36 -0.404722D-01 -0.110390D+00  0.210158D+00 -0.467488D+01  0.294890D-02
     37 -0.586289D-01 -0.464743D+01 -0.191272D-01 -0.127449D-01 -0.638511D-01
     38 -0.133746D-01 -0.271627D-01 -0.455413D+01  0.411474D+00  0.161442D-01
     39  0.387120D-01 -0.542659D-01  0.646941D+00 -0.130974D+01  0.541932D-02
     40  0.531817D-02  0.692416D-02  0.509142D-01  0.174391D-01 -0.292208D+01
     41  0.318441D-01  0.447192D-01  0.484990D-01  0.214217D-01  0.135480D+01
     42 -0.241141D-01  0.162112D-01  0.198468D-01 -0.197535D-01  0.110882D+01
     43  0.210172D-02  0.750229D-01 -0.576726D-02  0.366645D-01  0.248564D-01
     44  0.224638D-03 -0.893445D-02 -0.281688D-01 -0.924279D-02  0.151034D-01
     45 -0.438924D-02  0.576898D-01 -0.657710D-02 -0.957479D-02  0.166253D-01
     46  0.139426D-02 -0.931496D-02 -0.918505D-01  0.177781D-01  0.103208D+00
     47 -0.131310D-02 -0.661854D-01  0.592558D-02 -0.389150D-01  0.858349D-01
     48 -0.105457D-01  0.184388D-01 -0.393591D-01 -0.340974D-01 -0.104226D+00
               11            12            13            14            15
     11  0.117992D+02
     12 -0.209539D+01  0.213824D+02
     13  0.175536D+00 -0.103698D-01  0.140100D+01
     14  0.127732D+00 -0.536294D-01 -0.209604D+00  0.827146D+01
     15 -0.710324D-02 -0.162580D+00 -0.309629D+01 -0.962176D+00  0.102747D+02
     16  0.397681D+00  0.911675D-02 -0.115144D+01 -0.191291D+01 -0.468470D+00
     17 -0.634942D-01  0.748960D-01 -0.211360D+01  0.151973D+00  0.328743D+00
     18  0.225697D-01 -0.233073D+00 -0.557045D+00  0.390919D+00 -0.225508D+01
     19 -0.497218D+01  0.121701D+01 -0.304157D+00  0.264854D+00  0.285340D-01
     20 -0.770112D+01 -0.602767D+00  0.220683D+00  0.556871D+00  0.996573D-01
     21 -0.604464D+00 -0.106570D+02 -0.459090D-02  0.122375D+00 -0.236718D+00
     22 -0.485598D-01 -0.456757D-01 -0.305231D-01  0.958080D-01  0.512370D-01
     23 -0.127772D+00 -0.118675D+00  0.918468D-01  0.467837D-01 -0.460305D-02
     24 -0.152275D+00  0.312063D+00 -0.310602D-01 -0.530679D-01 -0.114284D+00
     25  0.689791D-03 -0.240042D-01  0.303837D-01  0.114536D-01  0.168356D-01
     26 -0.218193D-01  0.187174D-01  0.971088D-02 -0.139704D-01  0.320781D-02
     27  0.704553D-02 -0.157636D-01  0.428313D-01  0.855429D-02 -0.800342D-03
     28 -0.520350D-01  0.195044D-01  0.211921D-01  0.129807D-01 -0.192446D-02
     29 -0.185171D-01 -0.739783D-02  0.276767D-01 -0.622121D-03 -0.178053D-02
     30  0.589433D-02 -0.502447D-01 -0.130543D-01 -0.540724D-02 -0.885295D-02
     31 -0.108334D+00 -0.309144D-01  0.537264D-01 -0.521058D-02 -0.512589D-02
     32  0.102324D+00  0.406579D-01 -0.381526D-01 -0.165545D-01  0.274931D-02
     33  0.454185D-01 -0.326098D-01 -0.240873D-01  0.158319D-02 -0.179230D-01
     34 -0.150161D-01  0.607564D-02 -0.818983D-02 -0.265221D-01 -0.586695D-01
     35  0.177604D+00 -0.548185D-02 -0.138620D+00  0.975572D-01  0.567647D-02
     36 -0.108712D-01 -0.430888D-01 -0.104812D+00  0.400836D-01 -0.337158D-01
     37  0.136231D-01  0.900026D-02 -0.201946D+00 -0.135472D+00 -0.167711D+00
     38  0.471808D-01  0.124582D-01 -0.840150D-01  0.104713D+00 -0.190059D-01
     39 -0.369879D-01 -0.729284D-01 -0.151636D+00 -0.565125D-01  0.492759D+00
     40  0.131069D+01  0.109849D+01  0.201152D-01  0.329615D-01  0.116441D-01
     41 -0.375303D+01  0.806231D+00  0.272310D-01  0.226377D-01  0.126603D-01
     42  0.788100D+00 -0.394765D+01  0.119168D-01  0.186291D-01 -0.977501D-02
     43  0.420698D-02 -0.133176D-02  0.901485D-01 -0.532463D-01  0.484790D-01
     44 -0.726574D-02  0.634323D-03  0.233302D-01 -0.110464D+00  0.705306D-02
     45 -0.496082D-03 -0.620005D-02  0.115957D+00 -0.582569D-01 -0.415110D-01
     46 -0.529728D-01 -0.146222D+00 -0.547204D-03 -0.709577D-01 -0.987281D-02
     47  0.254948D+00  0.127281D-01  0.578710D-01 -0.471016D-02 -0.224248D-01
     48 -0.181045D-01  0.177995D+00  0.777005D-02 -0.279122D-01 -0.380269D-01
               16            17            18            19            20
     16  0.396627D+01
     17  0.576199D+00  0.617622D+01
     18 -0.141777D+01 -0.939813D+00  0.854729D+01
     19  0.567498D-02  0.249180D+00 -0.686074D-01  0.498775D+01
     20  0.237609D+00  0.488494D-01 -0.923702D-01  0.224747D+01  0.101991D+02
     21  0.221371D-01 -0.530802D-01 -0.350260D+00 -0.187987D+01 -0.135886D+00
     22  0.847232D-01  0.154562D-01 -0.814159D-01 -0.406777D-01 -0.513880D-01
     23  0.106384D-01 -0.670405D-01 -0.665319D-02 -0.528951D-01  0.631387D-01
     24 -0.121087D+00 -0.167051D-01  0.154626D-01 -0.435892D-01  0.103335D+00
     25  0.217500D-01 -0.248062D-02  0.427973D-02  0.169253D-01 -0.301204D-01
     26 -0.464632D-02 -0.799792D-02 -0.235362D-03 -0.228619D-01  0.416122D-02
     27  0.201720D-01 -0.102790D-02 -0.890853D-02  0.316882D-01 -0.320415D-01
     28  0.220732D-01 -0.441060D-03 -0.873408D-02  0.427686D-01 -0.332005D-01
     29  0.106577D-01 -0.525372D-02 -0.511252D-02  0.192211D-02 -0.238425D-01
     30 -0.927938D-02 -0.791298D-03 -0.422148D-02 -0.234929D-01  0.135956D-01
     31  0.145554D-01 -0.478427D-02 -0.577720D-02  0.565195D-02 -0.172633D-01
     32 -0.189248D-01 -0.459541D-02  0.763967D-02 -0.279116D-01  0.273627D-01
     33 -0.980877D-02  0.306076D-02 -0.543871D-02 -0.947996D-02  0.142229D-01
     34  0.112490D+00 -0.153149D+00 -0.564247D-02 -0.176506D-01 -0.303780D-01
     35 -0.141762D+00  0.654265D-01  0.128489D-02 -0.230326D-01  0.610414D-01
     36  0.478153D-02 -0.625032D-02 -0.513456D-01 -0.447215D-02  0.467835D-02
     37  0.888401D-01 -0.589608D-01  0.463334D-01 -0.314453D-01 -0.826792D-02
     38 -0.645252D-01 -0.625571D-01 -0.138666D-01 -0.128568D-01  0.351352D-01
     39  0.116407D+00 -0.475463D-01 -0.502430D-01  0.427867D-02 -0.881969D-01
     40  0.317431D-01  0.304801D-01  0.358705D-02 -0.162145D+00  0.141978D+00
     41  0.343971D-01  0.421913D-02  0.228622D-02  0.210225D+00  0.787277D-01
     42  0.128056D-01  0.776230D-02 -0.165796D-01  0.672915D-01  0.528057D-01
     43 -0.363589D+01  0.629997D+00  0.236565D+01  0.629206D-01  0.101450D+00
     44  0.544425D+00 -0.593101D+01  0.649966D+00  0.679388D-01  0.302674D-01
     45  0.220991D+01  0.694375D+00 -0.420167D+01  0.516358D-01  0.581908D-01
     46 -0.415448D+00  0.566234D+00 -0.401925D-01 -0.291537D+01  0.303743D+01
     47  0.608048D+00 -0.265325D-01 -0.615120D-01  0.257769D+01 -0.438929D+01
     48 -0.972165D-01 -0.107241D+00 -0.817060D+00  0.724042D+00  0.563372D+00
               21            22            23            24            25
     21  0.179614D+02
     22 -0.375683D-02  0.427504D+01
     23  0.250673D-01 -0.969162D-01  0.472054D+01
     24 -0.388997D-01 -0.703740D+00 -0.281044D+00  0.114371D+01
     25  0.114197D-01  0.395460D-01 -0.110880D-01  0.111772D+00  0.367338D+01
     26 -0.799898D-02 -0.139174D-01 -0.362859D-01 -0.201279D-01  0.967677D-01
     27 -0.626376D-02  0.951146D-01 -0.144632D-01  0.908471D-01 -0.892349D+00
     28 -0.154865D-01 -0.657918D-01 -0.204632D-01 -0.338549D-01  0.938564D-01
     29 -0.183873D-03 -0.156202D-01  0.298166D-01  0.392213D-03 -0.712934D-02
     30 -0.121324D-01 -0.282421D-01 -0.651652D-02  0.185965D-01  0.386280D-01
     31 -0.252712D-02 -0.296846D-01  0.332135D-01 -0.196465D-01  0.848020D-01
     32  0.641659D-02  0.259502D-01  0.136162D-02  0.276208D-02 -0.123870D-01
     33 -0.728621D-02 -0.185834D-01  0.119659D-01  0.847557D-02 -0.754984D-02
     34 -0.403704D-02  0.230327D-01 -0.243548D-02  0.684182D-02 -0.110361D-01
     35 -0.557917D-03 -0.654037D-02 -0.397802D-01  0.384281D-01 -0.260713D-02
     36 -0.137608D-01  0.287515D-02  0.438337D-01 -0.146306D-01 -0.123787D-02
     37  0.273853D-02 -0.497999D-01  0.133596D-01 -0.594772D-01  0.627732D-01
     38 -0.389760D-01  0.174385D-01 -0.397712D-01 -0.810041D-01  0.184023D-01
     39  0.877165D-02 -0.636291D-01 -0.761601D-01  0.216109D+00 -0.321373D-01
     40  0.711098D-01 -0.149657D-01  0.273646D-01  0.404480D-01 -0.933739D-02
     41  0.903914D-01  0.225282D-01  0.257384D-01  0.723623D-01 -0.273532D-01
     42  0.150501D+00  0.214833D-01  0.519535D-01  0.432532D-01 -0.199294D-02
     43  0.364810D-01  0.848675D-04 -0.285545D-03 -0.875960D-02  0.346690D-02
     44  0.250679D-01  0.891704D-03 -0.726357D-03 -0.242871D-02  0.636726D-03
     45 -0.205759D-01  0.277745D-02 -0.316220D-03 -0.667882D-02  0.266089D-02
     46  0.719154D+00 -0.691501D-02  0.783972D-02  0.828928D-03  0.345704D-02
     47  0.470820D+00  0.131593D-01 -0.274105D-02 -0.150067D-01  0.270554D-02
     48 -0.642531D+01  0.998540D-02 -0.735527D-02 -0.204615D-03  0.588471D-03
               26            27            28            29            30
     26  0.404092D+01
     27  0.197167D+00  0.154424D+01
     28 -0.163907D-01  0.402568D-01  0.273330D+01
     29  0.532539D-01  0.614588D-01 -0.118461D+01  0.275157D+01
     30  0.979942D-01 -0.520376D-01  0.807577D+00  0.745829D+00  0.361066D+01
     31 -0.481910D-02  0.719316D-02  0.630838D-01 -0.330583D-01 -0.125757D-01
     32  0.437093D-01 -0.657514D-01 -0.245577D-01 -0.517699D-01 -0.144599D-01
     33 -0.101277D+00 -0.490513D-01 -0.458087D-02  0.193485D-01  0.675540D-01
     34 -0.779795D-02 -0.510363D-02  0.190013D-02  0.635026D-02 -0.175204D-02
     35 -0.187849D-02  0.984467D-02  0.191775D-01  0.160283D-01 -0.815326D-02
     36 -0.179881D-02  0.342698D-02 -0.352965D-02 -0.280554D-02 -0.340968D-02
     37  0.143614D-01 -0.425474D-02 -0.110757D-01 -0.415191D-02  0.713777D-02
     38 -0.201522D-01 -0.240643D-02 -0.793724D-02 -0.408112D-03  0.421331D-02
     39 -0.459311D-02 -0.288998D-01  0.456511D-02 -0.222099D-02  0.816352D-03
     40 -0.106117D-01 -0.335751D-02 -0.571678D-02 -0.697345D-02 -0.196960D-02
     41  0.266515D-01 -0.175573D-01 -0.194867D-01 -0.485934D-02  0.150274D-01
     42  0.245733D-02 -0.188711D-01 -0.163126D-01  0.293306D-02  0.366957D-02
     43 -0.371604D-03  0.566318D-02  0.531593D-02  0.389718D-02 -0.214609D-02
     44 -0.610060D-03  0.117362D-02  0.121580D-02  0.513454D-03 -0.548471D-03
     45 -0.275720D-03  0.382069D-02  0.327917D-02  0.272839D-02 -0.201190D-02
     46 -0.222977D-02  0.721740D-02  0.133213D-01  0.279811D-02 -0.454101D-02
     47 -0.221179D-02  0.391844D-02  0.364575D-02  0.101769D-02 -0.203554D-02
     48 -0.366502D-03  0.704979D-03  0.301856D-03  0.490959D-03 -0.183636D-02
               31            32            33            34            35
     31  0.373588D+01
     32  0.742112D+00  0.186307D+01
     33  0.402535D+00 -0.100273D+01  0.363917D+01
     34  0.305664D-01  0.136095D-01 -0.220435D-01  0.365404D+01
     35  0.394395D-01 -0.278262D-01 -0.202659D-01  0.160817D+01  0.186987D+01
     36 -0.225616D-01 -0.500693D-02 -0.161920D-01  0.142266D+00 -0.173584D+00
     37  0.114850D-02 -0.423740D-02 -0.381557D-02  0.878465D-01  0.663940D-01
     38 -0.155113D-02  0.485200D-04  0.178945D-02  0.585677D-01  0.818540D-02
     39 -0.619999D-02  0.978040D-02  0.668371D-02  0.733706D-01 -0.145081D+00
     40 -0.386529D-02  0.636491D-02  0.312666D-02 -0.374012D-02  0.789254D-02
     41 -0.361710D-02  0.112777D-01  0.608927D-02 -0.580306D-02  0.301078D-02
     42 -0.209575D-02  0.836446D-02  0.135905D-02 -0.250507D-02  0.354771D-02
     43  0.361704D-02 -0.557704D-02 -0.239813D-02 -0.349539D-02 -0.261115D-02
     44  0.325656D-03 -0.140774D-02 -0.325644D-03  0.770811D-02 -0.331638D-02
     45  0.227255D-02 -0.377136D-02 -0.222472D-02  0.393423D-02 -0.577425D-02
     46  0.405303D-02 -0.796698D-02 -0.302255D-02  0.781099D-02 -0.560034D-02
     47  0.468956D-04 -0.348595D-02 -0.130813D-02  0.644946D-02 -0.261904D-02
     48  0.667095D-04 -0.376753D-03 -0.112634D-02  0.204287D-02 -0.660646D-03
               36            37            38            39            40
     36  0.480207D+01
     37  0.798608D-01  0.458201D+01
     38 -0.139149D+00  0.134938D+00  0.432306D+01
     39 -0.300885D-01 -0.399794D-01 -0.335809D+00  0.949067D+00
     40  0.734825D-03  0.148279D-02  0.132660D-01 -0.134601D-01  0.271430D+01
     41  0.779446D-03  0.110553D-01  0.141076D-01 -0.157503D-01 -0.154484D+01
     42  0.761386D-03 -0.817632D-03 -0.171344D-02 -0.832637D-02 -0.120340D+01
     43 -0.276763D-02  0.363492D-02 -0.213971D-03  0.142057D-01  0.820888D-02
     44  0.190901D-02 -0.793399D-03 -0.187146D-02  0.198178D-03  0.360361D-02
     45  0.559622D-03  0.484891D-02 -0.606634D-03  0.101340D-01  0.647869D-02
     46  0.180433D-03  0.238719D-02  0.729320D-02  0.497493D-02  0.109027D+00
     47  0.847923D-03  0.100779D-01 -0.131978D-01  0.190360D-01  0.411331D-01
     48 -0.102909D-02 -0.429078D-02  0.988405D-02  0.112320D-02  0.340532D-01
               41            42            43            44            45
     41  0.366440D+01
     42 -0.766804D+00  0.374480D+01
     43  0.577381D-02  0.444744D-02  0.331403D+01
     44  0.155213D-02  0.129985D-02 -0.632789D+00  0.608908D+01
     45  0.422786D-02  0.242962D-02 -0.249931D+01 -0.665408D+00  0.427393D+01
     46  0.396652D-01  0.524436D-01 -0.314158D-01 -0.321861D-01 -0.122514D-01
     47 -0.121809D-01  0.163005D-01 -0.445192D-01 -0.150272D-01 -0.176191D-01
     48  0.102779D-01 -0.526908D-02 -0.102175D-01 -0.127419D-01  0.113267D-01
               46            47            48
     46  0.319536D+01
     47 -0.334324D+01  0.424319D+01
     48 -0.560878D+00 -0.392061D+00  0.716575D+01
 ReadGW:  IGet=0 IStart=         114 Next=        7255 LGW=        7141.
 ICntrl=12127.
 Symmetry not used in FoFDir.
 MinBra= 0 MaxBra= 2 Meth= 1.
 IRaf=       0 NMat=   1 IRICut=       1 DoRegI=T DoRafI=F ISym2E= 0 JSym2E=0.
 PrsmSu:  NPrtUS=   8 ThrOK=T
 PRISM was handed    16287999 working-precision words and  2447 shell-pairs
 PRISM was handed    16287999 working-precision words and  2447 shell-pairs
 PRISM was handed    16287999 working-precision words and  2447 shell-pairs
 PRISM was handed    16287999 working-precision words and  2447 shell-pairs
 PRISM was handed    16287999 working-precision words and  2447 shell-pairs
 PRISM was handed    16287999 working-precision words and  2447 shell-pairs
 PRISM was handed    16287999 working-precision words and  2447 shell-pairs
 PRISM was handed    16287999 working-precision words and  2447 shell-pairs
 Pruned (  75, 302) grid will be used in CalDFT.
 CkSvGd:  ISavGI=        -1 IRadAn=       4 IRASav=       4 ISavGd=        -1.
 CalDSu:  NPrtUS=   8 ThrOK=T
 IPart= 0 IRanGd=          0 ScrnBf=T ScrnGd=T RCrit=4.00D+00 DoMicB=T.
 IPart= 2 IRanGd=          0 ScrnBf=T ScrnGd=T RCrit=4.00D+00 DoMicB=T.
 IPart= 5 IRanGd=          0 ScrnBf=T ScrnGd=T RCrit=4.00D+00 DoMicB=T.
 IPart= 7 IRanGd=          0 ScrnBf=T ScrnGd=T RCrit=4.00D+00 DoMicB=T.
 IPart= 1 IRanGd=          0 ScrnBf=T ScrnGd=T RCrit=4.00D+00 DoMicB=T.
 IPart= 3 IRanGd=          0 ScrnBf=T ScrnGd=T RCrit=4.00D+00 DoMicB=T.
 IPart= 6 IRanGd=          0 ScrnBf=T ScrnGd=T RCrit=4.00D+00 DoMicB=T.
 CutRad = 1000.00    CtRdIn =    0.00    XCrit =  15.00   ICut = 0
 CutRad = 1000.00    CtRdIn =    0.00    XCrit =  15.00   ICut = 0
 CutRad = 1000.00    CtRdIn =    0.00    XCrit =  15.00   ICut = 0
 CutRad = 1000.00    CtRdIn =    0.00    XCrit =  15.00   ICut = 0
 CutRad = 1000.00    CtRdIn =    0.00    XCrit =  15.00   ICut = 0
 CutRad = 1000.00    CtRdIn =    0.00    XCrit =  15.00   ICut = 0
 IPart= 4 IRanGd=          0 ScrnBf=T ScrnGd=T RCrit=4.00D+00 DoMicB=T.
 CutRad = 1000.00    CtRdIn =    0.00    XCrit =  15.00   ICut = 0
 CutRad = 1000.00    CtRdIn =    0.00    XCrit =  15.00   ICut = 0
 IPart= 1        14685 of        16650 points in      35 batches and      102 microbatches, Max-NSigAt=      16 Max-NSgAt2=      16
 IPart= 4        13448 of        15320 points in      31 batches and       97 microbatches, Max-NSigAt=      16 Max-NSgAt2=      16
 IPart= 2        13844 of        15916 points in      34 batches and       97 microbatches, Max-NSigAt=      16 Max-NSgAt2=      16
 IPart= 6        14963 of        17044 points in      34 batches and       88 microbatches, Max-NSigAt=      16 Max-NSgAt2=      16
 IPart= 0        13708 of        15592 points in      32 batches and       99 microbatches, Max-NSigAt=      16 Max-NSgAt2=      16
 IPart= 5        13363 of        14888 points in      30 batches and       98 microbatches, Max-NSigAt=      16 Max-NSgAt2=      16
 IPart= 3        13968 of        16230 points in      34 batches and      106 microbatches, Max-NSigAt=      16 Max-NSgAt2=      16
 IPart= 7        14392 of        16442 points in      34 batches and      103 microbatches, Max-NSigAt=      16 Max-NSgAt2=      16
 Polarizability after L703:
                1             2             3
      1  0.106232D+03
      2  0.253059D+02  0.929364D+02
      3  0.442041D+01  0.253558D+01  0.478096D+02
 Dipole Derivatives after L703:
               1            2            3            4            5
      1 0.251185D+00 0.806200D-01-0.226957D-01 0.100127D+00 0.123365D+00
      2 0.108732D+00 0.242791D-01 0.519960D-01 0.517031D-01 0.183245D+00
      3-0.265613D-01 0.962877D-02 0.926543D-01 0.188954D-02 0.136547D-01
               6            7            8            9           10
      1 0.553287D-01-0.428946D+00-0.201029D+00-0.162310D+00-0.693816D+00
      2 0.781670D-02-0.542921D+00-0.333486D+00-0.296337D+00-0.155746D+01
      3 0.125052D+00 0.431490D-01 0.272366D-01 0.440448D+00 0.152601D+00
              11           12           13           14           15
      1-0.486506D-01-0.253099D+00 0.136868D+01-0.217402D+01-0.280039D+00
      2 0.780121D+00-0.247712D+00 0.115286D+01-0.182841D+01-0.299641D+00
      3 0.158158D+00-0.100265D-01 0.224466D-01-0.728349D-01-0.356539D+00
              16           17           18           19           20
      1-0.167989D+01 0.246102D+01 0.361956D+00 0.730172D+00-0.954282D-01
      2-0.942796D+00 0.166950D+01 0.385887D+00 0.181807D+01-0.995373D+00
      3-0.146767D-01 0.150828D+00-0.267281D+00-0.560310D-02-0.489655D-01
              21           22           23           24           25
      1 0.289485D+00-0.720492D-01 0.893771D-01 0.750945D-01 0.359708D-01
      2 0.435619D+00-0.457592D-01 0.648331D-01 0.722799D-01 0.884038D-02
      3-0.290991D+00-0.777532D-01-0.247248D-01-0.127991D+00-0.666406D-02
              26           27           28           29           30
      1-0.158718D-01-0.838048D-01 0.105772D-01-0.121685D+00 0.395622D-01
      2 0.451860D-01 0.138161D-01-0.281260D-02-0.351941D-01 0.503679D-01
      3-0.422995D-02-0.136273D+00 0.391840D-01 0.707444D-01 0.333928D-01
              31           32           33           34           35
      1-0.731072D-02 0.995975D-01 0.150566D-01 0.219067D+00 0.176009D+00
      2-0.289435D-01-0.718257D-01-0.691912D-01 0.291247D+00 0.137123D+00
      3-0.585470D-02-0.756518D-01 0.363211D-01 0.344108D-02-0.190065D-01
              36           37           38           39           40
      1 0.271543D-01 0.330328D-01-0.876131D-02 0.606199D-01-0.278817D-01
      2 0.430668D-01 0.474338D-01 0.135447D+00 0.112618D+00-0.296367D-01
      3 0.666867D-01 0.114815D-01-0.644162D-01-0.187436D+00-0.650126D-01
              41           42           43           44           45
      1 0.317359D-01-0.300738D-01 0.409275D+00 0.911739D-01 0.472758D-01
      2 0.828258D-01-0.747010D-01 0.776964D-01 0.270606D+00 0.125190D-01
      3-0.558781D-01 0.864978D-01-0.533974D-01-0.418394D-01 0.253886D+00
              46           47           48
      1-0.248193D+00-0.487453D+00-0.139511D+00
      2-0.406261D+00-0.128884D+00-0.198404D+00
      3-0.186693D-01-0.227036D-01 0.241600D+00
 Hessian after L703:
                1             2             3             4             5
      1  0.449871D+00
      2 -0.405176D-01  0.427015D+00
      3  0.591853D-01  0.436634D-01  0.515294D+00
      4 -0.171478D+00  0.210842D-01 -0.142576D-01  0.464209D+00
      5  0.207860D-01 -0.809132D-01  0.161161D-02  0.239153D-01  0.572188D+00
      6 -0.126859D-01  0.166479D-02 -0.820095D-01 -0.162699D-01  0.608636D-02
      7 -0.584508D-01  0.145223D-01  0.100056D-01 -0.225539D-01 -0.159789D-01
      8 -0.430138D-02 -0.760256D-01  0.276227D-01  0.664067D-04  0.824013D-02
      9  0.150997D-01  0.156921D-01 -0.923508D-01 -0.834615D-03 -0.331139D-02
     10 -0.822135D-01  0.148752D-01 -0.843280D-02 -0.124198D-01  0.392391D-01
     11  0.227047D-01 -0.182355D+00 -0.637504D-01  0.107797D-01 -0.112884D-01
     12 -0.117935D-02 -0.515353D-01 -0.814922D-01  0.256888D-02  0.536152D-02
     13 -0.515047D-01 -0.241623D-01 -0.432268D-02 -0.437390D-02 -0.118480D-01
     14 -0.132991D-01  0.539165D-02 -0.171718D-01  0.146928D-02  0.875951D-03
     15  0.232044D-02 -0.855099D-02  0.122949D-01  0.168395D-02  0.194175D-02
     16  0.100653D-01  0.608257D-02  0.879162D-03  0.195097D-02  0.380805D-02
     17 -0.197424D-01 -0.850063D-02  0.481613D-02 -0.402923D-02 -0.717175D-02
     18 -0.162519D-03  0.111156D-02 -0.213039D-02 -0.419141D-03 -0.113434D-02
     19 -0.192225D-01  0.451711D-02 -0.113351D-02 -0.444187D-03 -0.139600D-02
     20  0.365406D-01 -0.988887D-02  0.102055D-01 -0.129931D-02 -0.569246D-02
     21  0.782626D-02 -0.649451D-02  0.746348D-02 -0.877905D-03 -0.343402D-02
     22 -0.561626D-01  0.496886D-02 -0.548105D-01 -0.918246D-02  0.292359D-03
     23  0.397643D-03 -0.422616D-01 -0.154756D-01  0.251457D-02 -0.564506D-03
     24 -0.579410D-01 -0.103349D-01 -0.268993D+00 -0.845038D-03  0.255331D-04
     25 -0.923712D-02  0.148304D-02 -0.329668D-01 -0.609389D-01  0.272271D-02
     26  0.184009D-02 -0.625952D-03  0.735455D-02  0.294978D-02 -0.486345D-01
     27 -0.168439D-02  0.228742D-03 -0.204218D-02 -0.580881D-01  0.126708D-01
     28 -0.194489D-01 -0.219470D-01  0.148915D-01 -0.130748D+00 -0.103921D+00
     29  0.614089D-02  0.607256D-02 -0.471134D-02 -0.105232D+00 -0.175707D+00
     30 -0.314432D-02 -0.417848D-02  0.170126D-02  0.654728D-01  0.795294D-01
     31 -0.721530D-02  0.283367D-01  0.149106D-01 -0.567355D-01  0.446504D-01
     32  0.500817D-03 -0.629585D-02 -0.220681D-02  0.467399D-01 -0.251733D+00
     33 -0.183104D-02  0.492845D-02  0.150412D-02  0.230162D-01 -0.998906D-01
     34  0.145133D-02 -0.177188D-01 -0.626201D-03  0.781348D-05 -0.365433D-02
     35  0.328492D-02 -0.264912D-01 -0.261009D-02  0.133938D-02  0.101458D-03
     36 -0.215383D-02  0.177170D-01  0.590893D-03 -0.722685D-03 -0.191631D-03
     37  0.997056D-03  0.246396D-02  0.156458D-01  0.993731D-03  0.203943D-03
     38 -0.469107D-02  0.418018D-03  0.226912D-01  0.733998D-03 -0.796301D-03
     39  0.206108D-02 -0.180881D-02 -0.115262D-01  0.176973D-03  0.583510D-03
     40  0.440571D-02  0.589170D-02  0.221029D-02  0.119074D-02  0.855712D-03
     41 -0.157999D-01 -0.680541D-02 -0.119997D-01 -0.193655D-02  0.572208D-03
     42 -0.707550D-02 -0.380935D-02  0.203030D-02 -0.899605D-03  0.459612D-04
     43 -0.136302D-03  0.000000D+00 -0.312138D-03 -0.185474D-03 -0.122014D-03
     44 -0.932257D-03 -0.328629D-03  0.350288D-04 -0.667181D-04 -0.243367D-03
     45 -0.590191D-03 -0.461139D-03  0.371384D-03 -0.104212D-03 -0.158327D-03
     46  0.827895D-02  0.120411D-03 -0.866083D-03  0.708659D-03  0.446921D-03
     47  0.708800D-02  0.159518D-02 -0.744315D-04  0.971576D-03  0.767073D-03
     48  0.195529D-02  0.216751D-02 -0.705779D-03  0.399998D-03  0.263887D-03
                6             7             8             9            10
      6  0.558739D+00
      7  0.132511D-01  0.413962D+00
      8 -0.353598D-02 -0.920734D-01  0.484837D+00
      9  0.197241D-02 -0.542959D-02  0.611732D-01  0.538934D+00
     10  0.133354D-01 -0.220306D-01 -0.342280D-01 -0.206515D-01  0.609101D+00
     11 -0.226353D-02 -0.101259D-01 -0.362339D-01 -0.169073D-02 -0.433010D-01
     12  0.145543D-02 -0.217510D-01 -0.647195D-02  0.353370D-02  0.161901D+00
     13  0.202812D-02 -0.139084D+00 -0.277666D-01 -0.676698D-01  0.634240D-01
     14  0.228338D-02 -0.801601D-01 -0.114172D+00 -0.321586D-01 -0.767194D-01
     15  0.215770D-03 -0.674864D-01 -0.346421D-01 -0.117344D+00 -0.103227D-01
     16  0.281947D-03 -0.556738D-01  0.148020D-01 -0.441398D-02 -0.319282D-01
     17 -0.795677D-03  0.764368D-01  0.396551D-01  0.182935D-01  0.107679D+00
     18  0.231868D-03 -0.579320D-03  0.174003D-01  0.894512D-02  0.121494D-01
     19  0.902106D-03  0.362537D-01  0.260043D-01  0.141572D-01 -0.268668D+00
     20 -0.319641D-02 -0.405437D-02 -0.213176D-02 -0.361955D-02  0.114381D+00
     21  0.897524D-03  0.121318D-01  0.716142D-02  0.295956D-02 -0.446034D-01
     22 -0.310581D-01 -0.256662D-02 -0.626614D-02  0.193222D-01  0.159707D-03
     23  0.856518D-02  0.228641D-02 -0.947837D-03  0.260247D-01 -0.793336D-02
     24 -0.407857D-03  0.245672D-02  0.615142D-02 -0.213997D-01 -0.107637D-02
     25 -0.573258D-01  0.159113D-02  0.478863D-03 -0.169957D-02  0.683919D-03
     26  0.126578D-01 -0.119128D-02 -0.597079D-03 -0.740008D-03  0.941473D-05
     27 -0.289408D+00  0.338892D-03  0.356047D-03  0.434458D-03  0.792037D-04
     28  0.645104D-01 -0.208564D-02  0.505431D-02 -0.180562D-02  0.242527D-02
     29  0.794559D-01  0.331213D-03 -0.171291D-02 -0.828857D-04  0.100800D-02
     30 -0.967468D-01 -0.102756D-02  0.933533D-04  0.693026D-03  0.239980D-03
     31  0.219694D-01  0.966794D-04  0.141100D-02 -0.128399D-03 -0.778244D-02
     32 -0.999483D-01 -0.682526D-03  0.535529D-03  0.845467D-03  0.252994D-02
     33 -0.948373D-01  0.252448D-03 -0.487002D-03 -0.453699D-03 -0.728908D-03
     34  0.575727D-04 -0.812155D-01  0.110133D+00  0.208965D-01  0.518726D-02
     35 -0.880800D-03  0.110648D+00 -0.228128D+00 -0.386419D-01  0.333266D-02
     36  0.110110D-02  0.193439D-01 -0.409448D-01 -0.506265D-01  0.465191D-02
     37  0.298557D-03 -0.507219D-01  0.787483D-02  0.365775D-01  0.255860D-02
     38  0.106894D-03  0.622672D-02 -0.550912D-01 -0.356190D-01  0.394548D-02
     39 -0.773417D-03  0.363112D-01 -0.322127D-01 -0.272888D+00  0.376125D-02
     40  0.794528D-03 -0.992710D-03  0.264454D-03  0.260904D-03 -0.177976D+00
     41 -0.129944D-03  0.213169D-02  0.245753D-03 -0.140850D-02 -0.104332D+00
     42  0.392490D-03  0.385155D-02  0.122225D-02 -0.143632D-02 -0.101168D+00
     43  0.470428D-04 -0.179182D-02  0.561814D-02  0.890642D-03  0.597762D-02
     44 -0.822866D-05  0.586705D-02 -0.728370D-02 -0.121699D-02  0.320723D-02
     45 -0.164391D-03  0.279730D-02 -0.744407D-03 -0.102886D-02  0.330158D-02
     46 -0.136571D-03 -0.147366D-01 -0.707236D-02 -0.457141D-02 -0.864995D-01
     47 -0.613788D-04 -0.141832D-01 -0.111890D-01 -0.353938D-02 -0.236937D-01
     48 -0.658441D-03 -0.446668D-02 -0.214169D-02  0.551164D-04 -0.124361D-01
               11            12            13            14            15
     11  0.523273D+00
     12  0.167848D+00  0.203962D+00
     13 -0.519682D-02  0.258512D-01  0.228964D+00
     14  0.177384D-01 -0.279789D-01  0.112625D+00  0.864269D-01
     15  0.674488D-02  0.208742D-03  0.122168D+00  0.508132D-01  0.132323D+00
     16  0.103514D-02 -0.135528D-01  0.133602D-01 -0.292826D-01 -0.707600D-02
     17 -0.280037D-01  0.353113D-01 -0.101813D+00  0.380992D-01 -0.192739D-01
     18 -0.269076D-02  0.321653D-02 -0.209138D-01 -0.134208D-01 -0.215428D-01
     19  0.132057D+00 -0.351814D-01 -0.846804D-01  0.979281D-01  0.130243D-01
     20 -0.173394D+00 -0.114715D-01  0.101271D-01 -0.133384D-01 -0.264717D-02
     21 -0.377205D-02 -0.335702D-01 -0.249537D-01  0.260558D-01  0.391494D-02
     22 -0.198400D-02  0.301282D-02  0.567284D-02 -0.213377D-02 -0.155695D-03
     23 -0.968013D-02 -0.310164D-01 -0.791583D-03  0.616784D-02 -0.901200D-03
     24 -0.769018D-02 -0.901995D-02 -0.820850D-02  0.451868D-02  0.288625D-02
     25 -0.184004D-02 -0.823446D-03  0.154606D-03  0.256424D-04  0.750152D-03
     26  0.114124D-02  0.539146D-03  0.121386D-02 -0.144282D-02  0.252113D-04
     27 -0.101227D-02  0.106812D-03  0.162399D-04 -0.325696D-03  0.787977D-04
     28 -0.214543D-02 -0.389950D-03 -0.488835D-02  0.117446D-02  0.858781D-03
     29  0.530525D-04 -0.184059D-03  0.976799D-03  0.279704D-03  0.216416D-03
     30  0.638032D-03  0.475354D-03  0.174547D-03 -0.635005D-03 -0.520869D-04
     31 -0.977718D-03 -0.243124D-02  0.199402D-02 -0.212183D-02 -0.603231D-03
     32 -0.329707D-04  0.142312D-02 -0.976757D-03  0.216112D-02  0.471623D-03
     33 -0.783774D-04  0.208325D-03  0.376334D-04  0.673660D-03  0.135661D-03
     34 -0.239684D-02  0.513876D-02 -0.432046D-01  0.397219D-01  0.152979D-02
     35 -0.405237D-03  0.653961D-02 -0.167297D-02  0.763403D-02  0.309715D-02
     36 -0.125103D-02 -0.145027D-02 -0.109746D-01  0.141163D-01  0.280373D-02
     37  0.703939D-03 -0.179030D-03 -0.134248D-01 -0.617558D-02 -0.436396D-01
     38  0.214674D-02  0.108013D-02 -0.376721D-02  0.537831D-02 -0.656274D-02
     39 -0.231669D-02  0.150247D-02 -0.226841D-01 -0.340184D-02 -0.166349D-01
     40 -0.100489D+00 -0.996336D-01  0.191620D-04 -0.272351D-03  0.420295D-03
     41 -0.135172D+00 -0.868209D-01 -0.329440D-02  0.242620D-02  0.160731D-02
     42 -0.871804D-01 -0.868081D-01 -0.264976D-02  0.378415D-02 -0.101310D-02
     43 -0.338733D-03  0.869396D-03 -0.136588D-01  0.201237D-02 -0.677209D-02
     44 -0.207725D-02  0.162940D-02  0.161632D-01  0.704913D-02  0.142608D-01
     45 -0.444908D-03  0.111955D-02  0.283740D-02  0.373920D-02  0.400742D-02
     46  0.151522D-02 -0.242205D-01  0.412303D-01 -0.447921D-01 -0.669950D-02
     47  0.342901D-01 -0.425334D-02  0.401830D-01 -0.506746D-01 -0.660026D-02
     48 -0.108976D-02 -0.344837D-02  0.926421D-02 -0.108918D-01 -0.228301D-02
               16            17            18            19            20
     16  0.329442D+00
     17  0.136993D+00 -0.112920D-01
     18  0.255913D+00  0.806562D-01  0.241421D+00
     19  0.290275D-01 -0.161921D+00 -0.167498D-01  0.486232D+00
     20 -0.309230D-01 -0.328843D-02 -0.763781D-03  0.114765D-01  0.390341D+00
     21  0.141418D-01 -0.374181D-01  0.102196D-02  0.791765D-01  0.402582D-01
     22 -0.235463D-02  0.482653D-02  0.585549D-03  0.320867D-02 -0.888676D-03
     23  0.214641D-02 -0.510323D-02 -0.687810D-03 -0.279294D-02  0.182246D-02
     24  0.382807D-02 -0.862600D-02 -0.128716D-03 -0.304178D-02  0.593012D-03
     25 -0.455486D-05 -0.167561D-03  0.104138D-03  0.173496D-03  0.195027D-03
     26 -0.694755D-03  0.158573D-02  0.215982D-03  0.480596D-03 -0.426890D-03
     27 -0.211064D-03  0.332015D-03  0.778790D-04  0.125669D-03  0.357464D-03
     28  0.173892D-02 -0.364568D-02 -0.620067D-03 -0.195513D-02  0.846501D-03
     29 -0.432360D-03  0.596589D-03  0.188145D-04 -0.115282D-03  0.415680D-03
     30 -0.358683D-03  0.688055D-03  0.130638D-03  0.171693D-03 -0.403169D-03
     31 -0.119663D-02  0.245560D-02  0.417792D-03  0.109345D-02  0.209351D-02
     32  0.862099D-03 -0.208765D-02 -0.319976D-03 -0.914094D-03  0.186873D-03
     33  0.256966D-04 -0.328685D-03 -0.124698D-03 -0.482423D-03  0.418271D-03
     34  0.497570D-02 -0.195476D-01 -0.621309D-02 -0.959205D-02  0.184908D-02
     35  0.226534D-02 -0.665521D-02 -0.613402D-03 -0.716737D-02  0.121007D-02
     36 -0.130219D-02 -0.254046D-02 -0.160660D-02 -0.333629D-02  0.950556D-03
     37  0.382130D-02 -0.441372D-02  0.954035D-03 -0.244176D-02  0.362989D-03
     38  0.184180D-03 -0.366392D-02  0.131581D-02 -0.361300D-02  0.516011D-03
     39  0.339519D-02 -0.433209D-02  0.119363D-04 -0.493843D-02  0.148925D-02
     40  0.183137D-03 -0.179594D-02  0.233995D-03 -0.344054D-01 -0.113658D-01
     41  0.327700D-02 -0.288028D-02 -0.106829D-02  0.171968D-01  0.132335D-01
     42 -0.115986D-02 -0.401598D-02  0.173242D-03 -0.694040D-02  0.650001D-03
[...]
    X8        1.16484   0.00000   0.00000   0.00006   0.00001   1.16484
    Y8       -0.24941   0.00000   0.00000  -0.00009  -0.00009  -0.24950
    Z8       -2.56227   0.00000   0.00000  -0.00007  -0.00005  -2.56231
    X9        4.99961   0.00000   0.00000  -0.00014  -0.00015   4.99946
    Y9       -0.90644   0.00000   0.00000  -0.00043  -0.00042  -0.90686
    Z9        1.76775   0.00000   0.00000   0.00001   0.00000   1.76775
   X10        5.68336   0.00000   0.00000   0.00004   0.00000   5.68337
   Y10        0.63480   0.00000   0.00000   0.00017   0.00018   0.63498
   Z10       -1.11468   0.00000   0.00000   0.00038   0.00036  -1.11432
   X11        4.92231   0.00000   0.00000   0.00009   0.00006   4.92236
   Y11       -2.61666   0.00000   0.00000   0.00016   0.00016  -2.61650
   Z11       -1.10360   0.00000   0.00000  -0.00035  -0.00036  -1.10396
   X12        0.98716   0.00000   0.00000  -0.00006  -0.00008   0.98708
   Y12       -4.05164   0.00000   0.00000   0.00007   0.00007  -4.05158
   Z12        0.40633   0.00000   0.00000   0.00005   0.00008   0.40641
   X13       -0.15944   0.00000   0.00000   0.00021   0.00021  -0.15923
   Y13       -1.93763   0.00000   0.00000   0.00018   0.00017  -1.93746
   Z13        2.76684   0.00000   0.00000   0.00007   0.00011   2.76695
   X14        2.63908   0.00000   0.00000   0.00026   0.00023   2.63931
   Y14        3.50974   0.00000   0.00000   0.00018   0.00017   3.50992
   Z14        1.37941   0.00000   0.00000  -0.00046  -0.00045   1.37896
   X15       -5.34709   0.00000   0.00000   0.00025   0.00021  -5.34687
   Y15       -0.44847   0.00000   0.00000   0.00012   0.00011  -0.44836
   Z15       -1.00939   0.00000   0.00000  -0.00081  -0.00072  -1.01010
   X16       -2.35709  -0.00002   0.00000  -0.00003  -0.00007  -2.35716
   Y16        2.42367  -0.00003   0.00000  -0.00027  -0.00028   2.42339
   Z16       -0.20948  -0.00001   0.00000   0.00041   0.00048  -0.20900
         Item               Value     Threshold  Converged?
 Maximum Force            0.000032     0.000450     YES
 RMS     Force            0.000008     0.000300     YES
 Maximum Displacement     0.000715     0.001800     YES
 RMS     Displacement     0.000214     0.001200     YES
 Predicted change in Energy=-8.846606D-09
 Optimization completed.
    -- Stationary point found.
 GradGradGradGradGradGradGradGradGradGradGradGradGradGradGradGradGradGrad


 Test job not archived.
 1\1\GINC-NODE39\Freq\UB3LYP\CBSB7\C4H9O3(2)\SHAMEL\18-Jun-2013\0\\# fr
 eq nosymm b3lyp/cbsb7 iop(7/33=1)\\Title Card Required\\0,2\C,0.886006
 ,-0.077722,-0.289983\C,2.37359,-0.421697,-0.123221\C,0.00116,-1.192007
 ,0.379121\C,0.625777,1.295123,0.21212\O,-1.226885,-1.416625,-0.20914\O
 ,-2.117393,-0.017697,0.080788\O,-0.511333,1.947212,0.054317\H,0.616405
 ,-0.131981,-1.355894\H,2.645682,-0.479665,0.935453\H,3.007507,0.335923
 ,-0.589861\H,2.604772,-1.384678,-0.584\H,0.522384,-2.144038,0.215022\H
 ,-0.084374,-1.02535,1.46415\H,1.396541,1.857277,0.729953\H,-2.829557,-
 0.237319,-0.534145\H,-1.247316,1.282552,-0.110851\\Version=AM64L-G03Re
 vD.01\HF=-383.457073\S2=0.757351\S2-1=0.\S2A=0.750028\RMSD=7.657e-09\R
 MSF=8.148e-06\ZeroPoint=0.128323\Thermal=0.13655\Dipole=0.5711661,-0.2
 526746,-0.2570862\DipoleDeriv=0.2511851,0.1087321,-0.0265613,0.08062,0
 .0242791,0.0096288,-0.0226957,0.051996,0.0926543,0.1001273,0.0517031,0
 .0018895,0.1233651,0.1832448,0.0136547,0.0553287,0.0078167,0.125052,-0
 .4289458,-0.5429214,0.043149,-0.2010294,-0.333486,0.0272366,-0.1623097
 ,-0.2963367,0.4404476,-0.6938165,-1.557456,0.1526006,-0.0486506,0.7801
 214,0.1581583,-0.2530994,-0.2477119,-0.0100265,1.3686769,1.1528623,0.0
 224466,-2.1740157,-1.8284066,-0.0728349,-0.2800388,-0.2996412,-0.35653
 89,-1.6798867,-0.9427957,-0.0146767,2.4610167,1.6695032,0.1508278,0.36
 19562,0.385887,-0.2672809,0.7301721,1.8180709,-0.0056031,-0.0954282,-0
 .9953727,-0.0489655,0.2894853,0.4356186,-0.2909914,-0.0720492,-0.04575
 92,-0.0777532,0.0893771,0.0648331,-0.0247248,0.0750945,0.0722799,-0.12
 79913,0.0359708,0.0088404,-0.0066641,-0.0158718,0.045186,-0.00423,-0.0
 838048,0.0138161,-0.136273,0.0105772,-0.0028126,0.039184,-0.1216848,-0
 .0351941,0.0707444,0.0395622,0.0503679,0.0333928,-0.0073107,-0.0289435
 ,-0.0058547,0.0995975,-0.0718257,-0.0756518,0.0150566,-0.0691912,0.036
 3211,0.2190667,0.2912472,0.0034411,0.1760086,0.1371231,-0.0190065,0.02
 71543,0.0430668,0.0666867,0.0330328,0.0474338,0.0114815,-0.0087613,0.1
 354473,-0.0644162,0.0606199,0.112618,-0.1874356,-0.0278817,-0.0296367,
 -0.0650126,0.0317359,0.0828258,-0.0558781,-0.0300738,-0.074701,0.08649
 78,0.4092751,0.0776964,-0.0533974,0.0911739,0.2706057,-0.0418394,0.047
 2758,0.012519,0.2538856,-0.2481934,-0.406261,-0.0186693,-0.4874532,-0.
 1288845,-0.0227036,-0.1395112,-0.198404,0.2415996\Polar=106.2315435,25
 .3059141,92.9364016,4.4204112,2.5355823,47.8095739\PG=C01 [X(C4H9O3)]\
 NImag=1\\0.44987139,-0.04051763,0.42701504,0.05918530,0.04366341,0.515
 29407,-0.17147809,0.02108420,-0.01425762,0.46420850,0.02078602,-0.0809
 1324,0.00161161,0.02391526,0.57218767,-0.01268588,0.00166479,-0.082009
 49,-0.01626985,0.00608636,0.55873928,-0.05845084,0.01452226,0.01000560
 ,-0.02255387,-0.01597893,0.01325108,0.41396190,-0.00430138,-0.07602562
 ,0.02762267,0.00006641,0.00824013,-0.00353598,-0.09207335,0.48483741,0
 .01509968,0.01569211,-0.09235081,-0.00083461,-0.00331139,0.00197241,-0
 .00542959,0.06117317,0.53893411,-0.08221354,0.01487517,-0.00843280,-0.
 01241983,0.03923915,0.01333542,-0.02203063,-0.03422801,-0.02065154,0.6
 0910149,0.02270474,-0.18235547,-0.06375043,0.01077971,-0.01128840,-0.0
 0226353,-0.01012589,-0.03623394,-0.00169073,-0.04330103,0.52327339,-0.
 00117935,-0.05153535,-0.08149222,0.00256888,0.00536152,0.00145543,-0.0
 2175102,-0.00647195,0.00353370,0.16190125,0.16784819,0.20396214,-0.051
 50469,-0.02416233,-0.00432268,-0.00437390,-0.01184803,0.00202812,-0.13
 908355,-0.02776657,-0.06766984,0.06342403,-0.00519682,0.02585121,0.228
 96391,-0.01329911,0.00539165,-0.01717182,0.00146928,0.00087595,0.00228
 338,-0.08016011,-0.11417250,-0.03215859,-0.07671938,0.01773837,-0.0279
 7887,0.11262517,0.08642688,0.00232044,-0.00855099,0.01229488,0.0016839
 5,0.00194175,0.00021577,-0.06748640,-0.03464208,-0.11734370,-0.0103227
 1,0.00674488,0.00020874,0.12216756,0.05081318,0.13232336,0.01006533,0.
 00608257,0.00087916,0.00195097,0.00380805,0.00028195,-0.05567376,0.014
 80203,-0.00441398,-0.03192824,0.00103514,-0.01355277,0.01336017,-0.029
 28258,-0.00707600,0.32944213,-0.01974238,-0.00850063,0.00481613,-0.004
 02923,-0.00717175,-0.00079568,0.07643679,0.03965514,0.01829347,0.10767
 858,-0.02800374,0.03531131,-0.10181250,0.03809918,-0.01927386,0.136993
 39,-0.01129195,-0.00016252,0.00111156,-0.00213039,-0.00041914,-0.00113
 434,0.00023187,-0.00057932,0.01740029,0.00894512,0.01214944,-0.0026907
 6,0.00321653,-0.02091381,-0.01342076,-0.02154277,0.25591253,0.08065617
 ,0.24142148,-0.01922247,0.00451711,-0.00113351,-0.00044419,-0.00139600
 ,0.00090211,0.03625366,0.02600431,0.01415721,-0.26866766,0.13205673,-0
 .03518145,-0.08468039,0.09792809,0.01302427,0.02902749,-0.16192117,-0.
 01674977,0.48623207,0.03654060,-0.00988887,0.01020554,-0.00129931,-0.0
 0569246,-0.00319641,-0.00405437,-0.00213176,-0.00361955,0.11438142,-0.
 17339363,-0.01147152,0.01012714,-0.01333840,-0.00264717,-0.03092305,-0
 .00328843,-0.00076378,0.01147648,0.39034090,0.00782626,-0.00649451,0.0
 0746348,-0.00087790,-0.00343402,0.00089752,0.01213182,0.00716142,0.002
 95956,-0.04460345,-0.00377205,-0.03357016,-0.02495366,0.02605578,0.003
 91494,0.01414177,-0.03741814,0.00102196,0.07917653,0.04025825,0.051156
 50,-0.05616256,0.00496886,-0.05481053,-0.00918246,0.00029236,-0.031058
 08,-0.00256662,-0.00626614,0.01932221,0.00015971,-0.00198400,0.0030128
 2,0.00567284,-0.00213377,-0.00015570,-0.00235463,0.00482653,0.00058555
 ,0.00320867,-0.00088868,0.00043829,0.06708396,0.00039764,-0.04226158,-
 0.01547556,0.00251457,-0.00056451,0.00856518,0.00228641,-0.00094784,0.
 02602471,-0.00793336,-0.00968013,-0.03101644,-0.00079158,0.00616784,-0
 .00090120,0.00214641,-0.00510323,-0.00068781,-0.00279294,0.00182246,0.
 00363234,0.00259656,0.05433116,-0.05794104,-0.01033493,-0.26899331,-0.
 00084504,0.00002553,-0.00040786,0.00245672,0.00615142,-0.02139970,-0.0
 0107637,-0.00769018,-0.00901995,-0.00820850,0.00451868,0.00288625,0.00
 382807,-0.00862600,-0.00012872,-0.00304178,0.00059301,0.00121023,0.061
 26026,0.01213671,0.29692018,-0.00923712,0.00148304,-0.03296676,-0.0609
 3894,0.00272271,-0.05732580,0.00159113,0.00047886,-0.00169957,0.000683
 92,-0.00184004,-0.00082345,0.00015461,0.00002564,0.00075015,-0.0000045
 5,-0.00016756,0.00010414,0.00017350,0.00019503,0.00069260,-0.00608536,
 0.00211814,0.00019258,0.06810684,0.00184009,-0.00062595,0.00735455,0.0
 0294978,-0.04863455,0.01265783,-0.00119128,-0.00059708,-0.00074001,0.0
 0000941,0.00114124,0.00053915,0.00121386,-0.00144282,0.00002521,-0.000
 69476,0.00158573,0.00021598,0.00048060,-0.00042689,-0.00006637,0.00114
 002,0.00015746,-0.00000675,-0.00444564,0.04730350,-0.00168439,0.000228
 74,-0.00204218,-0.05808811,0.01267084,-0.28940825,0.00033889,0.0003560
 5,0.00043446,0.00007920,-0.00101227,0.00010681,0.00001624,-0.00032570,
 0.00007880,-0.00021106,0.00033202,0.00007788,0.00012567,0.00035746,0.0
 0031698,-0.00041342,0.00026446,0.00126154,0.06574438,-0.01403783,0.314
 63091,-0.01944885,-0.02194699,0.01489154,-0.13074814,-0.10392126,0.064
 51038,-0.00208564,0.00505431,-0.00180562,0.00242527,-0.00214543,-0.000
 38995,-0.00488835,0.00117446,0.00085878,0.00173892,-0.00364568,-0.0006
 2007,-0.00195513,0.00084650,-0.00048203,0.00133793,-0.00039012,-0.0005
 0944,0.00458875,0.00637672,-0.00286437,0.14460963,0.00614089,0.0060725
 6,-0.00471134,-0.10523230,-0.17570671,0.07945586,0.00033121,-0.0017129
 1,-0.00008289,0.00100800,0.00005305,-0.00018406,0.00097680,0.00027970,
 0.00021642,-0.00043236,0.00059659,0.00001881,-0.00011528,0.00041568,-0
 .00009544,-0.00083662,0.00004451,-0.00022229,0.00036327,-0.00083618,-0
 .00002609,0.11372934,0.18879006,-0.00314432,-0.00417848,0.00170126,0.0
 6547280,0.07952938,-0.09674677,-0.00102756,0.00009335,0.00069303,0.000
 23998,0.00063803,0.00047535,0.00017455,-0.00063501,-0.00005209,-0.0003
 5868,0.00068805,0.00013064,0.00017169,-0.00040317,-0.00008290,0.000310
 02,-0.00056605,0.00041471,0.01838192,0.02264905,-0.01311881,-0.0704033
 0,-0.08749758,0.10046711,-0.00721530,0.02833670,0.01491061,-0.05673553
 ,0.04465044,0.02196942,0.00009668,0.00141100,-0.00012840,-0.00778244,-
 0.00097772,-0.00243124,0.00199402,-0.00212183,-0.00060323,-0.00119663,
 0.00245560,0.00041779,0.00109345,0.00209351,0.00103716,0.00130737,-0.0
 0021660,-0.00013211,0.00074323,-0.00741512,-0.00240459,0.00390819,-0.0
 1587746,-0.00934933,0.06353532,0.00050082,-0.00629585,-0.00220681,0.04
 673994,-0.25173320,-0.09994833,-0.00068253,0.00053553,0.00084547,0.002
 52994,-0.00003297,0.00142312,-0.00097676,0.00216112,0.00047162,0.00086
 210,-0.00208765,-0.00031998,-0.00091409,0.00018687,-0.00095838,0.00023
 794,0.00020752,0.00036894,-0.00109916,0.00265147,0.00116006,0.00445043
 ,-0.01902441,-0.00996360,-0.05144110,0.27231960,-0.00183104,0.00492845
 ,0.00150412,0.02301619,-0.09989063,-0.09483725,0.00025245,-0.00048700,
 -0.00045370,-0.00072891,-0.00007838,0.00020833,0.00003763,0.00067366,0
 .00013566,0.00002570,-0.00032868,-0.00012470,-0.00048242,0.00041827,0.
 00033761,0.00025612,0.00033112,0.00036193,0.00641372,-0.02835769,-0.01
 244897,-0.00383910,0.01309835,0.00641686,-0.02389703,0.10909774,0.0987
 2214,0.00145133,-0.01771880,-0.00062620,0.00000781,-0.00365433,0.00005
 757,-0.08121546,0.11013348,0.02089647,0.00518726,-0.00239684,0.0051387
 6,-0.04320457,0.03972185,0.00152979,0.00497570,-0.01954760,-0.00621309
 ,-0.00959205,0.00184908,-0.00318750,0.00074394,0.00031503,-0.00097312,
 0.00004062,0.00015444,-0.00016449,-0.00044456,0.00012404,-0.00003689,0
 .00007081,-0.00016236,0.00057795,0.11955605,0.00328492,-0.02649118,-0.
 00261009,0.00133938,0.00010146,-0.00088080,0.11064751,-0.22812833,-0.0
 3864185,0.00333266,-0.00040524,0.00653961,-0.00167297,0.00763403,0.003
 09715,0.00226534,-0.00665521,-0.00061340,-0.00716737,0.00121007,-0.002
 80821,0.00085396,0.00046148,-0.00042871,-0.00030430,0.00008747,-0.0000
 9768,-0.00006342,0.00073881,0.00014846,-0.00069362,0.00046120,0.000236
 76,-0.11572348,0.25204983,-0.00215383,0.01771696,0.00059089,-0.0007226
 9,-0.00019163,0.00110110,0.01934390,-0.04094479,-0.05062648,0.00465191
 ,-0.00125103,-0.00145027,-0.01097460,0.01411634,0.00280373,-0.00130219
 ,-0.00254046,-0.00160660,-0.00333629,0.00095056,-0.00027666,-0.0006262
 5,-0.00052449,0.00052515,0.00010376,-0.00031194,-0.00017059,-0.0005974
 8,-0.00001687,-0.00018050,0.00039412,-0.00030029,0.00005354,-0.0190929
 3,0.03714357,0.05207645,0.00099706,0.00246396,0.01564582,0.00099373,0.
 00020394,0.00029856,-0.05072192,0.00787483,0.03657746,0.00255860,0.000
 70394,-0.00017903,-0.01342481,-0.00617558,-0.04363961,0.00382130,-0.00
 441372,0.00095404,-0.00244176,0.00036299,-0.00082270,-0.00194399,-0.00
 272887,0.00129770,-0.00040055,0.00001722,-0.00046131,-0.00013935,-0.00
 015842,-0.00041639,0.00014104,-0.00024364,0.00004768,-0.00053557,0.001
 30141,0.01421334,0.06014025,-0.00469107,0.00041802,0.02269122,0.000734
 00,-0.00079630,0.00010689,0.00622672,-0.05509125,-0.03561904,0.0039454
 8,0.00214674,0.00108013,-0.00376721,0.00537831,-0.00656274,0.00018418,
 -0.00366392,0.00131581,-0.00361300,0.00051601,-0.00102109,-0.00248406,
 -0.00293553,0.00244025,-0.00003501,0.00034928,-0.00036968,-0.00042214,
 0.00018797,-0.00013676,-0.00004170,0.00004780,0.00000169,0.00213735,-0
 .00340045,-0.02528538,0.00089783,0.05631232,0.00206108,-0.00180881,-0.
 01152619,0.00017697,0.00058351,-0.00077342,0.03631124,-0.03221274,-0.2
 7288793,0.00376125,-0.00231669,0.00150247,-0.02268407,-0.00340184,-0.0
 1663488,0.00339519,-0.00433209,0.00001194,-0.00493843,0.00148925,-0.00
 091889,0.00139784,0.00106811,-0.00086627,0.00063764,0.00001144,0.00030
 012,0.00041003,0.00003254,0.00030830,0.00000885,-0.00007052,0.00008473
 ,0.00112920,-0.00082999,-0.00410629,-0.02371756,0.04041763,0.30523184,
 0.00440571,0.00589170,0.00221029,0.00119074,0.00085571,0.00079453,-0.0
 0099271,0.00026445,0.00026090,-0.17797608,-0.10048898,-0.09963357,0.00
 001916,-0.00027235,0.00042030,0.00018314,-0.00179594,0.00023400,-0.034
 40539,-0.01136580,-0.01247874,0.00010291,0.00088437,0.00116973,0.00031
 938,-0.00011424,-0.00010816,0.00019190,-0.00001746,0.00017070,0.000049
 83,-0.00010399,0.00012115,0.00020891,0.00012667,-0.00027099,-0.0000200
 3,-0.00015324,0.00003087,0.20691599,-0.01579990,-0.00680541,-0.0119996
 7,-0.00193655,0.00057221,-0.00012994,0.00213169,0.00024575,-0.00140850
 ,-0.10433156,-0.13517217,-0.08682089,-0.00329440,0.00242620,0.00160731
 ,0.00327700,-0.00288028,-0.00106829,0.01719677,0.01323349,0.01077190,0
 .00043793,-0.00307091,-0.00027485,0.00060797,-0.00050158,0.00064117,0.
 00042330,0.00015339,-0.00029905,0.00034266,0.00023403,0.00029304,-0.00
 075473,-0.00077134,-0.00008503,-0.00033777,-0.00052269,0.00015563,0.10
 015949,0.13376776,-0.00707550,-0.00380935,0.00203030,-0.00089960,0.000
 04596,0.00039249,0.00385155,0.00122225,-0.00143632,-0.10116817,-0.0871
 8038,-0.08680809,-0.00264976,0.00378415,-0.00101310,-0.00115986,-0.004
 01598,0.00017324,-0.00694040,0.00065000,-0.00218680,-0.00010750,-0.001
 72649,-0.00180374,0.00011842,0.00003517,0.00002617,0.00061322,-0.00001
 584,-0.00038376,0.00024906,0.00031590,-0.00006899,-0.00040818,-0.00068
 037,0.00072262,-0.00006482,0.00034448,0.00000205,0.11164535,0.08941968
 ,0.08599060,-0.00013630,-0.00000023,-0.00031214,-0.00018547,-0.0001220
 1,0.00004704,-0.00179182,0.00561814,0.00089064,0.00597762,-0.00033873,
 0.00086940,-0.01365881,0.00201237,-0.00677209,-0.27445246,-0.08354767,
 -0.23144212,-0.00610529,-0.00143382,-0.00029233,0.00004766,-0.00027599
 ,-0.00009540,0.00003435,0.00006142,0.00005870,-0.00008370,0.00002913,0
 .00002113,0.00008541,-0.00012918,-0.00004277,-0.00120269,-0.00033275,-
 0.00031185,0.00026719,0.00003269,0.00057061,-0.00010189,-0.00019401,0.
 00004975,0.29097846,-0.00093226,-0.00032863,0.00003503,-0.00006672,-0.
 00024337,-0.00000823,0.00586705,-0.00728370,-0.00121699,0.00320723,-0.
 00207725,0.00162940,0.01616321,0.00704913,0.01426076,-0.09567983,-0.06
 309002,-0.09136157,-0.00815275,-0.00305010,-0.00046492,0.00011519,0.00
 000749,-0.00026951,0.00000528,0.00001321,0.00000799,-0.00011591,0.0000
 3770,0.00002126,0.00002667,-0.00001086,0.00004230,0.00157669,-0.000092
 64,0.00058237,-0.00064291,0.00001173,-0.00042995,0.00003670,0.00010334
 ,-0.00042445,0.07607477,0.06063936,-0.00059019,-0.00046114,0.00037138,
 -0.00010421,-0.00015833,-0.00016439,0.00279730,-0.00074441,-0.00102886
 ,0.00330158,-0.00044491,0.00111955,0.00283740,0.00373920,0.00400742,-0
 .24687803,-0.08553377,-0.21973463,-0.00158888,0.00406436,-0.00107767,0
 .00023763,-0.00026628,-0.00038548,-0.00004843,0.00004957,-0.00000768,-
 0.00006578,0.00004371,0.00002889,0.00007474,-0.00006256,0.00001587,0.0
 0025346,-0.00037518,0.00055648,-0.00000679,-0.00012360,0.00027455,-0.0
 0008690,-0.00023278,0.00011038,0.23875256,0.08225022,0.21448077,0.0082
 7895,0.00012041,-0.00086608,0.00070866,0.00044692,-0.00013657,-0.01473
 656,-0.00707236,-0.00457141,-0.08649948,0.00151522,-0.02422048,0.04123
 033,-0.04479215,-0.00669950,-0.02895485,0.07223257,0.00674236,-0.12847
 452,-0.12790773,-0.02774611,-0.00136938,0.00187034,0.00261775,0.000230
 19,-0.00038252,0.00003683,0.00099314,-0.00003280,-0.00020631,-0.000095
 43,0.00043164,0.00007268,0.00395247,0.00280604,0.00068206,0.00070883,0
 .00104919,0.00144930,-0.00009156,0.00207211,0.00394642,0.00032775,0.00
 251759,0.00111453,0.20379144,0.00708800,0.00159518,-0.00007443,0.00097
 158,0.00076707,-0.00006138,-0.01418318,-0.01118904,-0.00353938,-0.0236
 9369,0.03429015,-0.00425334,0.04018299,-0.05067462,-0.00660026,-0.0144
 4365,0.06180017,0.01134205,-0.10358748,-0.19651492,-0.03134659,-0.0008
 7608,0.00136382,0.00161867,-0.00010821,-0.00022430,-0.00014955,0.00059
 589,-0.00008981,-0.00008790,-0.00053145,0.00037978,0.00002101,0.003946
 17,0.00320004,0.00094211,0.00087480,0.00104196,0.00164451,0.00609290,-
 0.00101179,0.00203527,0.00254589,0.00831462,-0.00174410,0.09512553,0.1
 4695170,0.00195529,0.00216751,-0.00070578,0.00040000,0.00026389,-0.000
 65844,-0.00446668,-0.00214169,0.00005512,-0.01243609,-0.00108976,-0.00
 344837,0.00926421,-0.01089179,-0.00228301,-0.00351179,0.02276750,-0.00
 996285,-0.03416453,-0.03688509,-0.03116572,0.00035075,-0.00085831,-0.0
 0057498,-0.00027530,-0.00001737,-0.00003719,0.00029319,-0.00001328,-0.
 00007132,-0.00011584,0.00014763,0.00009282,0.00111921,0.00080072,-0.00
 001257,0.00027361,0.00072019,-0.00000213,-0.00447945,-0.00056974,0.004
 25297,-0.00199113,-0.00465372,0.00143341,0.04778454,0.03025331,0.04308
 805\\0.00000294,0.00000343,-0.00000326,0.00000017,-0.00000182,-0.00000
 055,-0.00000477,-0.00000348,0.00000077,0.00000678,-0.00000764,0.000004
 92,-0.00000544,0.00000914,-0.00000507,0.00001384,-0.00000178,0.0000028
 6,-0.00003162,-0.00002199,-0.00000355,-0.00000199,0.00000245,0.0000007
 8,0.00000049,-0.00000078,-0.00000114,-0.00000043,-0.00000149,-0.000001
 34,-0.00000093,-0.00000108,-0.00000119,0.00000102,0.00000066,-0.000000
 21,-0.00000186,-0.00000052,-0.00000024,0.00000045,-0.00000090,0.000000
 23,0.00000148,-0.00000058,0.00000181,0.00001987,0.00002638,0.00000517\
 \\@


 LENDING MONEY TO FRIENDS CAUSES THEM TO LOSE THEIR MEMORIES.

    --  PETER'S THEORY OF RECIPROCAL INHIBITION OF FISCAL RECALL
 Job cpu time:  0 days  1 hours  8 minutes 37.9 seconds.
 File lengths (MBytes):  RWF=    125 Int=      0 D2E=      0 Chk=      8 Scr=      1
 Normal termination of Gaussian 03 at Tue Jun 18 11:00:19 2013.
