
 Primary working directories    : /scratch/goldmanm/562773
 Secondary working directories  : /scratch/goldmanm/562773
 Wavefunction directory         : /home/goldmanm/wfu/
 Main file repository           : /scratch/goldmanm/562773/

 ARCHNAME  : Linux/x86_64
 FC        : /opt/intel/Compiler/11.0/074/bin/intel64/ifort
 FCVERSION : 11.0
 BLASLIB   : -L/opt/intel/Compiler/11.0/074/mkl/lib/em64t -lmkl_intel_ilp64 -lmkl_sequential -lmkl_core
 id        : mitsand

 Nodes     nprocs
 node33       4
 ga_uses_ma=false, calling ma_init with nominal heap.
 GA-space will be limited to   8.0 MW (determined by -G option)

 Using customized tuning parameters: mindgm=16; mindgv=16; mindgc=16; mindgr=1; noblas=0; mincuda=1000; minvec=7
 default implementation of scratch files=sf  

 geometry = {angstrom
 O
 C, 1, r2
 O, 2, r3, 1, a3
 H, 1, r4, 2, a4, 3, d4
 H, 2, r5, 1, a5, 3, d5
 }
  
    r2 =         1.34602 ang
    r3 =         1.19752 ang
    a3 =       125.17323 degree
    r4 =         0.97050 ang
    a4 =       107.14637 degree
    d4 =         0.02562 degree
    r5 =         1.09871 ang
    a5 =       109.26028 degree
    d5 =       180.02562 degree
  
 memory,3000,M
 basis = vtz-f12
 hf
 ccsd(t)-f12,scale_trip=1

 Variables initialized (665), CPU time= 0.01 sec
 Commands  initialized (462), CPU time= 0.00 sec, 486 directives.
 Default parameters read. Elapsed time= 0.11 sec

 Checking input...
 Passed
1


                                         ***  PROGRAM SYSTEM MOLPRO  ***
                         Copyright, University College Cardiff Consultants Limited, 2008

                                    Version 2010.1 linked 7 Mar 2011 15:11:57 


 **********************************************************************************************************************************
 LABEL *                                                                                 
 Linux-3.2.0-72-generic/node33(x86_64) 64 bit mpp version                                DATE: 10-Mar-19          TIME: 17:03:04  
 **********************************************************************************************************************************

 Patch level:      19
 **********************************************************************************************************************************
 SETTING R2             =         1.34602000  ANG                             
 SETTING R3             =         1.19752000  ANG                             
 SETTING A3             =       125.17323000  DEGREE                          
 SETTING R4             =         0.97050000  ANG                             
 SETTING A4             =       107.14637000  DEGREE                          
 SETTING D4             =         0.02562000  DEGREE                          
 SETTING R5             =         1.09871000  ANG                             
 SETTING A5             =       109.26028000  DEGREE                          
 SETTING D5             =       180.02562000  DEGREE                          

 Variable memory set to 3000000000 words,  buffer space   230000 words

 SETTING BASIS          =    VTZ-F12


 Recomputing integrals since basis changed


 Using spherical harmonics

 Library entry O      S cc-pVTZ-F12          selected for orbital group  1
 Library entry O      P cc-pVTZ-F12          selected for orbital group  1
 Library entry O      D cc-pVTZ-F12          selected for orbital group  1
 Library entry O      F cc-pVTZ-F12          selected for orbital group  1
 Library entry C      S cc-pVTZ-F12          selected for orbital group  2
 Library entry C      P cc-pVTZ-F12          selected for orbital group  2
 Library entry C      D cc-pVTZ-F12          selected for orbital group  2
 Library entry C      F cc-pVTZ-F12          selected for orbital group  2
 Library entry H      S cc-pVTZ-F12          selected for orbital group  4
 Library entry H      P cc-pVTZ-F12          selected for orbital group  4
 Library entry H      D cc-pVTZ-F12          selected for orbital group  4

1PROGRAM * SEWARD (Integral evaluation for generally contracted gaussian basis sets)     Author: Roland Lindh, 1990

 Geometry written to block  1 of record 700

 Orientation using atomic masses  
 Molecule type: Asymmetric top
 Rotational constants:      10.4349063     12.0478790     77.9420989 GHz  (calculated with average atomic masses)

 Point group  C1  



 ATOMIC COORDINATES

 NR  ATOM    CHARGE       X              Y              Z

   1  O       8.00   -0.000048980    0.228005326   -2.144600106
   2  C       6.00   -0.000064539   -0.777656293    0.191762945
   3  O       8.00    0.000000572    0.406024223    2.120493305
   4  H       1.00    0.000807188    2.051454997   -1.948359677
   5  H       1.00    0.000730275   -2.848786806    0.045894852

 Bond lengths in Bohr (Angstrom)

 1-2  2.543609167  1-4  1.833979211  2-3  2.262984837  2-5  2.076260998
     (1.346020000)     (0.970500000)     (1.197520000)     (1.098710000)

 Bond angles

  1-2-3  125.17323000   1-2-5  109.26028000   2-1-4  107.14637000   3-2-5  125.56648457

 NUCLEAR CHARGE:                   24
 NUMBER OF PRIMITIVE AOS:         258
 NUMBER OF SYMMETRY AOS:          229
 NUMBER OF CONTRACTIONS:          195   ( 195A   )
 NUMBER OF CORE ORBITALS:           3   (   3A   )
 NUMBER OF VALENCE ORBITALS:       14   (  14A   )


 NUCLEAR REPULSION ENERGY   70.22010204


 Eigenvalues of metric

         1 0.125E-03 0.183E-03 0.220E-03 0.374E-03 0.430E-03 0.463E-03 0.535E-03 0.550E-03


 Contracted 2-electron integrals neglected if value below      1.0D-11
 AO integral compression algorithm  1   Integral accuracy      1.0D-11

     721.158 MB (compressed) written to integral file ( 41.3%)

     Node minimum: 158.335 MB, node maximum: 190.579 MB


 NUMBER OF SORTED TWO-ELECTRON INTEGRALS:   45649012.     BUFFER LENGTH:  32768
 NUMBER OF SEGMENTS:   3  SEGMENT LENGTH:   15989512      RECORD LENGTH: 524288

 Memory used in sort:      16.55 MW

 SORT1 READ   218474958. AND WROTE    42880551. INTEGRALS IN    124 RECORDS. CPU TIME:     7.30 SEC, REAL TIME:    20.79 SEC
 SORT2 READ   171626247. AND WROTE   182605605. INTEGRALS IN   2908 RECORDS. CPU TIME:     1.41 SEC, REAL TIME:    11.96 SEC

 Node minimum:    45644235.  Node maximum:    45658568. integrals

 OPERATOR DM      FOR CENTER  0  COORDINATES:    0.000000    0.000000    0.000000


 **********************************************************************************************************************************
 DATASETS  * FILE   NREC   LENGTH (MB)   RECORD NAMES
              1      18        4.04       500      610      700      900      950      970     1000      129      960     1100   
                                          VAR    BASINP    GEOM    SYMINP    ZMAT    AOBASIS   BASIS     P2S    ABASIS      S 
                                         1400     1410     1200     1210     1080     1600     1650     1700   
                                           T        V       H0       H01     AOSYM     SMH    MOLCAS    OPER   

 PROGRAMS   *        TOTAL       INT
 CPU TIMES  *        12.57     12.49
 REAL TIME  *        37.66 SEC
 DISK USED  *         2.76 GB      
 GA USED    *         0.00 MB       (max)       0.00 MB       (current)
 **********************************************************************************************************************************

1PROGRAM * RHF-SCF (CLOSED SHELL)       Authors: W. Meyer, H.-J. Werner


 NUMBER OF ELECTRONS:      12+   12-    SPACE SYMMETRY=1    SPIN SYMMETRY=Singlet 
 CONVERGENCE THRESHOLDS:    1.00E-05 (Density)    1.00E-07 (Energy)
 MAX. NUMBER OF ITERATIONS:       60
 INTERPOLATION TYPE:            DIIS
 INTERPOLATION STEPS:              2 (START)      1 (STEP)
 LEVEL SHIFTS:                  0.00 (CLOSED)  0.00 (OPEN) 



 Orbital guess generated from atomic densities. Full valence occupancy:   17

 Molecular orbital dump at record        2100.2

 ITERATION    DDIFF          GRAD             ENERGY        2-EL.EN.            DIPOLE MOMENTS         DIIS
    1      0.000D+00      0.000D+00      -188.77391855    279.143153    0.00033   -0.17377   -1.10806    0
    2      0.000D+00      0.459D-02      -188.82054696    276.964382    0.00039    0.07297   -0.43379    1
    3      0.710D-02      0.331D-02      -188.85451804    278.204364    0.00035   -0.15838   -0.72141    2
    4      0.307D-02      0.401D-03      -188.85544432    278.141790    0.00036   -0.14275   -0.65352    3
    5      0.506D-03      0.188D-03      -188.85564423    278.115369    0.00036   -0.15188   -0.66387    4
    6      0.244D-03      0.567D-04      -188.85568178    278.144219    0.00036   -0.15295   -0.65596    5
    7      0.105D-03      0.240D-04      -188.85569029    278.134521    0.00036   -0.15242   -0.65404    6
    8      0.613D-04      0.845D-05      -188.85569123    278.139210    0.00036   -0.15184   -0.65335    7
    9      0.222D-04      0.257D-05      -188.85569131    278.138117    0.00036   -0.15175   -0.65316    8
   10      0.609D-05      0.101D-05      -188.85569131    278.138349    0.00036   -0.15170   -0.65312    0

 Final occupancy:  12

 !RHF STATE 1.1 Energy               -188.855691311074
 Nuclear energy                        70.22010204
 One-electron energy                 -398.14496794
 Two-electron energy                  139.06917459
 Virial quotient                       -1.00135133
 !RHF STATE 1.1 Dipole moment           0.00035693    -0.15170250    -0.65312196
 Dipole moment /Debye                   0.00090717    -0.38556405    -1.65996171

 Orbital energies:

         1.1          2.1          3.1          4.1          5.1          6.1          7.1          8.1          9.1         10.1
    -20.626158   -20.566170   -11.396489    -1.477640    -1.379637    -0.896449    -0.725524    -0.714488    -0.639023    -0.606659

        11.1         12.1         13.1         14.1
     -0.499487    -0.475586     0.055619     0.056346


 **********************************************************************************************************************************
 DATASETS  * FILE   NREC   LENGTH (MB)   RECORD NAMES
              1      18        4.04       500      610      700      900      950      970     1000      129      960     1100   
                                          VAR    BASINP    GEOM    SYMINP    ZMAT    AOBASIS   BASIS     P2S    ABASIS      S 
                                         1400     1410     1200     1210     1080     1600     1650     1700   
                                           T        V       H0       H01     AOSYM     SMH    MOLCAS    OPER   

              2       3        1.10       700     1000     2100   
                                         GEOM     BASIS     RHF  

 PROGRAMS   *        TOTAL        HF       INT
 CPU TIMES  *        20.85      8.28     12.49
 REAL TIME  *        50.55 SEC
 DISK USED  *         2.80 GB      
 SF USED    *         0.15 MB      
 GA USED    *         0.00 MB       (max)       0.00 MB       (current)
 **********************************************************************************************************************************


1PROGRAM * CCSD (Closed-shell coupled cluster)     Authors: C. Hampel, H.-J. Werner, 1991, M. Deegan, P.J. Knowles, 1992

                                  CCSD-F12 implementation by  H.-J. Werner, 2007

                   Density fitting integral evaluation by F.R. Manby, 2003,2007, G. Knizia, 2010

 Basis set CC-PVTZ/JKFIT generated.      Number of basis functions:   297 
 Basis set CC-PVTZ-F12/OPTRI generated.  Number of basis functions:   307 
 Basis set AUG-CC-PVTZ/MP2FIT generated. Number of basis functions:   410 

 Convergence thresholds:  THRVAR = 1.00D-08  THRDEN = 1.00D-06

 CCSD(T)     terms to be evaluated (factor= 1.000)


 Number of core orbitals:           3 (   3 )
 Number of closed-shell orbitals:   9 (   9 )
 Number of external orbitals:     183 ( 183 )

 Molecular orbitals read from record     2100.2  Type=RHF/CANONICAL (state 1.1)

 MP2-F12 correlation treatment (H.-J. Werner, 2006)
 --------------------------------------------------

 Using MP2-F12 with ansatz 3C(FIX)

 Using projected zeroth-order Hamiltonian (+Z)

 FOCKRIB=T FOCKRIC=T FOCKRIP=T CABSP=T CABSA=T CABSK=T CABSF=T GBC=F EBC=F DMAT=T NOFIK=T NOPAO=1 SOLVE=-1  USEPAO=0
 EXCH_A= T EXCH_B= F EXCH_C= F EXCH_P= F
 
 Geminal basis:    OPTFULL  GEM_TYPE=SLATER  BETA=1.0  NGEM=6

 Optimizing Gaussian exponents for each gem_beta

 Geminal optimization for beta= 1.0000
 Weight function:   m=0, omega= 1.4646

 Augmented Hessian optimization of geminal fit. Trust ratio= 0.40000
 Convergence reached after   2 iterations. Final gradient= 8.52D-16, Step= 4.25D-06, Delta= 1.28D-09
 
 Alpha:                 0.19532     0.81920     2.85917     9.50073    35.69989   197.79328
 Coeff:                 0.27070     0.30552     0.18297     0.10986     0.06810     0.04224
 

 All pairs explicitly correlated. Number of r12-pairs:           45
 
 AO(A)-basis ORBITAL           loaded. Number of functions:     195
 RI(R)-basis CC-PVTZ-F12/OPTRI loaded. Number of functions:     307
 DF-basis CC-PVTZ/JKFIT        loaded. Number of functions:     297

 Screening thresholds:   THRAO=  1.00D-10  THRMO=  1.00D-09  THRPROD=  1.00D-09
                         THRSW=  1.00D-05  THROV=  1.00D-12  THRF12=   1.00D-08

 CPU time for Fock operators                      0.87 sec
 
 Construction of ABS:
 Smallest eigenvalue of S          3.67E-04  (threshold= 1.00E-08)
 Ratio eigmin/eigmax               1.82E-06  (threshold= 1.00E-09)
 Smallest eigenvalue of S kept     3.67E-04  (threshold= 3.67E-04, 0 functions deleted, 307 kept)
 
 Construction of CABS:
 Smallest eigenvalue of S          6.08E-07  (threshold= 1.00E-08)
 Ratio eigmin/eigmax               6.08E-07  (threshold= 1.00E-09)
 Smallest eigenvalue of S kept     6.08E-07  (threshold= 6.08E-07, 0 functions deleted, 307 kept)
 
 CPU time for CABS singles                        0.28 sec

 CABS-singles contribution of  -0.00178231 patched into reference energy.
 New reference energy        -188.85747362
 
 AO(A)-basis ORBITAL           loaded. Number of functions:     195
 RI(R)-basis CC-PVTZ-F12/OPTRI loaded. Number of functions:     307
 DF-basis AUG-CC-PVTZ/MP2FIT   loaded. Number of functions:     410

 Screening thresholds:   THRAO=  1.00D-10  THRMO=  1.00D-09  THRPROD=  1.00D-09
                         THRSW=  1.00D-05  THROV=  1.00D-12  THRF12=   1.00D-08

 CPU time for 3-index integral evaluation         1.86 sec
 CPU time for first  half transformation          0.37 sec ( 2325.1 MFLOP/sec)
 CPU time for second half transformation          0.01 sec ( 2691.5 MFLOP/sec)
 CPU time for sorting                             0.13 sec
 CPU time for fitting                             0.07 sec ( 6642.4 MFLOP/sec)
 CPU time for tilde quantities                    0.07 sec ( 6925.7 MFLOP/sec)
 CPU time for assembly                            0.78 sec ( 7401.1 MFLOP/sec)
 CPU time for tranop_f12                          0.83 sec ( 9094.2 MFLOP/sec)
 CPU time for f12 integrals (total)               6.16 sec
 F12-matrices built in  4 passes.
 F12-matrices built in  4 passes.
 F12-matrices built in  4 passes.
 F12-matrices built in  4 passes.
 FC-matrix built in  4 passes.
 CPU time for f12 matrices (total)                0.47 sec

 Diagonal F12 approximation with fixed coefficients:  TSING= 0.500,  TTRIP= 0.250 (scaled by -1/beta)

 DF-MP2-F12 energy corrections:
 ------------------------------
 Approx.                                    Singlet             Triplet             Total
 DF-MP2-F12/3*C(DX,FIX)                -0.056570515709     -0.007069826648     -0.063640342358
 DF-MP2-F12/3*C(FIX)                   -0.052626802533     -0.006427590567     -0.059054393100
 DF-MP2-F12/3C(FIX)                    -0.052499948257     -0.006672627653     -0.059172575911

 DF-MP2-F12 correlation energies:
 --------------------------------
 Approx.                                    Singlet             Triplet             Ecorr            Total Energy
 DF-MP2                                -0.406558929024     -0.250219605354     -0.656778534378   -189.514252154974
 DF-MP2-F12/3*C(DX,FIX)                -0.463129444733     -0.257289432002     -0.720418876735   -189.577892497331
 DF-MP2-F12/3*C(FIX)                   -0.459185731557     -0.256647195920     -0.715832927477   -189.573306548073
 DF-MP2-F12/3C(FIX)                    -0.459058877281     -0.256892233007     -0.715951110288   -189.573424730885

 SCS-DF-MP2 energies (F_SING= 1.20000  F_TRIP= 0.62222  F_PARALLEL= 0.33333):
 ----------------------------------------------------------------------------
 SCS-DF-MP2                            -0.643562913716   -189.501036534312
 SCS-DF-MP2-F12/3*C(DX,FIX)            -0.715846535814   -189.573320156411
 SCS-DF-MP2-F12/3*C(FIX)               -0.710714466441   -189.568188087037
 SCS-DF-MP2-F12/3C(FIX)                -0.710714708831   -189.568188329427
 Symmetry transformation completed.

 Number of N-1 electron functions:               9
 Number of N-2 electron functions:              45
 Number of singly external CSFs:              1647
 Number of doubly external CSFs:           1357128
 Total number of CSFs:                     1358776

 Pair and operator lists are different

 Length of J-op  integral file:             187.05 MB
 Length of K-op  integral file:             239.52 MB
 Length of 3-ext integral record:             0.00 MB

 Memory could be reduced to 74.55 Mwords without degradation in triples

 Integral transformation finished. Total CPU:  15.01 sec, npass=  1  Memory used:  40.96 MW

 Reference energy:                   -188.85747362

 Adding F12 terms to K(Cij), methodcc=6,  factor=1.0

 ITER.      SQ.NORM     CORR.ENERGY   TOTAL ENERGY   ENERGY CHANGE        DEN1      VAR(S)    VAR(P)  DIIS     TIME
   1      1.15469121    -0.65046809  -189.50794171     0.00637756     0.02585187  0.47D-02  0.34D-02  1  1    30.79
   2      1.16594929    -0.64893734  -189.50641096     0.00153076    -0.01465387  0.82D-04  0.45D-03  2  2    37.80
   3      1.17046925    -0.64925329  -189.50672691    -0.00031595    -0.00184242  0.12D-03  0.31D-04  3  3    44.92
   4      1.17333512    -0.64919627  -189.50666989     0.00005702    -0.00135460  0.11D-04  0.48D-05  4  4    52.01
   5      1.17440648    -0.64918558  -189.50665920     0.00001069    -0.00028295  0.19D-05  0.52D-06  5  5    59.11
   6      1.17474995    -0.64916219  -189.50663581     0.00002339    -0.00002236  0.13D-06  0.57D-07  6  6    66.27
   7      1.17481455    -0.64915895  -189.50663257     0.00000325    -0.00000870  0.14D-07  0.79D-08  6  1    73.40
   8      1.17482134    -0.64915869  -189.50663231     0.00000026    -0.00000021  0.34D-08  0.11D-08  6  2    80.59
   9      1.17482456    -0.64915844  -189.50663206     0.00000024     0.00000035  0.72D-09  0.22D-09  6  4    87.76

 Norm of t1 vector:      0.09498994      S-energy:    -0.00000076      T1 diagnostic:  0.01583166
                                                                       D1 diagnostic:  0.05080703

 Adding energy correction from Wij-K(Fij), methodcc=6  factor=1.0
 
  CCSD correlation energy              -0.649158443174
  MP2-F12 correction (uncoupled)       -0.056589284778
  C*T doubles correction               -0.001873626566
  f12b correction                       0.009808098335


 Total CPU time for triples:    110.36 sec

  Ecorr(MP2)                           -0.656845651017
  Ecorr(MP2-F12)                       -0.716018226928
  Scale factor for triples energy       1.090085967410


 RESULTS
 =======

  Reference energy                   -188.855691311075
  F12 singles correction               -0.001782309521

 F12 singles corrections added to reference energy

  New reference energy               -188.857473620596

  F12a singlet correction              -0.052060573553
  F12a triplet correction              -0.006402337791
  F12a total correction                -0.058462911344

 F12a corrections for ansatz F12/3C(FIX) added to CCSD energy
 
  CCSD-F12a singlet pair energy        -0.481358567396
  CCSD-F12a triplet pair energy        -0.226262032088
  CCSD-F12a correlation energy         -0.707621354518

  Triples (T) contribution (scaled)    -0.030783697221
  Total correlation energy             -0.738405051738

  CCSD-F12a total energy             -189.565094975114
  CCSD[T]-F12a energy                -189.597670679594
  CCSD-T-F12a energy                 -189.595218291770
 !CCSD(T)-F12a total energy          -189.595878672335

 F12b corrections for ansatz F12/3C(FIX) added to CCSD(T)-F12a energy

  CCSD-F12b singlet pair energy        -0.472288651857
  CCSD-F12b triplet pair energy        -0.225523849292
  CCSD-F12b correlation energy         -0.697813256183

  Triples (T) contribution (scaled)    -0.030783697221
  Total correlation energy             -0.728596953403

  CCSD-F12b total energy             -189.555286876779
  CCSD[T]-F12b energy                -189.587862581258
  CCSD-T-F12b energy                 -189.585410193435
 !CCSD(T)-F12b total energy          -189.586070573999

 Timing summary (sec):

 STEP                 CPU(USER)    SYS     CPU(TOT)    WALL
 Transformation         15.56      1.78     17.34     18.33
 CCSD iterations        63.86      3.50     67.36     70.64
 Triples               110.36      3.10    113.46    113.47
 MP2-F12                 8.36      1.12      9.48     15.15
 F12b energy             4.90      0.12      5.02      5.03

 Program statistics:

 Available memory in ccsd:              2999999351
 Min. memory needed in ccsd:               3878116
 Max. memory used in ccsd:                 5044543
 Max. memory used in cckext:               3742437 (10 integral passes)



 **********************************************************************************************************************************
 DATASETS  * FILE   NREC   LENGTH (MB)   RECORD NAMES
              1      20      247.08       500      610      700      900      950      970     1000      129      960     1100   
                                          VAR    BASINP    GEOM    SYMINP    ZMAT    AOBASIS   BASIS     P2S    ABASIS      S 
                                         1400     1410     1200     1210     1080     1600     1650     1700      960(1)  1380   
                                           T        V       H0       H01     AOSYM     SMH    MOLCAS    OPER    ABASIS    JKOP   

              2       5        1.87       700     1000     2100     7360     7350   
                                         GEOM     BASIS     RHF    F12ABS    EF12   

 PROGRAMS   *        TOTAL   CCSD(T)        HF       INT
 CPU TIMES  *       223.92    203.07      8.28     12.49
 REAL TIME  *       273.41 SEC
 DISK USED  *         3.18 GB      
 SF USED    *       819.46 MB      
 GA USED    *         2.40 MB       (max)       0.00 MB       (current)
 **********************************************************************************************************************************

     CCSD(T)-F12        HF-SCF  
   -189.58607057   -188.85569131
 **********************************************************************************************************************************
 Variable memory released
