 Entering Gaussian System, Link 0=g03
 Input=p18.gjf
 Output=p18.log
 Initial command:
 /opt/g03/l1.exe /scratch/goldmanm/Gau-5882.inp -scrdir=/scratch/goldmanm/
 Entering Link 1 = /opt/g03/l1.exe PID=      5884.
  
 Copyright (c) 1988,1990,1992,1993,1995,1998,2003,2004, Gaussian, Inc.
                  All Rights Reserved.
  
 This is the Gaussian(R) 03 program.  It is based on the
 the Gaussian(R) 98 system (copyright 1998, Gaussian, Inc.),
 the Gaussian(R) 94 system (copyright 1995, Gaussian, Inc.),
 the Gaussian 92(TM) system (copyright 1992, Gaussian, Inc.),
 the Gaussian 90(TM) system (copyright 1990, Gaussian, Inc.),
 the Gaussian 88(TM) system (copyright 1988, Gaussian, Inc.),
 the Gaussian 86(TM) system (copyright 1986, Carnegie Mellon
 University), and the Gaussian 82(TM) system (copyright 1983,
 Carnegie Mellon University). Gaussian is a federally registered
 trademark of Gaussian, Inc.
  
 This software contains proprietary and confidential information,
 including trade secrets, belonging to Gaussian, Inc.
  
 This software is provided under written license and may be
 used, copied, transmitted, or stored only in accord with that
 written license.
  
 The following legend is applicable only to US Government
 contracts under FAR:
  
                    RESTRICTED RIGHTS LEGEND
  
 Use, reproduction and disclosure by the US Government is
 subject to restrictions as set forth in subparagraphs (a)
 and (c) of the Commercial Computer Software - Restricted
 Rights clause in FAR 52.227-19.
  
 Gaussian, Inc.
 340 Quinnipiac St., Bldg. 40, Wallingford CT 06492
  
  
 ---------------------------------------------------------------
 Warning -- This program may not be used in any manner that
 competes with the business of Gaussian, Inc. or will provide
 assistance to any competitor of Gaussian, Inc.  The licensee
 of this program is prohibited from giving any competitor of
 Gaussian, Inc. access to this program.  By using this program,
 the user acknowledges that Gaussian, Inc. is engaged in the
 business of creating and licensing software in the field of
 computational chemistry and represents and warrants to the
 licensee that it is not a competitor of Gaussian, Inc. and that
 it will not use this program in any manner prohibited above.
 ---------------------------------------------------------------
  

 Cite this work as:
 Gaussian 03, Revision D.01,
 M. J. Frisch, G. W. Trucks, H. B. Schlegel, G. E. Scuseria, 
 M. A. Robb, J. R. Cheeseman, J. A. Montgomery, Jr., T. Vreven, 
 K. N. Kudin, J. C. Burant, J. M. Millam, S. S. Iyengar, J. Tomasi, 
 V. Barone, B. Mennucci, M. Cossi, G. Scalmani, N. Rega, 
 G. A. Petersson, H. Nakatsuji, M. Hada, M. Ehara, K. Toyota, 
 R. Fukuda, J. Hasegawa, M. Ishida, T. Nakajima, Y. Honda, O. Kitao, 
 H. Nakai, M. Klene, X. Li, J. E. Knox, H. P. Hratchian, J. B. Cross, 
 V. Bakken, C. Adamo, J. Jaramillo, R. Gomperts, R. E. Stratmann, 
 O. Yazyev, A. J. Austin, R. Cammi, C. Pomelli, J. W. Ochterski, 
 P. Y. Ayala, K. Morokuma, G. A. Voth, P. Salvador, J. J. Dannenberg, 
 V. G. Zakrzewski, S. Dapprich, A. D. Daniels, M. C. Strain, 
 O. Farkas, D. K. Malick, A. D. Rabuck, K. Raghavachari, 
 J. B. Foresman, J. V. Ortiz, Q. Cui, A. G. Baboul, S. Clifford, 
 J. Cioslowski, B. B. Stefanov, G. Liu, A. Liashenko, P. Piskorz, 
 I. Komaromi, R. L. Martin, D. J. Fox, T. Keith, M. A. Al-Laham, 
 C. Y. Peng, A. Nanayakkara, M. Challacombe, P. M. W. Gill, 
 B. Johnson, W. Chen, M. W. Wong, C. Gonzalez, and J. A. Pople, 
 Gaussian, Inc., Wallingford CT, 2004.
 
 ******************************************
 Gaussian 03:  AM64L-G03RevD.01 13-Oct-2005
                10-Mar-2019 
 ******************************************
 %chk=input.chk
 %mem=1500mb
 %nproc=8
 Will use up to    8 processors via shared memory.
 -------------------------------------
 # freq nosymm b3lyp/cbsb7 iop(7/33=1)
 -------------------------------------
 1/10=4,30=1,38=1/1,3;
 2/15=1,17=6,18=5,40=1/2;
 3/5=4,6=6,7=700,11=2,16=1,25=1,30=1,74=-5/1,2,3;
 4//1;
 5/5=2,38=5/2;
 8/6=4,10=90,11=11/1;
 11/6=1,8=1,9=11,15=111,16=1,31=1/1,2,10;
 10/6=1,31=1/2;
 6/7=2,8=2,9=2,10=2,18=1,28=1/1;
 7/8=1,10=1,25=1,30=1,33=1/1,2,3,16;
 1/10=4,30=1/3;
 99//99;
 -------
 NBO NRT
 -------
 Symbolic Z-matrix:
 Charge =  0 Multiplicity = 1
 O                     7.7867   -1.48514  -2.51697 
 C                     8.65372  -0.95291  -1.63561 
 O                     8.93546   0.20858  -1.56064 
 H                     7.44836  -0.75632  -3.06122 
 H                     9.05948  -1.75131  -0.99914 
 

 GradGradGradGradGradGradGradGradGradGradGradGradGradGradGradGradGradGrad
 Berny optimization.
 Initialization pass.
 Trust Radius=3.00D-01 FncErr=1.00D-07 GrdErr=1.00D-07
 Number of steps in this run=   2 maximum allowed number of steps=   2.
 GradGradGradGradGradGradGradGradGradGradGradGradGradGradGradGradGradGrad

                          Input orientation:                          
 ---------------------------------------------------------------------
 Center     Atomic     Atomic              Coordinates (Angstroms)
 Number     Number      Type              X           Y           Z
 ---------------------------------------------------------------------
    1          8             0        7.786700   -1.485140   -2.516970
    2          6             0        8.653720   -0.952910   -1.635610
    3          8             0        8.935460    0.208580   -1.560640
    4          1             0        7.448360   -0.756320   -3.061220
    5          1             0        9.059480   -1.751310   -0.999140
 ---------------------------------------------------------------------
                    Distance matrix (angstroms):
                    1          2          3          4          5
     1  O    0.000000
     2  C    1.346027   0.000000
     3  O    2.258961   1.197521   0.000000
     4  H    0.970495   1.877206   2.322550   0.000000
     5  H    1.998655   1.098716   2.042506   2.799623   0.000000
 Symmetry turned off by external request.
 Stoichiometry    CH2O2
 Framework group  C1[X(CH2O2)]
 Deg. of freedom     9
 Full point group                 C1
 Rotational constants (GHZ):     77.9719582     12.0511639     10.4379056
 Standard basis: CBSB7 (5D, 7F)
 Integral buffers will be    131072 words long.
 Raffenetti 2 integral format.
 Two-electron integral symmetry is turned off.
    66 basis functions,   112 primitive gaussians,    69 cartesian basis functions
    12 alpha electrons       12 beta electrons
       nuclear repulsion energy        70.2199217959 Hartrees.
 NAtoms=    5 NActive=    5 NUniq=    5 SFac= 7.50D-01 NAtFMM=   80 NAOKFM=F Big=F
 One-electron integrals computed using PRISM.
 NBasis=    66 RedAO= T  NBF=    66
 NBsUse=    66 1.00D-06 NBFU=    66
 Harris functional with IExCor=  402 diagonalized for initial guess.
 ExpMin= 1.03D-01 ExpMax= 8.59D+03 ExpMxC= 1.30D+03 IAcc=1 IRadAn=         1 AccDes= 1.00D-06
 HarFok:  IExCor= 402 AccDes= 1.00D-06 IRadAn=         1 IDoV=1
 ScaDFX=  1.000000  1.000000  1.000000  1.000000
 Requested convergence on RMS density matrix=1.00D-08 within 128 cycles.
 Requested convergence on MAX density matrix=1.00D-06.
 Requested convergence on             energy=1.00D-06.
 No special actions if energy rises.
 Keep R1 integrals in memory in canonical form, NReq=     4702252.
 Integral accuracy reduced to 1.0D-05 until final iterations.
 Initial convergence to 1.0D-05 achieved.  Increase integral accuracy.
 SCF Done:  E(RB+HF-LYP) =  -189.819479640     A.U. after   13 cycles
             Convg  =    0.3534D-08             -V/T =  2.0026
             S**2   =   0.0000
 Range of M.O.s used for correlation:     1    66
 NBasis=    66 NAE=    12 NBE=    12 NFC=     0 NFV=     0
 NROrb=     66 NOA=    12 NOB=    12 NVA=    54 NVB=    54
 Symmetrizing basis deriv contribution to polar:
 IMax=3 JMax=2 DiffMx= 0.00D+00
 G2DrvN: will do    6 centers at a time, making    1 passes doing MaxLOS=2.
 FoFDir/FoFCou used for L=0 through L=2.
 DoAtom=TTTTT
          Differentiating once with respect to electric field.
                with respect to dipole field.
          Differentiating once with respect to nuclear coordinates.
          Store integrals in memory, NReq=     3738938.
          There are  18 degrees of freedom in the 1st order CPHF.
    15 vectors were produced by pass  0.
 AX will form  15 AO Fock derivatives at one time.
    15 vectors were produced by pass  1.
    15 vectors were produced by pass  2.
    15 vectors were produced by pass  3.
    15 vectors were produced by pass  4.
    10 vectors were produced by pass  5.
     3 vectors were produced by pass  6.
     1 vectors were produced by pass  7.
 Inv2:  IOpt= 1 Iter= 1 AM= 1.10D-15 Conv= 1.00D-12.
 Inverted reduced A of dimension   89 with in-core refinement.
 Isotropic polarizability for W=    0.000000       17.24 Bohr**3.
 End of Minotr Frequency-dependent properties file   721 does not exist.

 **********************************************************************

            Population analysis using the SCF density.

 **********************************************************************

 Alpha  occ. eigenvalues --  -19.18038 -19.12447 -10.31226  -1.12334  -1.03783
 Alpha  occ. eigenvalues --   -0.67305  -0.52760  -0.49621  -0.45759  -0.41459
 Alpha  occ. eigenvalues --   -0.33946  -0.29880
 Alpha virt. eigenvalues --   -0.00819   0.03400   0.07179   0.21197   0.23924
 Alpha virt. eigenvalues --    0.35686   0.37808   0.42533   0.44816   0.58067
 Alpha virt. eigenvalues --    0.62328   0.73098   0.77315   0.79756   0.84698
 Alpha virt. eigenvalues --    0.87877   0.90989   1.13395   1.23828   1.24498
 Alpha virt. eigenvalues --    1.36468   1.41703   1.41846   1.50957   1.57902
 Alpha virt. eigenvalues --    1.71462   1.78400   1.88465   2.15042   2.21700
 Alpha virt. eigenvalues --    2.43990   2.46826   2.47726   2.83809   2.85696
 Alpha virt. eigenvalues --    2.95210   3.04215   3.13588   3.20410   3.34314
 Alpha virt. eigenvalues --    3.41676   3.53027   3.67019   3.77948   3.88371
 Alpha virt. eigenvalues --    4.75276   4.85161   4.94480   5.19362   5.51132
 Alpha virt. eigenvalues --    5.70073  23.79298  49.79898  49.93652
          Condensed to atoms (all electrons):
              1          2          3          4          5
     1  O    7.811722   0.336425  -0.080304   0.287807  -0.062858
     2  C    0.336425   4.420407   0.621395  -0.026369   0.388653
     3  O   -0.080304   0.621395   7.808800   0.012228  -0.046099
     4  H    0.287807  -0.026369   0.012228   0.463523   0.013304
     5  H   -0.062858   0.388653  -0.046099   0.013304   0.607186
 Mulliken atomic charges:
              1
     1  O   -0.292790
     2  C    0.259488
     3  O   -0.316021
     4  H    0.249507
     5  H    0.099815
 Sum of Mulliken charges=   0.00000
 Atomic charges with hydrogens summed into heavy atoms:
              1
     1  O   -0.043283
     2  C    0.359303
     3  O   -0.316021
     4  H    0.000000
     5  H    0.000000
 Sum of Mulliken charges=   0.00000
 APT atomic charges:
              1
     1  O   -0.671585
     2  C    1.078815
     3  O   -0.688419
     4  H    0.283113
     5  H   -0.001924
 Sum of APT charges=   0.00000
 APT Atomic charges with hydrogens summed into heavy atoms:
              1
     1  O   -0.388471
     2  C    1.076891
     3  O   -0.688419
     4  H    0.000000
     5  H    0.000000
 Sum of APT charges=   0.00000
 Electronic spatial extent (au):  <R**2>=  6594.8968
 Charge=     0.0000 electrons
 Dipole moment (field-independent basis, Debye):
    X=    -0.7288    Y=    -1.0653    Z=    -0.6087  Tot=     1.4270
 Quadrupole moment (field-independent basis, Debye-Ang):
   XX=   -28.6617   YY=   -18.2924   ZZ=   -12.6898
   XY=   -11.1862   XZ=    -2.6962   YZ=     0.0300
 Traceless Quadrupole moment (field-independent basis, Debye-Ang):
   XX=    -8.7804   YY=     1.5889   ZZ=     7.1915
   XY=   -11.1862   XZ=    -2.6962   YZ=     0.0300
 Octapole moment (field-independent basis, Debye-Ang**2):
  XXX=  -571.5585  YYY=    43.0927  ZZZ=    77.1555  XYY=  -150.3306
  XXY=   -99.9003  XXZ=    27.2387  XZZ=  -115.9980  YZZ=    15.6154
  YYZ=    39.2864  XYZ=     3.6141
 Hexadecapole moment (field-independent basis, Debye-Ang**3):
 XXXX= -8838.6017 YYYY=  -135.6612 ZZZZ=  -330.3456 XXXY=  -793.2823
 XXXZ=   891.7273 YYYX=   342.5208 YYYZ=  -100.6890 ZZZX=   670.5510
 ZZZY=   -92.0838 XXYY= -1264.1825 XXZZ= -1117.5570 YYZZ=  -110.9293
 XXYZ=    30.9216 YYXZ=   319.4509 ZZXY=   122.9121
 N-N= 7.021992179590D+01 E-N=-5.878551215219D+02  KE= 1.893260808947D+02
  Exact polarizability:  14.856   1.766  20.844   5.164  -0.286  16.017
 Approx polarizability:  20.255   5.438  34.431   7.055   1.679  20.833
 Use density number 0.
 Entering OneElI...
 Calculate overlap and kinetic energy integrals
    NBasis =  69  MinDer = 2  MaxDer = 2
 Requested accuracy = 0.1000D-12
 PrsmSu:  NPrtUS=   1 ThrOK=F
 PRISM was handed   196561601 working-precision words and   276 shell-pairs
 Entering OneElI...
 Calculate potential energy integrals
    NBasis =  69  MinDer = 2  MaxDer = 2
 Requested accuracy = 0.1000D-12
 PrsmSu:  NPrtUS=   8 ThrOK=T
 PRISM was handed    24563104 working-precision words and   275 shell-pairs
 PRISM was handed    24563104 working-precision words and   275 shell-pairs
 PRISM was handed    24563104 working-precision words and   275 shell-pairs
 PRISM was handed    24563104 working-precision words and   275 shell-pairs
 PRISM was handed    24563104 working-precision words and   275 shell-pairs
 PRISM was handed    24563104 working-precision words and   275 shell-pairs
 PRISM was handed    24563104 working-precision words and   275 shell-pairs
 PRISM was handed    24563104 working-precision words and   275 shell-pairs
 Polarizability after L701:
                1             2             3
      1  0.148559D+02
      2  0.176620D+01  0.208435D+02
      3  0.516430D+01 -0.285534D+00  0.160167D+02
 Dipole Derivatives after L701:
               1            2            3            4            5
      1-0.767578D+00-0.175653D+00-0.400782D+00 0.886782D+00 0.411561D+00
      2-0.320239D+00-0.475916D+00-0.348288D+00 0.390826D+00 0.141975D+01
      3-0.369874D+00-0.182325D+00-0.771260D+00 0.598021D+00 0.231283D+00
               6            7            8            9           10
      1 0.593582D+00-0.513281D+00-0.311515D+00-0.110231D+00 0.342004D+00
      2 0.207582D+00-0.964275D-01-0.105796D+01 0.388002D-01-0.133585D-01
      3 0.929911D+00-0.156206D+00-0.207993D+00-0.494019D+00-0.944555D-02
              11           12           13           14           15
      1 0.219913D-01-0.170052D-01 0.520730D-01 0.536162D-01-0.655638D-01
      2 0.178796D+00 0.218719D-01 0.391983D-01-0.646752D-01 0.800341D-01
      3 0.624227D-01 0.328538D+00-0.624955D-01 0.966128D-01 0.682975D-02
 Hessian after L701:
                1             2             3             4             5
      1  0.724271D+01
      2 -0.222398D+01  0.827329D+01
      3 -0.578499D+01 -0.160657D+01  0.640035D+01
      4 -0.346089D+01  0.289085D+01  0.471772D+01  0.188899D+02
      5  0.274061D+01 -0.613416D+01  0.272330D+01 -0.605728D+01  0.583078D+01
      6  0.474987D+01  0.289577D+01 -0.327689D+01 -0.614951D+01 -0.277246D+01
      7  0.224473D+00  0.497873D+00  0.325109D+00 -0.128675D+02  0.403546D+01
      8  0.501436D+00  0.180901D+00  0.504420D+00  0.395533D+01  0.211316D+01
      9  0.324339D+00  0.500324D+00  0.113701D+00  0.784111D+00  0.112417D+01
     10 -0.395761D+01 -0.120503D+01  0.927651D+00  0.653705D-01  0.343263D-01
     11 -0.100677D+01 -0.244939D+01 -0.160306D+01 -0.518376D-01  0.196753D-01
     12  0.885242D+00 -0.183064D+01 -0.313354D+01  0.797654D-01  0.363834D-01
     13 -0.486777D-01  0.402795D-01 -0.185483D+00 -0.262690D+01 -0.753112D+00
     14 -0.112960D-01  0.129364D+00 -0.180874D-01 -0.737071D+00 -0.182945D+01
     15 -0.174457D+00  0.411117D-01 -0.103622D+00  0.567921D+00 -0.111138D+01
                6             7             8             9            10
      6  0.189105D+02
      7  0.766964D+00  0.125560D+02
      8  0.103218D+01 -0.442792D+01 -0.220549D+01
      9 -0.136280D+02 -0.125907D+01 -0.151413D+01  0.133567D+02
     10  0.613361D-01 -0.858750D-02  0.147770D+00  0.783929D-01  0.386880D+01
     11 -0.625299D-01  0.269245D-01 -0.621014D-01  0.218570D-01  0.107770D+01
     12  0.893344D-01  0.104243D+00  0.160567D+00 -0.191059D-01 -0.114743D+01
     13  0.571344D+00  0.955709D-01 -0.176618D+00  0.722250D-01  0.320225D-01
     14 -0.109296D+01 -0.132332D+00 -0.264679D-01 -0.132218D+00 -0.547673D-01
     15 -0.209487D+01  0.627519D-01 -0.183041D+00  0.176733D+00  0.800510D-01
               11            12            13            14            15
     11  0.249068D+01
     12  0.170268D+01  0.298633D+01
     13 -0.460154D-01  0.781809D-01  0.254799D+01
     14  0.113606D-02 -0.689920D-01  0.935466D+00  0.172542D+01
     15 -0.589433D-01  0.769779D-01 -0.536267D+00  0.131226D+01  0.194478D+01
 ReadGW:  IGet=0 IStart=          48 Next=        2259 LGW=        2211.
 ICntrl=12127.
 Symmetry not used in FoFDir.
 MinBra= 0 MaxBra= 2 Meth= 1.
 IRaf=       0 NMat=   1 IRICut=       1 DoRegI=T DoRafI=F ISym2E= 0 JSym2E=0.
 PrsmSu:  NPrtUS=   8 ThrOK=T
 PRISM was handed    24561942 working-precision words and   276 shell-pairs
 PRISM was handed    24561942 working-precision words and   276 shell-pairs
 PRISM was handed    24561942 working-precision words and   276 shell-pairs
 PRISM was handed    24561942 working-precision words and   276 shell-pairs
 PRISM was handed    24561942 working-precision words and   276 shell-pairs
 PRISM was handed    24561942 working-precision words and   276 shell-pairs
 PRISM was handed    24561942 working-precision words and   276 shell-pairs
 PRISM was handed    24561942 working-precision words and   276 shell-pairs
 Pruned (  75, 302) grid will be used in CalDFT.
 CkSvGd:  ISavGI=        -1 IRadAn=       4 IRASav=       4 ISavGd=        -1.
 CalDSu:  NPrtUS=   8 ThrOK=T
 IPart= 0 IRanGd=          0 ScrnBf=T ScrnGd=T RCrit=4.00D+00 DoMicB=T.
 IPart= 4 IRanGd=          0 ScrnBf=T ScrnGd=T RCrit=4.00D+00 DoMicB=T.
 IPart= 2 IRanGd=          0 ScrnBf=T ScrnGd=T RCrit=4.00D+00 DoMicB=T.
 CutRad = 1000.00    CtRdIn =    0.00    XCrit =  15.00   ICut = 0
 IPart= 6 IRanGd=          0 ScrnBf=T ScrnGd=T RCrit=4.00D+00 DoMicB=T.
 CutRad = 1000.00    CtRdIn =    0.00    XCrit =  15.00   ICut = 0
 CutRad = 1000.00    CtRdIn =    0.00    XCrit =  15.00   ICut = 0
 CutRad = 1000.00    CtRdIn =    0.00    XCrit =  15.00   ICut = 0
 IPart= 1 IRanGd=          0 ScrnBf=T ScrnGd=T RCrit=4.00D+00 DoMicB=T.
 IPart= 7 IRanGd=          0 ScrnBf=T ScrnGd=T RCrit=4.00D+00 DoMicB=T.
 CutRad = 1000.00    CtRdIn =    0.00    XCrit =  15.00   ICut = 0
 IPart= 3 IRanGd=          0 ScrnBf=T ScrnGd=T RCrit=4.00D+00 DoMicB=T.
 IPart= 5 IRanGd=          0 ScrnBf=T ScrnGd=T RCrit=4.00D+00 DoMicB=T.
 CutRad = 1000.00    CtRdIn =    0.00    XCrit =  15.00   ICut = 0
 CutRad = 1000.00    CtRdIn =    0.00    XCrit =  15.00   ICut = 0
 CutRad = 1000.00    CtRdIn =    0.00    XCrit =  15.00   ICut = 0
 IPart= 6         5381 of         6120 points in      13 batches and       26 microbatches, Max-NSigAt=       5 Max-NSgAt2=       5
 IPart= 5         4484 of         4714 points in      10 batches and       38 microbatches, Max-NSigAt=       5 Max-NSgAt2=       5
 IPart= 3         4270 of         4470 points in       9 batches and       40 microbatches, Max-NSigAt=       5 Max-NSgAt2=       5
 IPart= 0         4279 of         4480 points in      10 batches and       48 microbatches, Max-NSigAt=       5 Max-NSgAt2=       5
 IPart= 7         4597 of         4756 points in       9 batches and       30 microbatches, Max-NSigAt=       5 Max-NSgAt2=       5
 IPart= 1         4294 of         4490 points in      10 batches and       43 microbatches, Max-NSigAt=       5 Max-NSgAt2=       5
 IPart= 2         5303 of         5616 points in      11 batches and       24 microbatches, Max-NSigAt=       5 Max-NSgAt2=       5
 IPart= 4         4968 of         5244 points in      10 batches and       29 microbatches, Max-NSigAt=       5 Max-NSgAt2=       5
 Polarizability after L703:
                1             2             3
      1  0.148559D+02
      2  0.176620D+01  0.208435D+02
      3  0.516430D+01 -0.285534D+00  0.160167D+02
 Dipole Derivatives after L703:
               1            2            3            4            5
      1-0.767578D+00-0.175653D+00-0.400782D+00 0.886782D+00 0.411561D+00
      2-0.320239D+00-0.475916D+00-0.348288D+00 0.390826D+00 0.141975D+01
      3-0.369874D+00-0.182325D+00-0.771260D+00 0.598021D+00 0.231283D+00
               6            7            8            9           10
      1 0.593582D+00-0.513281D+00-0.311515D+00-0.110231D+00 0.342004D+00
      2 0.207582D+00-0.964275D-01-0.105796D+01 0.388002D-01-0.133585D-01
      3 0.929911D+00-0.156206D+00-0.207993D+00-0.494019D+00-0.944555D-02
              11           12           13           14           15
      1 0.219913D-01-0.170052D-01 0.520730D-01 0.536162D-01-0.655638D-01
      2 0.178796D+00 0.218719D-01 0.391983D-01-0.646752D-01 0.800341D-01
      3 0.624227D-01 0.328538D+00-0.624955D-01 0.966128D-01 0.682975D-02
 Hessian after L703:
                1             2             3             4             5
      1  0.250984D+00
      2 -0.214311D-01  0.475427D+00
      3  0.244695D+00 -0.117316D+00  0.347720D+00
      4 -0.160252D+00 -0.250238D-01 -0.107892D+00  0.390870D+00
      5 -0.441487D-01 -0.137322D+00 -0.344618D-01  0.941720D-01  0.104365D+01
      6 -0.103838D+00 -0.125120D-01 -0.178126D+00  0.206816D+00 -0.737147D-01
      7 -0.258570D-02 -0.593296D-01 -0.240596D-01 -0.122877D+00 -0.142324D+00
      8 -0.507291D-01 -0.412253D-01 -0.431167D-01 -0.136264D+00 -0.755056D+00
      9 -0.259084D-01 -0.529883D-01  0.110246D-01 -0.278667D-01 -0.176214D-01
     10 -0.792043D-01  0.919570D-01 -0.878961D-01 -0.141839D-01  0.285304D-01
     11  0.121925D+00 -0.306479D+00  0.201226D+00 -0.249470D-02  0.199207D-01
     12 -0.942612D-01  0.166832D+00 -0.163577D+00 -0.222336D-01  0.297059D-01
     13 -0.894273D-02  0.138274D-01 -0.248469D-01 -0.935570D-01  0.637699D-01
     14 -0.561604D-02  0.959894D-02 -0.633245D-02  0.696105D-01 -0.171189D+00
     15 -0.206873D-01  0.159840D-01 -0.170417D-01 -0.488233D-01  0.960920D-01
                6             7             8             9            10
      6  0.446329D+00
      7 -0.265697D-01  0.105498D+00
      8 -0.106489D-01  0.196391D+00  0.840003D+00
      9 -0.101421D+00  0.452697D-01  0.521454D-01  0.702627D-01
     10 -0.288393D-01  0.769034D-03  0.681314D-04  0.901767D-02  0.918244D-01
     11 -0.591712D-02  0.168452D-03 -0.498929D-02 -0.252471D-03 -0.117340D+00
     12 -0.262114D-01  0.898375D-02 -0.382089D-03  0.331060D-02  0.113541D+00
     13 -0.475688D-01  0.191955D-01 -0.946592D-02 -0.512318D-03  0.794720D-03
     14  0.102793D+00  0.509379D-02 -0.387332D-01  0.187167D-01 -0.321544D-02
     15 -0.140571D+00 -0.362416D-02  0.200221D-02  0.168233D-01 -0.582364D-02
               11            12            13            14            15
     11  0.290824D+00
     12 -0.193695D+00  0.186403D+00
     13 -0.225862D-02 -0.603033D-02  0.825096D-01
     14  0.723858D-03 -0.246070D-02 -0.658728D-01  0.199600D+00
     15 -0.136182D-02  0.748979D-04  0.789583D-01 -0.112716D+00  0.140714D+00
 FrcOut:
 IF    =   180 IFX   =   195 IFXYZ =   210
 IFFX  =   225 IFFFX =   345 IFLen =    15
 IFFLen=   120 IFFFLn=     0 IEDerv=   345
 LEDerv=   773 IFroze=  1122 ICStrt= 10025
 DipoleDeriv   =-7.67577955D-01-3.20238749D-01-3.69874309D-01
                -1.75652802D-01-4.75915567D-01-1.82325021D-01
                -4.00781950D-01-3.48288461D-01-7.71260121D-01
                 8.86781806D-01 3.90826462D-01 5.98021432D-01
                 4.11560567D-01 1.41975135D+00 2.31282924D-01
                 5.93581841D-01 2.07582299D-01 9.29911124D-01
                -5.13281155D-01-9.64275228D-02-1.56206092D-01
                -3.11515251D-01-1.05795710D+00-2.07993466D-01
                -1.10230969D-01 3.88001992D-02-4.94019195D-01
                 3.42004278D-01-1.33584958D-02-9.44554740D-03
                 2.19912907D-02 1.78796475D-01 6.24227357D-02
                -1.70051711D-02 2.18718542D-02 3.28538444D-01
                 5.20730258D-02 3.91983051D-02-6.24954833D-02
                 5.36161951D-02-6.46751519D-02 9.66128282D-02
                -6.55637502D-02 8.00341088D-02 6.82974956D-03
 Full mass-weighted force constant matrix:
 Low frequencies ---   -0.0016   -0.0013   -0.0003    4.5233   10.1313   16.5090
 Low frequencies ---  632.7663  700.8772 1057.8380
 Dipole derivatives wrt mode   1: -4.31805D+00  1.13519D+00 -5.24404D+00
 Vibrational polarizability contributions from mode   1       1.2532061       0.0866133       1.8483237
 Vibrational hyperpolarizability contributions from mode   1       0.0000000       0.0000000       0.0000000
 Dipole derivatives wrt mode   2:  9.15423D+00 -1.70977D+00 -7.96434D+00
 Vibrational polarizability contributions from mode   2       4.5908513       0.1601490       3.4749529
 Vibrational hyperpolarizability contributions from mode   2       0.0000000       0.0000000       0.0000000
 Dipole derivatives wrt mode   3:  9.25227D-01 -1.76549D-01 -8.14872D-01
 Vibrational polarizability contributions from mode   3       0.0205869       0.0007496       0.0159689
 Vibrational hyperpolarizability contributions from mode   3       0.0000000       0.0000000       0.0000000
 Dipole derivatives wrt mode   4: -1.03846D+01 -5.34538D+00 -1.07666D+01
 Vibrational polarizability contributions from mode   4       2.2647352       0.6000605       2.4344370
 Vibrational hyperpolarizability contributions from mode   4       0.0000000       0.0000000       0.0000000
 Dipole derivatives wrt mode   5:  1.65584D+00 -5.33676D-01  2.01939D+00
 Vibrational polarizability contributions from mode   5       0.0429789       0.0044645       0.0639236
 Vibrational hyperpolarizability contributions from mode   5       0.0000000       0.0000000       0.0000000
 Dipole derivatives wrt mode   6:  8.86299D-01 -1.08897D+00  1.24761D+00
 Vibrational polarizability contributions from mode   6       0.0106154       0.0160254       0.0210344
 Vibrational hyperpolarizability contributions from mode   6       0.0000000       0.0000000       0.0000000
 Dipole derivatives wrt mode   7:  8.05620D+00  1.54685D+01  5.93736D+00
 Vibrational polarizability contributions from mode   7       0.5180933       1.9100495       0.2814068
 Vibrational hyperpolarizability contributions from mode   7       0.0000000       0.0000000       0.0000000
 Dipole derivatives wrt mode   8:  2.51672D+00 -5.58743D+00  4.08481D+00
 Vibrational polarizability contributions from mode   8       0.0184040       0.0907120       0.0484823
 Vibrational hyperpolarizability contributions from mode   8       0.0000000       0.0000000       0.0000000
 Dipole derivatives wrt mode   9:  3.55476D+00 -3.70196D+00  4.87053D+00
 Vibrational polarizability contributions from mode   9       0.0243470       0.0264051       0.0457063
 Vibrational hyperpolarizability contributions from mode   9       0.0000000       0.0000000       0.0000000
 Diagonal vibrational polarizability:
        8.7438181       2.8952290       8.2342359
 Harmonic frequencies (cm**-1), IR intensities (KM/Mole), Raman scattering
 activities (A**4/AMU), depolarization ratios for plane and unpolarized
 incident light, reduced masses (AMU), force constants (mDyne/A),
 and normal coordinates:
                           1         2         3         4         5
                           A         A         A         A         A
       Frequencies ---   632.7663  700.8772 1057.8380 1132.0029 1310.2550
    Reduced masses ---     3.4599    1.2604    1.5711    3.5004    1.7074
   Force constants ---     0.8162    0.3648    1.0359    2.6428    1.7270
    IR Intensities ---    47.4342  150.1540    1.5512  252.3335    7.1045
 Coord Atom Element:
   1     1     8         -0.08027  -0.07038   0.02559   0.20264  -0.03355
   2     1     8         -0.19833   0.01349  -0.00471   0.15473   0.06638
   3     1     8         -0.04915   0.06159  -0.02219   0.19941  -0.05275
   1     2     6         -0.08114   0.06677  -0.15913  -0.16954   0.14251
   2     2     6          0.17477  -0.01268   0.02961   0.00067  -0.01726
   3     2     6         -0.13103  -0.05793   0.13852  -0.19482   0.16733
   1     3     8          0.17833  -0.03430   0.04175  -0.02984  -0.03411
   2     3     8          0.10081   0.00615  -0.00781  -0.10775   0.00073
   3     3     8          0.18340   0.02937  -0.03639  -0.01122  -0.03934
   1     4     1         -0.45383   0.72659   0.10576  -0.38178  -0.53613
   2     4     1         -0.63402  -0.13462  -0.01982  -0.52941  -0.54466
   3     4     1         -0.39124  -0.63244  -0.09229  -0.32360  -0.49848
   1     5     1         -0.13634   0.13979   0.72015  -0.34191  -0.08694
   2     5     1          0.10082  -0.02621  -0.13404  -0.22438  -0.31494
   3     5     1         -0.17932  -0.12146  -0.62741  -0.34338  -0.03247
                           6         7         8         9
                           A         A         A         A
       Frequencies ---  1411.1699 1836.0841 3043.3116 3737.2687
    Reduced masses ---     1.1380    8.1793    1.0917    1.0637
   Force constants ---     1.3352   16.2462    5.9573    8.7537
    IR Intensities ---     3.5279  339.4292   54.2389   50.0629
 Coord Atom Element:
   1     1     8          0.00421  -0.02097   0.00017  -0.02209
   2     1     8         -0.04494  -0.05692   0.00139   0.04483
   3     1     8          0.01446  -0.01191  -0.00010  -0.03493
   1     2     6          0.01644   0.16904   0.03059  -0.00204
   2     2     6         -0.00047   0.60481  -0.06528   0.00223
   3     2     6          0.01900   0.06473   0.04906  -0.00283
   1     3     8          0.00405  -0.09827   0.00063   0.00043
   2     3     8          0.07630  -0.41488   0.00412   0.00046
   3     3     8         -0.01167  -0.02408  -0.00015   0.00041
   1     4     1          0.18294   0.21658   0.00144   0.36306
   2     4     1          0.17233   0.22789  -0.02083  -0.73193
   3     4     1          0.17291   0.19983   0.00612   0.57312
   1     5     1         -0.50989  -0.33687  -0.37844   0.00486
   2     5     1         -0.66444   0.05858   0.71061  -0.01326
   3     5     1         -0.44341  -0.39945  -0.58628   0.00837
 Harmonic frequencies (cm**-1), IR intensities (KM/Mole), Raman scattering
 activities (A**4/AMU), depolarization ratios for plane and unpolarized
 incident light, reduced masses (AMU), force constants (mDyne/A),
 and normal coordinates:
                     1                      2                      3
                     A                      A                      A
 Frequencies --   632.7663               700.8772              1057.8380
 Red. masses --     3.4599                 1.2604                 1.5711
 Frc consts  --     0.8162                 0.3648                 1.0359
 IR Inten    --    47.4342               150.1540                 1.5512
 Atom AN      X      Y      Z        X      Y      Z        X      Y      Z
   1   8    -0.08  -0.20  -0.05    -0.07   0.01   0.06     0.03   0.00  -0.02
   2   6    -0.08   0.17  -0.13     0.07  -0.01  -0.06    -0.16   0.03   0.14
   3   8     0.18   0.10   0.18    -0.03   0.01   0.03     0.04  -0.01  -0.04
   4   1    -0.45  -0.63  -0.39     0.73  -0.13  -0.63     0.11  -0.02  -0.09
   5   1    -0.14   0.10  -0.18     0.14  -0.03  -0.12     0.72  -0.13  -0.63
                     4                      5                      6
                     A                      A                      A
 Frequencies --  1132.0029              1310.2550              1411.1699
 Red. masses --     3.5004                 1.7074                 1.1380
 Frc consts  --     2.6428                 1.7270                 1.3352
 IR Inten    --   252.3335                 7.1045                 3.5279
 Atom AN      X      Y      Z        X      Y      Z        X      Y      Z
   1   8     0.20   0.15   0.20    -0.03   0.07  -0.05     0.00  -0.04   0.01
   2   6    -0.17   0.00  -0.19     0.14  -0.02   0.17     0.02   0.00   0.02
   3   8    -0.03  -0.11  -0.01    -0.03   0.00  -0.04     0.00   0.08  -0.01
   4   1    -0.38  -0.53  -0.32    -0.54  -0.54  -0.50     0.18   0.17   0.17
   5   1    -0.34  -0.22  -0.34    -0.09  -0.31  -0.03    -0.51  -0.66  -0.44
                     7                      8                      9
                     A                      A                      A
 Frequencies --  1836.0841              3043.3116              3737.2687
 Red. masses --     8.1793                 1.0917                 1.0637
 Frc consts  --    16.2462                 5.9573                 8.7537
 IR Inten    --   339.4292                54.2389                50.0629
 Atom AN      X      Y      Z        X      Y      Z        X      Y      Z
   1   8    -0.02  -0.06  -0.01     0.00   0.00   0.00    -0.02   0.04  -0.03
   2   6     0.17   0.60   0.06     0.03  -0.07   0.05     0.00   0.00   0.00
   3   8    -0.10  -0.41  -0.02     0.00   0.00   0.00     0.00   0.00   0.00
   4   1     0.22   0.23   0.20     0.00  -0.02   0.01     0.36  -0.73   0.57
   5   1    -0.34   0.06  -0.40    -0.38   0.71  -0.59     0.00  -0.01   0.01

 -------------------
 - Thermochemistry -
 -------------------
 Temperature   298.150 Kelvin.  Pressure   1.00000 Atm.
 Atom  1 has atomic number  8 and mass  15.99491
 Atom  2 has atomic number  6 and mass  12.00000
 Atom  3 has atomic number  8 and mass  15.99491
 Atom  4 has atomic number  1 and mass   1.00783
 Atom  5 has atomic number  1 and mass   1.00783
 Molecular mass:    46.00548 amu.
 Principal axes and moments of inertia in atomic units:
                           1         2         3
     EIGENVALUES --    23.14603 149.75659 172.90262
           X            0.52597  -0.40725   0.74666
           Y            0.72215   0.67760  -0.13913
           Z            0.44928  -0.61238  -0.65050
 This molecule is an asymmetric top.
 Rotational symmetry number  1.
 Rotational temperatures (Kelvin)      3.74206     0.57836     0.50094
 Rotational constants (GHZ):          77.97196    12.05116    10.43791
 Zero-point vibrational energy      88892.0 (Joules/Mol)
                                   21.24569 (Kcal/Mol)
 Vibrational temperatures:    910.41  1008.40  1521.99  1628.70  1885.16
          (Kelvin)           2030.36  2641.71  4378.64  5377.09
 
 Zero-point correction=                           0.033857 (Hartree/Particle)
 Thermal correction to Energy=                    0.037015
 Thermal correction to Enthalpy=                  0.037959
 Thermal correction to Gibbs Free Energy=         0.009783
 Sum of electronic and zero-point Energies=           -189.785622
 Sum of electronic and thermal Energies=              -189.782464
 Sum of electronic and thermal Enthalpies=            -189.781520
 Sum of electronic and thermal Free Energies=         -189.809696
 
                     E (Thermal)             CV                S
                      KCal/Mol        Cal/Mol-Kelvin    Cal/Mol-Kelvin
 Total                   23.227              8.591             59.302
 Electronic               0.000              0.000              0.000
 Translational            0.889              2.981             37.404
 Rotational               0.889              2.981             21.021
 Vibrational             21.450              2.630              0.876
                       Q            Log10(Q)             Ln(Q)
 Total Bot       0.316217D-04         -4.500014        -10.361666
 Total V=0       0.118349D+12         11.073164         25.496902
 Vib (Bot)       0.294197D-15        -15.531362        -35.762283
 Vib (V=0)       0.110107D+01          0.041816          0.096285
 Electronic      0.100000D+01          0.000000          0.000000
 Translational   0.122651D+08          7.088670         16.322265
 Rotational      0.876352D+04          3.942678          9.078352
 -------------------------------------------------------------------
 Center     Atomic                   Forces (Hartrees/Bohr)
 Number     Number              X              Y              Z
 -------------------------------------------------------------------
    1          8          -0.000014521   -0.000022450   -0.000012074
    2          6           0.000048549    0.000169453    0.000017941
    3          8          -0.000031928   -0.000162519   -0.000000380
    4          1          -0.000003487    0.000010799   -0.000009529
    5          1           0.000001387    0.000004717    0.000004041
 -------------------------------------------------------------------
 Cartesian Forces:  Max     0.000169453 RMS     0.000063217
 ------------------------------------------------------------------------
           Internal Coordinate Forces (Hartree/Bohr or radian)
 Cent Atom N1     Length/X     N2     Alpha/Y      N3      Beta/Z       J
 ------------------------------------------------------------------------
   1  O        -0.000015(   1)     -0.000022(   6)     -0.000012(  11)
   2  C         0.000049(   2)      0.000169(   7)      0.000018(  12)
   3  O        -0.000032(   3)     -0.000163(   8)      0.000000(  13)
   4  H        -0.000003(   4)      0.000011(   9)     -0.000010(  14)
   5  H         0.000001(   5)      0.000005(  10)      0.000004(  15)
 ------------------------------------------------------------------------
 Internal  Forces:  Max     0.000169453 RMS     0.000063217
 Force constants in Cartesian coordinates: 
                1             2             3             4             5
      1  0.250984D+00
      2 -0.214311D-01  0.475427D+00
      3  0.244695D+00 -0.117316D+00  0.347720D+00
      4 -0.160252D+00 -0.250238D-01 -0.107892D+00  0.390870D+00
      5 -0.441487D-01 -0.137322D+00 -0.344618D-01  0.941720D-01  0.104365D+01
      6 -0.103838D+00 -0.125120D-01 -0.178126D+00  0.206816D+00 -0.737147D-01
      7 -0.258570D-02 -0.593296D-01 -0.240596D-01 -0.122877D+00 -0.142324D+00
      8 -0.507291D-01 -0.412253D-01 -0.431167D-01 -0.136264D+00 -0.755056D+00
      9 -0.259084D-01 -0.529883D-01  0.110246D-01 -0.278667D-01 -0.176214D-01
     10 -0.792043D-01  0.919570D-01 -0.878961D-01 -0.141839D-01  0.285304D-01
     11  0.121925D+00 -0.306479D+00  0.201226D+00 -0.249470D-02  0.199207D-01
     12 -0.942612D-01  0.166832D+00 -0.163577D+00 -0.222336D-01  0.297059D-01
     13 -0.894273D-02  0.138274D-01 -0.248469D-01 -0.935570D-01  0.637699D-01
     14 -0.561604D-02  0.959894D-02 -0.633245D-02  0.696105D-01 -0.171189D+00
     15 -0.206873D-01  0.159840D-01 -0.170417D-01 -0.488233D-01  0.960920D-01
                6             7             8             9            10
      6  0.446329D+00
      7 -0.265697D-01  0.105498D+00
      8 -0.106489D-01  0.196391D+00  0.840003D+00
      9 -0.101421D+00  0.452697D-01  0.521454D-01  0.702627D-01
     10 -0.288393D-01  0.769034D-03  0.681314D-04  0.901767D-02  0.918244D-01
     11 -0.591712D-02  0.168452D-03 -0.498929D-02 -0.252471D-03 -0.117340D+00
     12 -0.262114D-01  0.898375D-02 -0.382089D-03  0.331060D-02  0.113541D+00
     13 -0.475688D-01  0.191955D-01 -0.946592D-02 -0.512318D-03  0.794720D-03
     14  0.102793D+00  0.509379D-02 -0.387332D-01  0.187167D-01 -0.321544D-02
     15 -0.140571D+00 -0.362416D-02  0.200221D-02  0.168233D-01 -0.582364D-02
               11            12            13            14            15
     11  0.290824D+00
     12 -0.193695D+00  0.186403D+00
     13 -0.225862D-02 -0.603033D-02  0.825096D-01
     14  0.723858D-03 -0.246070D-02 -0.658728D-01  0.199600D+00
     15 -0.136182D-02  0.748979D-04  0.789583D-01 -0.112716D+00  0.140714D+00
 FCInt: Cartesian first derivatives: 
               1            2            3            4            5
      1-0.145210D-04 0.485493D-04-0.319275D-04-0.348731D-05 0.138658D-05
      2-0.224502D-04 0.169453D-03-0.162519D-03 0.107990D-04 0.471732D-05
      3-0.120737D-04 0.179409D-04 0.000000D+00-0.952862D-05 0.404128D-05
 FCInt: Cartesian force constants: 
                1             2             3             4             5
      1  0.250984D+00
      2 -0.214311D-01  0.475427D+00
      3  0.244695D+00 -0.117316D+00  0.347720D+00
      4 -0.160252D+00 -0.250238D-01 -0.107892D+00  0.390870D+00
      5 -0.441487D-01 -0.137322D+00 -0.344618D-01  0.941720D-01  0.104365D+01
      6 -0.103838D+00 -0.125120D-01 -0.178126D+00  0.206816D+00 -0.737147D-01
      7 -0.258570D-02 -0.593296D-01 -0.240596D-01 -0.122877D+00 -0.142324D+00
      8 -0.507291D-01 -0.412253D-01 -0.431167D-01 -0.136264D+00 -0.755056D+00
      9 -0.259084D-01 -0.529883D-01  0.110246D-01 -0.278667D-01 -0.176214D-01
     10 -0.792043D-01  0.919570D-01 -0.878961D-01 -0.141839D-01  0.285304D-01
     11  0.121925D+00 -0.306479D+00  0.201226D+00 -0.249470D-02  0.199207D-01
     12 -0.942612D-01  0.166832D+00 -0.163577D+00 -0.222336D-01  0.297059D-01
     13 -0.894273D-02  0.138274D-01 -0.248469D-01 -0.935570D-01  0.637699D-01
     14 -0.561604D-02  0.959894D-02 -0.633245D-02  0.696105D-01 -0.171189D+00
     15 -0.206873D-01  0.159840D-01 -0.170417D-01 -0.488233D-01  0.960920D-01
                6             7             8             9            10
      6  0.446329D+00
      7 -0.265697D-01  0.105498D+00
      8 -0.106489D-01  0.196391D+00  0.840003D+00
      9 -0.101421D+00  0.452697D-01  0.521454D-01  0.702627D-01
     10 -0.288393D-01  0.769034D-03  0.681314D-04  0.901767D-02  0.918244D-01
     11 -0.591712D-02  0.168452D-03 -0.498929D-02 -0.252471D-03 -0.117340D+00
     12 -0.262114D-01  0.898375D-02 -0.382089D-03  0.331060D-02  0.113541D+00
     13 -0.475688D-01  0.191955D-01 -0.946592D-02 -0.512318D-03  0.794720D-03
     14  0.102793D+00  0.509379D-02 -0.387332D-01  0.187167D-01 -0.321544D-02
     15 -0.140571D+00 -0.362416D-02  0.200221D-02  0.168233D-01 -0.582364D-02
               11            12            13            14            15
     11  0.290824D+00
     12 -0.193695D+00  0.186403D+00
     13 -0.225862D-02 -0.603033D-02  0.825096D-01
     14  0.723858D-03 -0.246070D-02 -0.658728D-01  0.199600D+00
     15 -0.136182D-02  0.748979D-04  0.789583D-01 -0.112716D+00  0.140714D+00
 Internal force constants: 
                1             2             3             4             5
      1  0.250984D+00
      2 -0.160252D+00  0.390870D+00
      3 -0.258570D-02 -0.122877D+00  0.105498D+00
      4 -0.792043D-01 -0.141839D-01  0.769034D-03  0.918244D-01
      5 -0.894273D-02 -0.935570D-01  0.191955D-01  0.794720D-03  0.825096D-01
      6 -0.214311D-01 -0.250238D-01 -0.593296D-01  0.919570D-01  0.138274D-01
      7 -0.441487D-01  0.941720D-01 -0.142324D+00  0.285304D-01  0.637699D-01
      8 -0.507291D-01 -0.136264D+00  0.196391D+00  0.681314D-04 -0.946592D-02
      9  0.121925D+00 -0.249470D-02  0.168452D-03 -0.117340D+00 -0.225862D-02
     10 -0.561604D-02  0.696105D-01  0.509379D-02 -0.321544D-02 -0.658728D-01
     11  0.244695D+00 -0.107892D+00 -0.240596D-01 -0.878961D-01 -0.248469D-01
     12 -0.103838D+00  0.206816D+00 -0.265697D-01 -0.288393D-01 -0.475688D-01
     13 -0.259084D-01 -0.278667D-01  0.452697D-01  0.901767D-02 -0.512318D-03
     14 -0.942612D-01 -0.222336D-01  0.898375D-02  0.113541D+00 -0.603033D-02
     15 -0.206873D-01 -0.488233D-01 -0.362416D-02 -0.582364D-02  0.789583D-01
                6             7             8             9            10
      6  0.475427D+00
      7 -0.137322D+00  0.104365D+01
      8 -0.412253D-01 -0.755056D+00  0.840003D+00
      9 -0.306479D+00  0.199207D-01 -0.498929D-02  0.290824D+00
     10  0.959894D-02 -0.171189D+00 -0.387332D-01  0.723858D-03  0.199600D+00
     11 -0.117316D+00 -0.344618D-01 -0.431167D-01  0.201226D+00 -0.633245D-02
     12 -0.125120D-01 -0.737147D-01 -0.106489D-01 -0.591712D-02  0.102793D+00
     13 -0.529883D-01 -0.176214D-01  0.521454D-01 -0.252471D-03  0.187167D-01
     14  0.166832D+00  0.297059D-01 -0.382089D-03 -0.193695D+00 -0.246070D-02
     15  0.159840D-01  0.960920D-01  0.200221D-02 -0.136182D-02 -0.112716D+00
               11            12            13            14            15
     11  0.347720D+00
     12 -0.178126D+00  0.446329D+00
     13  0.110246D-01 -0.101421D+00  0.702627D-01
     14 -0.163577D+00 -0.262114D-01  0.331060D-02  0.186403D+00
     15 -0.170417D-01 -0.140571D+00  0.168233D-01  0.748979D-04  0.140714D+00
 Force constants in internal coordinates: 
                1             2             3             4             5
      1  0.250984D+00
      2 -0.160252D+00  0.390870D+00
      3 -0.258570D-02 -0.122877D+00  0.105498D+00
      4 -0.792043D-01 -0.141839D-01  0.769034D-03  0.918244D-01
      5 -0.894273D-02 -0.935570D-01  0.191955D-01  0.794720D-03  0.825096D-01
      6 -0.214311D-01 -0.250238D-01 -0.593296D-01  0.919570D-01  0.138274D-01
      7 -0.441487D-01  0.941720D-01 -0.142324D+00  0.285304D-01  0.637699D-01
      8 -0.507291D-01 -0.136264D+00  0.196391D+00  0.681314D-04 -0.946592D-02
      9  0.121925D+00 -0.249470D-02  0.168452D-03 -0.117340D+00 -0.225862D-02
     10 -0.561604D-02  0.696105D-01  0.509379D-02 -0.321544D-02 -0.658728D-01
     11  0.244695D+00 -0.107892D+00 -0.240596D-01 -0.878961D-01 -0.248469D-01
     12 -0.103838D+00  0.206816D+00 -0.265697D-01 -0.288393D-01 -0.475688D-01
     13 -0.259084D-01 -0.278667D-01  0.452697D-01  0.901767D-02 -0.512318D-03
     14 -0.942612D-01 -0.222336D-01  0.898375D-02  0.113541D+00 -0.603033D-02
     15 -0.206873D-01 -0.488233D-01 -0.362416D-02 -0.582364D-02  0.789583D-01
                6             7             8             9            10
      6  0.475427D+00
      7 -0.137322D+00  0.104365D+01
      8 -0.412253D-01 -0.755056D+00  0.840003D+00
      9 -0.306479D+00  0.199207D-01 -0.498929D-02  0.290824D+00
     10  0.959894D-02 -0.171189D+00 -0.387332D-01  0.723858D-03  0.199600D+00
     11 -0.117316D+00 -0.344618D-01 -0.431167D-01  0.201226D+00 -0.633245D-02
     12 -0.125120D-01 -0.737147D-01 -0.106489D-01 -0.591712D-02  0.102793D+00
     13 -0.529883D-01 -0.176214D-01  0.521454D-01 -0.252471D-03  0.187167D-01
     14  0.166832D+00  0.297059D-01 -0.382089D-03 -0.193695D+00 -0.246070D-02
     15  0.159840D-01  0.960920D-01  0.200221D-02 -0.136182D-02 -0.112716D+00
               11            12            13            14            15
     11  0.347720D+00
     12 -0.178126D+00  0.446329D+00
     13  0.110246D-01 -0.101421D+00  0.702627D-01
     14 -0.163577D+00 -0.262114D-01  0.331060D-02  0.186403D+00
     15 -0.170417D-01 -0.140571D+00  0.168233D-01  0.748979D-04  0.140714D+00
 Final forces over variables, Energy=-1.89819480D+02:
 -1.45210043D-05 4.85492682D-05-3.19275291D-05-3.48731172D-06
  1.38657703D-06-2.24501953D-05 1.69453099D-04-1.62519262D-04
  1.07990364D-05 4.71732153D-06-1.20736943D-05 1.79408906D-05
 -3.79858272D-07-9.52861922D-06 4.04128115D-06

 GradGradGradGradGradGradGradGradGradGradGradGradGradGradGradGradGradGrad
 Berny optimization.
 Search for a local minimum.
 Step number   1 out of a maximum of   2
 All quantities printed in internal units (Hartrees-Bohrs-Radians)
 Second derivative matrix not updated -- analytic derivatives used.
 The second derivative matrix:
                          X1        Y1        Z1        X2        Y2
           X1           0.25098
           Y1          -0.02143   0.47543
           Z1           0.24469  -0.11732   0.34772
           X2          -0.16025  -0.02502  -0.10789   0.39087
           Y2          -0.04415  -0.13732  -0.03446   0.09417   1.04365
           Z2          -0.10384  -0.01251  -0.17813   0.20682  -0.07371
           X3          -0.00259  -0.05933  -0.02406  -0.12288  -0.14232
           Y3          -0.05073  -0.04123  -0.04312  -0.13626  -0.75506
           Z3          -0.02591  -0.05299   0.01102  -0.02787  -0.01762
           X4          -0.07920   0.09196  -0.08790  -0.01418   0.02853
           Y4           0.12192  -0.30648   0.20123  -0.00249   0.01992
           Z4          -0.09426   0.16683  -0.16358  -0.02223   0.02971
           X5          -0.00894   0.01383  -0.02485  -0.09356   0.06377
           Y5          -0.00562   0.00960  -0.00633   0.06961  -0.17119
           Z5          -0.02069   0.01598  -0.01704  -0.04882   0.09609
                          Z2        X3        Y3        Z3        X4
           Z2           0.44633
           X3          -0.02657   0.10550
           Y3          -0.01065   0.19639   0.84000
           Z3          -0.10142   0.04527   0.05215   0.07026
           X4          -0.02884   0.00077   0.00007   0.00902   0.09182
           Y4          -0.00592   0.00017  -0.00499  -0.00025  -0.11734
           Z4          -0.02621   0.00898  -0.00038   0.00331   0.11354
           X5          -0.04757   0.01920  -0.00947  -0.00051   0.00079
           Y5           0.10279   0.00509  -0.03873   0.01872  -0.00322
           Z5          -0.14057  -0.00362   0.00200   0.01682  -0.00582
                          Y4        Z4        X5        Y5        Z5
           Y4           0.29082
           Z4          -0.19370   0.18640
           X5          -0.00226  -0.00603   0.08251
           Y5           0.00072  -0.00246  -0.06587   0.19960
           Z5          -0.00136   0.00007   0.07896  -0.11272   0.14071
     Eigenvalues ---    0.03410   0.04512   0.11302   0.23400   0.23716
     Eigenvalues ---    0.52924   0.73650   1.00466   1.77347
 Angle between quadratic step and forces=  47.21 degrees.
 Linear search not attempted -- first point.
 TrRot=  0.000023  0.000181  0.000002 -0.000006  0.000000 -0.000006
 Variable       Old X    -DE/DX   Delta X   Delta X   Delta X     New X
                                 (Linear)    (Quad)   (Total)
    X1       14.71473  -0.00001   0.00000  -0.00003  -0.00004  14.71469
    Y1       -2.80651  -0.00002   0.00000  -0.00002  -0.00001  -2.80652
    Z1       -4.75638  -0.00001   0.00000  -0.00002  -0.00001  -4.75640
    X2       16.35316   0.00005   0.00000   0.00004   0.00004  16.35320
    Y2       -1.80074   0.00017   0.00000   0.00011   0.00009  -1.80065
    Z2       -3.09085   0.00002   0.00000   0.00001   0.00002  -3.09084
    X3       16.88557  -0.00003   0.00000   0.00001   0.00004  16.88561
    Y3        0.39416  -0.00016   0.00000  -0.00010  -0.00012   0.39404
    Z3       -2.94918   0.00000   0.00000   0.00004   0.00005  -2.94913
    X4       14.07536   0.00000   0.00000  -0.00006  -0.00006  14.07531
    Y4       -1.42924   0.00001   0.00000  -0.00004  -0.00003  -1.42927
    Z4       -5.78487  -0.00001   0.00000  -0.00009  -0.00008  -5.78495
    X5       17.11994   0.00000   0.00000   0.00004   0.00002  17.11995
    Y5       -3.30950   0.00000   0.00000   0.00010   0.00007  -3.30942
    Z5       -1.88810   0.00000   0.00000   0.00002   0.00003  -1.88808
         Item               Value     Threshold  Converged?
 Maximum Force            0.000169     0.000450     YES
 RMS     Force            0.000063     0.000300     YES
 Maximum Displacement     0.000118     0.001800     YES
 RMS     Displacement     0.000056     0.001200     YES
 Predicted change in Energy=-1.878860D-08
 Optimization completed.
    -- Stationary point found.
 GradGradGradGradGradGradGradGradGradGradGradGradGradGradGradGradGradGrad


 Test job not archived.
 1\1\GINC-NODE31\Freq\RB3LYP\CBSB7\C1H2O2\GOLDMANM\10-Mar-2019\0\\# fre
 q nosymm b3lyp/cbsb7 iop(7/33=1)\\NBO NRT\\0,1\O,7.7867,-1.48514,-2.51
 697\C,8.65372,-0.95291,-1.63561\O,8.93546,0.20858,-1.56064\H,7.44836,-
 0.75632,-3.06122\H,9.05948,-1.75131,-0.99914\\Version=AM64L-G03RevD.01
 \HF=-189.8194796\RMSD=3.534e-09\RMSF=6.322e-05\ZeroPoint=0.0338572\The
 rmal=0.0370152\Dipole=-0.2867181,-0.4191131,-0.239464\DipoleDeriv=-0.7
 67578,-0.3202387,-0.3698743,-0.1756528,-0.4759156,-0.182325,-0.400782,
 -0.3482885,-0.7712601,0.8867818,0.3908265,0.5980214,0.4115606,1.419751
 3,0.2312829,0.5935818,0.2075823,0.9299111,-0.5132812,-0.0964275,-0.156
 2061,-0.3115153,-1.0579571,-0.2079935,-0.110231,0.0388002,-0.4940192,0
 .3420043,-0.0133585,-0.0094455,0.0219913,0.1787965,0.0624227,-0.017005
 2,0.0218719,0.3285384,0.052073,0.0391983,-0.0624955,0.0536162,-0.06467
 52,0.0966128,-0.0655638,0.0800341,0.0068297\Polar=14.8558928,1.766201,
 20.8435101,5.1642992,-0.2855338,16.0166986\PG=C01 [X(C1H2O2)]\NImag=0\
 \0.25098423,-0.02143110,0.47542733,0.24469462,-0.11731562,0.34771999,-
 0.16025151,-0.02502376,-0.10789200,0.39086968,-0.04414871,-0.13732164,
 -0.03446176,0.09417204,1.04364584,-0.10383781,-0.01251200,-0.17812575,
 0.20681557,-0.07371472,0.44632936,-0.00258570,-0.05932955,-0.02405960,
 -0.12287725,-0.14232363,-0.02656965,0.10549845,-0.05072912,-0.04122530
 ,-0.04311665,-0.13626403,-0.75505573,-0.01064891,0.19639094,0.84000349
 ,-0.02590835,-0.05298832,0.01102464,-0.02786665,-0.01762139,-0.1014212
 7,0.04526966,0.05214544,0.07026272,-0.07920430,0.09195704,-0.08789609,
 -0.01418388,0.02853037,-0.02883934,0.00076903,0.00006813,0.00901767,0.
 09182443,0.12192498,-0.30647932,0.20122647,-0.00249470,0.01992068,-0.0
 0591712,0.00016845,-0.00498929,-0.00025247,-0.11734010,0.29082408,-0.0
 9426118,0.16683197,-0.16357715,-0.02223364,0.02970588,-0.02621143,0.00
 898375,-0.00038209,0.00331060,0.11354140,-0.19369506,0.18640308,-0.008
 94273,0.01382738,-0.02484692,-0.09355704,0.06376993,-0.04756877,0.0191
 9546,-0.00946592,-0.00051232,0.00079472,-0.00225862,-0.00603033,0.0825
 0959,-0.00561604,0.00959894,-0.00633245,0.06961045,-0.17118914,0.10279
 274,0.00509379,-0.03873318,0.01871674,-0.00321544,0.00072386,-0.002460
 70,-0.06587277,0.19959953,-0.02068727,0.01598396,-0.01704173,-0.048823
 28,0.09609198,-0.14057091,-0.00362416,0.00200221,0.01682332,-0.0058236
 4,-0.00136182,0.00007490,0.07895834,-0.11271633,0.14071443\\0.00001452
 ,0.00002245,0.00001207,-0.00004855,-0.00016945,-0.00001794,0.00003193,
 0.00016252,0.00000038,0.00000349,-0.00001080,0.00000953,-0.00000139,-0
 .00000472,-0.00000404\\\@


 Everything starts as somebody's daydream.
                           -- Larry Niven
 Job cpu time:  0 days  0 hours  1 minutes 57.1 seconds.
 File lengths (MBytes):  RWF=     14 Int=      0 D2E=      0 Chk=      6 Scr=      1
 Normal termination of Gaussian 03 at Sun Mar 10 16:32:33 2019.
