 Entering Gaussian System, Link 0=g03
 Input=p02bmkfreq.gjf
 Output=p02bmkfreq.log
 Initial command:
 /opt/g03/l1.exe /scratch/nyee/Gau-20844.inp -scrdir=/scratch/nyee/
 Entering Link 1 = /opt/g03/l1.exe PID=     20846.
  
 Copyright (c) 1988,1990,1992,1993,1995,1998,2003,2004, Gaussian, Inc.
                  All Rights Reserved.
  
 This is the Gaussian(R) 03 program.  It is based on the
 the Gaussian(R) 98 system (copyright 1998, Gaussian, Inc.),
 the Gaussian(R) 94 system (copyright 1995, Gaussian, Inc.),
 the Gaussian 92(TM) system (copyright 1992, Gaussian, Inc.),
 the Gaussian 90(TM) system (copyright 1990, Gaussian, Inc.),
 the Gaussian 88(TM) system (copyright 1988, Gaussian, Inc.),
 the Gaussian 86(TM) system (copyright 1986, Carnegie Mellon
 University), and the Gaussian 82(TM) system (copyright 1983,
 Carnegie Mellon University). Gaussian is a federally registered
 trademark of Gaussian, Inc.
  
 This software contains proprietary and confidential information,
 including trade secrets, belonging to Gaussian, Inc.
  
 This software is provided under written license and may be
 used, copied, transmitted, or stored only in accord with that
 written license.
  
 The following legend is applicable only to US Government
 contracts under FAR:
  
                    RESTRICTED RIGHTS LEGEND
  
 Use, reproduction and disclosure by the US Government is
 subject to restrictions as set forth in subparagraphs (a)
 and (c) of the Commercial Computer Software - Restricted
 Rights clause in FAR 52.227-19.
  
 Gaussian, Inc.
 340 Quinnipiac St., Bldg. 40, Wallingford CT 06492
  
  
 ---------------------------------------------------------------
 Warning -- This program may not be used in any manner that
 competes with the business of Gaussian, Inc. or will provide
 assistance to any competitor of Gaussian, Inc.  The licensee
 of this program is prohibited from giving any competitor of
 Gaussian, Inc. access to this program.  By using this program,
 the user acknowledges that Gaussian, Inc. is engaged in the
 business of creating and licensing software in the field of
 computational chemistry and represents and warrants to the
 licensee that it is not a competitor of Gaussian, Inc. and that
 it will not use this program in any manner prohibited above.
 ---------------------------------------------------------------
  

 Cite this work as:
 Gaussian 03, Revision D.01,
 M. J. Frisch, G. W. Trucks, H. B. Schlegel, G. E. Scuseria, 
 M. A. Robb, J. R. Cheeseman, J. A. Montgomery, Jr., T. Vreven, 
 K. N. Kudin, J. C. Burant, J. M. Millam, S. S. Iyengar, J. Tomasi, 
 V. Barone, B. Mennucci, M. Cossi, G. Scalmani, N. Rega, 
 G. A. Petersson, H. Nakatsuji, M. Hada, M. Ehara, K. Toyota, 
 R. Fukuda, J. Hasegawa, M. Ishida, T. Nakajima, Y. Honda, O. Kitao, 
 H. Nakai, M. Klene, X. Li, J. E. Knox, H. P. Hratchian, J. B. Cross, 
 V. Bakken, C. Adamo, J. Jaramillo, R. Gomperts, R. E. Stratmann, 
 O. Yazyev, A. J. Austin, R. Cammi, C. Pomelli, J. W. Ochterski, 
 P. Y. Ayala, K. Morokuma, G. A. Voth, P. Salvador, J. J. Dannenberg, 
 V. G. Zakrzewski, S. Dapprich, A. D. Daniels, M. C. Strain, 
 O. Farkas, D. K. Malick, A. D. Rabuck, K. Raghavachari, 
 J. B. Foresman, J. V. Ortiz, Q. Cui, A. G. Baboul, S. Clifford, 
 J. Cioslowski, B. B. Stefanov, G. Liu, A. Liashenko, P. Piskorz, 
 I. Komaromi, R. L. Martin, D. J. Fox, T. Keith, M. A. Al-Laham, 
 C. Y. Peng, A. Nanayakkara, M. Challacombe, P. M. W. Gill, 
 B. Johnson, W. Chen, M. W. Wong, C. Gonzalez, and J. A. Pople, 
 Gaussian, Inc., Wallingford CT, 2004.
 
 ******************************************
 Gaussian 03:  AM64L-G03RevD.01 13-Oct-2005
                15-Jul-2014 
 ******************************************
 %chk=p02bmkfreq.chk
 %mem=1000mb
 %nproc=8
 Will use up to    8 processors via shared memory.
 -----------------------------------
 # freq nosymm bmk/cbsb7 iop(7/33=1)
 -----------------------------------
 1/10=4,30=1,38=1/1,3;
 2/15=1,17=6,18=5,40=1/2;
 3/5=4,6=6,7=700,11=2,16=1,25=1,30=1,74=-34/1,2,3;
 4//1;
 5/5=2,38=5/2;
 8/6=4,10=90,11=11/1;
 11/6=1,8=1,9=11,15=111,16=1,31=1/1,2,10;
 10/6=1,31=1/2;
 6/7=2,8=2,9=2,10=2,18=1,28=1/1;
 7/8=1,10=1,25=1,30=1,33=1/1,2,3,16;
 1/10=4,30=1/3;
 99//99;
 -------------------
 Title Card Required
 -------------------
 Symbolic Z-matrix:
 Charge =  0 Multiplicity = 1
 O                    -3.88409   1.87435   1.05901 
 H                    -4.22088   1.33854   0.31425 
 O                    -2.48833   1.65884   0.94773 
 C                    -2.18292   0.83871  -0.06572 
 O                    -3.02823   0.37106  -0.78127 
 C                    -0.6896    0.59168  -0.14773 
 H                    -0.20133   1.26046   0.56726 
 C                    -0.20183   0.89337  -1.57751 
 H                    -0.37073   1.94018  -1.84703 
 H                     0.86988   0.68728  -1.65203 
 H                    -0.73262   0.26141  -2.29527 
 C                    -0.41597  -0.87599   0.24557 
 H                     0.65814  -1.07688   0.19506 
 H                    -0.75795  -1.08681   1.26323 
 H                    -0.93155  -1.55164  -0.44342 
 

 GradGradGradGradGradGradGradGradGradGradGradGradGradGradGradGradGradGrad
 Berny optimization.
 Initialization pass.
 Trust Radius=3.00D-01 FncErr=1.00D-07 GrdErr=1.00D-07
 Number of steps in this run=   2 maximum allowed number of steps=   2.
 GradGradGradGradGradGradGradGradGradGradGradGradGradGradGradGradGradGrad

                          Input orientation:                          
 ---------------------------------------------------------------------
 Center     Atomic     Atomic              Coordinates (Angstroms)
 Number     Number      Type              X           Y           Z
 ---------------------------------------------------------------------
    1          8             0       -3.884088    1.874352    1.059011
    2          1             0       -4.220883    1.338544    0.314251
    3          8             0       -2.488328    1.658839    0.947729
    4          6             0       -2.182918    0.838711   -0.065716
    5          8             0       -3.028234    0.371063   -0.781269
    6          6             0       -0.689600    0.591682   -0.147727
    7          1             0       -0.201331    1.260463    0.567260
    8          6             0       -0.201830    0.893367   -1.577509
    9          1             0       -0.370728    1.940176   -1.847029
   10          1             0        0.869877    0.687283   -1.652030
   11          1             0       -0.732620    0.261407   -2.295269
   12          6             0       -0.415970   -0.875994    0.245567
   13          1             0        0.658144   -1.076881    0.195059
   14          1             0       -0.757946   -1.086812    1.263227
   15          1             0       -0.931552   -1.551637   -0.443423
 ---------------------------------------------------------------------
                    Distance matrix (angstroms):
                    1          2          3          4          5
     1  O    0.000000
     2  H    0.977337   0.000000
     3  O    1.416678   1.872333   0.000000
     4  C    2.287257   2.132489   1.339013   0.000000
     5  O    2.525667   1.886424   2.222454   1.202194   0.000000
     6  C    3.647768   3.638844   2.360989   1.515832   2.432952
     7  H    3.765817   4.028264   2.352406   2.122550   3.255909
     8  C    4.633853   4.464272   3.491539   2.492632   2.982509
     9  H    4.559945   4.456095   3.517677   2.769537   3.265011
    10  H    5.599916   5.496020   4.356628   3.443672   4.006681
    11  H    4.876939   4.487516   3.943648   2.721682   2.752102
    12  C    4.500437   4.402983   3.348593   2.481777   3.071395
    13  H    5.485259   5.445493   4.236858   3.436441   4.079110
    14  H    4.310796   4.332994   3.260730   2.739393   3.385199
    15  H    4.765729   4.443750   3.829623   2.724398   2.864785
                    6          7          8          9         10
     6  C    0.000000
     7  H    1.094021   0.000000
     8  C    1.540523   2.175958   0.000000
     9  H    2.192657   2.513861   1.094064   0.000000
    10  H    2.168879   2.530073   1.093883   1.773941   0.000000
    11  H    2.173216   3.078060   1.093751   1.774866   1.778517
    12  C    1.543900   2.171176   2.549529   3.508820   2.774547
    13  H    2.172100   2.518017   2.786293   3.785675   2.562975
    14  H    2.193810   2.510755   3.507158   4.357326   3.780998
    15  H    2.177107   3.076135   2.792255   3.804917   3.117473
                   11         12         13         14         15
    11  H    0.000000
    12  C    2.801749   0.000000
    13  H    3.150710   1.093905   0.000000
    14  H    3.805421   1.094086   1.773807   0.000000
    15  H    2.599238   1.094087   1.777691   1.777317   0.000000
 Symmetry turned off by external request.
 Stoichiometry    C4H8O3
 Framework group  C1[X(C4H8O3)]
 Deg. of freedom    39
 Full point group                 C1
 Rotational constants (GHZ):      4.9131528      1.6419474      1.5716564
 Standard basis: CBSB7 (5D, 7F)
 Integral buffers will be    131072 words long.
 Raffenetti 2 integral format.
 Two-electron integral symmetry is turned off.
   174 basis functions,   288 primitive gaussians,   181 cartesian basis functions
    28 alpha electrons       28 beta electrons
       nuclear repulsion energy       322.6377180484 Hartrees.
 NAtoms=   15 NActive=   15 NUniq=   15 SFac= 7.50D-01 NAtFMM=   80 NAOKFM=F Big=F
 One-electron integrals computed using PRISM.
 NBasis=   174 RedAO= T  NBF=   174
 NBsUse=   174 1.00D-06 NBFU=   174
 Harris functional with IExCor= 3226 diagonalized for initial guess.
 ExpMin= 1.03D-01 ExpMax= 8.59D+03 ExpMxC= 1.30D+03 IAcc=1 IRadAn=         1 AccDes= 1.00D-06
 HarFok:  IExCor=3226 AccDes= 1.00D-06 IRadAn=         1 IDoV=1
 ScaDFX=  1.000000  1.000000  1.000000  1.000000
 Requested convergence on RMS density matrix=1.00D-08 within 128 cycles.
 Requested convergence on MAX density matrix=1.00D-06.
 Requested convergence on             energy=1.00D-06.
 No special actions if energy rises.
 Integral accuracy reduced to 1.0D-05 until final iterations.
 Initial convergence to 1.0D-05 achieved.  Increase integral accuracy.
 SCF Done:  E(RBMK+HF-BMK) =  -382.726616688     A.U. after   16 cycles
             Convg  =    0.5744D-08             -V/T =  2.0028
             S**2   =   0.0000
 Range of M.O.s used for correlation:     1   174
 NBasis=   174 NAE=    28 NBE=    28 NFC=     0 NFV=     0
 NROrb=    174 NOA=    28 NOB=    28 NVA=   146 NVB=   146
 Symmetrizing basis deriv contribution to polar:
 IMax=3 JMax=2 DiffMx= 0.00D+00
 G2DrvN: will do   16 centers at a time, making    1 passes doing MaxLOS=2.
 FoFDir/FoFCou used for L=0 through L=2.
 DoAtom=TTTTTTTTTTTTTTT
          Differentiating once with respect to electric field.
                with respect to dipole field.
          Differentiating once with respect to nuclear coordinates.
 Symmetry not used in FoFDir.
 MinBra= 0 MaxBra= 2 Meth= 1.
 IRaf=       0 NMat=  48 IRICut=      48 DoRegI=T DoRafI=T ISym2E= 0 JSym2E=0.
          There are  48 degrees of freedom in the 1st order CPHF.
    45 vectors were produced by pass  0.
 AX will form  45 AO Fock derivatives at one time.
    45 vectors were produced by pass  1.
    45 vectors were produced by pass  2.
    45 vectors were produced by pass  3.
    45 vectors were produced by pass  4.
    44 vectors were produced by pass  5.
    21 vectors were produced by pass  6.
     3 vectors were produced by pass  7.
     1 vectors were produced by pass  8.
 Inv2:  IOpt= 1 Iter= 1 AM= 2.63D-15 Conv= 1.00D-12.
 Inverted reduced A of dimension  294 with in-core refinement.
 Isotropic polarizability for W=    0.000000       55.32 Bohr**3.
 End of Minotr Frequency-dependent properties file   721 does not exist.

 **********************************************************************

            Population analysis using the SCF density.

 **********************************************************************

 Alpha  occ. eigenvalues --  -19.63610 -19.59389 -19.53536 -10.61937 -10.50006
 Alpha  occ. eigenvalues --  -10.47054 -10.46838  -1.28983  -1.15871  -1.03433
 Alpha  occ. eigenvalues --   -0.89458  -0.77351  -0.73024  -0.66977  -0.59191
 Alpha  occ. eigenvalues --   -0.56115  -0.55933  -0.51780  -0.49747  -0.47284
 Alpha  occ. eigenvalues --   -0.45821  -0.45385  -0.42970  -0.42821  -0.40329
 Alpha  occ. eigenvalues --   -0.39991  -0.35525  -0.33767
 Alpha virt. eigenvalues --    0.02665   0.05537   0.07891   0.12539   0.12960
 Alpha virt. eigenvalues --    0.13172   0.14972   0.16120   0.17523   0.19079
 Alpha virt. eigenvalues --    0.19945   0.23241   0.25910   0.29562   0.32330
 Alpha virt. eigenvalues --    0.33186   0.33738   0.40327   0.40834   0.44518
 Alpha virt. eigenvalues --    0.46860   0.49165   0.52019   0.52844   0.56024
 Alpha virt. eigenvalues --    0.60234   0.60447   0.62589   0.62862   0.63525
 Alpha virt. eigenvalues --    0.64386   0.65923   0.66944   0.68092   0.68316
 Alpha virt. eigenvalues --    0.72125   0.78387   0.79522   0.83881   0.86153
 Alpha virt. eigenvalues --    0.87656   0.93107   0.95519   0.97920   1.00407
 Alpha virt. eigenvalues --    1.01438   1.03403   1.05409   1.09742   1.24649
 Alpha virt. eigenvalues --    1.29304   1.31459   1.34698   1.38262   1.39295
 Alpha virt. eigenvalues --    1.44352   1.44730   1.49788   1.51604   1.52883
 Alpha virt. eigenvalues --    1.54048   1.56189   1.56835   1.59160   1.61551
 Alpha virt. eigenvalues --    1.64928   1.68709   1.69716   1.71632   1.75586
 Alpha virt. eigenvalues --    1.75940   1.79799   1.80816   1.83808   1.84014
 Alpha virt. eigenvalues --    1.89441   1.93472   2.02711   2.04052   2.07232
 Alpha virt. eigenvalues --    2.09379   2.14099   2.14998   2.21482   2.30330
 Alpha virt. eigenvalues --    2.31806   2.41273   2.42910   2.48465   2.48963
 Alpha virt. eigenvalues --    2.53300   2.54673   2.56907   2.57859   2.58134
 Alpha virt. eigenvalues --    2.59435   2.59894   2.62646   2.68093   2.69086
 Alpha virt. eigenvalues --    2.72772   2.74959   2.76717   2.86836   2.87946
 Alpha virt. eigenvalues --    2.90348   2.93969   2.97671   2.99085   3.08738
 Alpha virt. eigenvalues --    3.14655   3.15865   3.17250   3.21934   3.26399
 Alpha virt. eigenvalues --    3.38050   3.43907   3.49479   3.62489   3.66654
 Alpha virt. eigenvalues --    3.73885   3.85638   3.87206   3.87548   3.90118
 Alpha virt. eigenvalues --    3.91480   3.99989   4.17085   4.25148   4.34623
 Alpha virt. eigenvalues --    4.82921   4.83786   4.97320   5.04442   5.15980
 Alpha virt. eigenvalues --    5.33915   5.43339   5.77081   5.95485  23.95284
 Alpha virt. eigenvalues --   24.00590  24.12290  24.12472  50.03337  50.07309
 Alpha virt. eigenvalues --   50.28307
          Condensed to atoms (all electrons):
              1          2          3          4          5          6
     1  O    7.932763   0.296739   0.078365  -0.052938  -0.024292   0.004316
     2  H    0.296739   0.415889  -0.039575  -0.003255   0.042708   0.003501
     3  O    0.078365  -0.039575   7.982125   0.292715  -0.083641  -0.060114
     4  C   -0.052938  -0.003255   0.292715   4.604368   0.609938   0.280218
     5  O   -0.024292   0.042708  -0.083641   0.609938   7.917455  -0.083415
     6  C    0.004316   0.003501  -0.060114   0.280218  -0.083415   5.341743
     7  H   -0.000419  -0.000153   0.010401  -0.053160   0.003844   0.401238
     8  C   -0.000127  -0.000066   0.000148  -0.065957   0.004942   0.307490
     9  H   -0.000042  -0.000007   0.000746  -0.003034  -0.000379  -0.031138
    10  H    0.000005   0.000006  -0.000173   0.008411  -0.000057  -0.036727
    11  H    0.000019  -0.000108   0.000458  -0.009233   0.008512  -0.039313
    12  C   -0.000091  -0.000159  -0.001384  -0.064790   0.002705   0.313586
    13  H    0.000006   0.000008  -0.000194   0.008114  -0.000142  -0.035186
    14  H   -0.000104   0.000016   0.001947  -0.003146  -0.000532  -0.031383
    15  H    0.000022  -0.000104   0.000326  -0.008030   0.006577  -0.041508
              7          8          9         10         11         12
     1  O   -0.000419  -0.000127  -0.000042   0.000005   0.000019  -0.000091
     2  H   -0.000153  -0.000066  -0.000007   0.000006  -0.000108  -0.000159
     3  O    0.010401   0.000148   0.000746  -0.000173   0.000458  -0.001384
     4  C   -0.053160  -0.065957  -0.003034   0.008411  -0.009233  -0.064790
     5  O    0.003844   0.004942  -0.000379  -0.000057   0.008512   0.002705
     6  C    0.401238   0.307490  -0.031138  -0.036727  -0.039313   0.313586
     7  H    0.527385  -0.031674  -0.004225  -0.005746   0.006679  -0.029331
     8  C   -0.031674   4.987390   0.400218   0.409039   0.406905  -0.079138
     9  H   -0.004225   0.400218   0.534134  -0.023197  -0.023231   0.007271
    10  H   -0.005746   0.409039  -0.023197   0.537617  -0.024189  -0.005180
    11  H    0.006679   0.406905  -0.023231  -0.024189   0.522824  -0.003938
    12  C   -0.029331  -0.079138   0.007271  -0.005180  -0.003938   4.985606
    13  H   -0.006188  -0.004866   0.000095   0.002826  -0.000876   0.408040
    14  H   -0.004082   0.007609  -0.000367   0.000146  -0.000029   0.399008
    15  H    0.006890  -0.004452  -0.000028  -0.000963   0.004461   0.408819
             13         14         15
     1  O    0.000006  -0.000104   0.000022
     2  H    0.000008   0.000016  -0.000104
     3  O   -0.000194   0.001947   0.000326
     4  C    0.008114  -0.003146  -0.008030
     5  O   -0.000142  -0.000532   0.006577
     6  C   -0.035186  -0.031383  -0.041508
     7  H   -0.006188  -0.004082   0.006890
     8  C   -0.004866   0.007609  -0.004452
     9  H    0.000095  -0.000367  -0.000028
    10  H    0.002826   0.000146  -0.000963
    11  H   -0.000876  -0.000029   0.004461
    12  C    0.408040   0.399008   0.408819
    13  H    0.533534  -0.022360  -0.023861
    14  H   -0.022360   0.531050  -0.023569
    15  H   -0.023861  -0.023569   0.525177
 Mulliken atomic charges:
              1
     1  O   -0.234223
     2  H    0.284560
     3  O   -0.182149
     4  C    0.459777
     5  O   -0.404224
     6  C   -0.293308
     7  H    0.178539
     8  C   -0.337461
     9  H    0.143185
    10  H    0.138181
    11  H    0.151059
    12  C   -0.341024
    13  H    0.141050
    14  H    0.145797
    15  H    0.150242
 Sum of Mulliken charges=   0.00000
 Atomic charges with hydrogens summed into heavy atoms:
              1
     1  O    0.050336
     2  H    0.000000
     3  O   -0.182149
     4  C    0.459777
     5  O   -0.404224
     6  C   -0.114769
     7  H    0.000000
     8  C    0.094964
     9  H    0.000000
    10  H    0.000000
    11  H    0.000000
    12  C    0.096065
    13  H    0.000000
    14  H    0.000000
    15  H    0.000000
 Sum of Mulliken charges=   0.00000
 APT atomic charges:
              1
     1  O   -0.274263
     2  H    0.325557
     3  O   -0.454611
     4  C    1.031617
     5  O   -0.718536
     6  C    0.005258
     7  H   -0.000703
     8  C    0.010786
     9  H    0.005034
    10  H    0.004172
    11  H    0.024408
    12  C    0.009733
    13  H    0.004401
    14  H    0.007602
    15  H    0.019545
 Sum of APT charges=   0.00000
 APT Atomic charges with hydrogens summed into heavy atoms:
              1
     1  O    0.051294
     2  H    0.000000
     3  O   -0.454611
     4  C    1.031617
     5  O   -0.718536
     6  C    0.004555
     7  H    0.000000
     8  C    0.044399
     9  H    0.000000
    10  H    0.000000
    11  H    0.000000
    12  C    0.041281
    13  H    0.000000
    14  H    0.000000
    15  H    0.000000
 Sum of APT charges=   0.00000
 Electronic spatial extent (au):  <R**2>=  1627.8407
 Charge=     0.0000 electrons
 Dipole moment (field-independent basis, Debye):
    X=     2.2428    Y=    -0.8267    Z=    -0.6539  Tot=     2.4781
 Quadrupole moment (field-independent basis, Debye-Ang):
   XX=   -48.1948   YY=   -45.0557   ZZ=   -45.3137
   XY=     3.4760   XZ=     1.6208   YZ=    -3.7779
 Traceless Quadrupole moment (field-independent basis, Debye-Ang):
   XX=    -2.0068   YY=     1.1324   ZZ=     0.8744
   XY=     3.4760   XZ=     1.6208   YZ=    -3.7779
 Octapole moment (field-independent basis, Debye-Ang**2):
  XXX=   222.5348  YYY=   -95.8339  ZZZ=    11.1754  XYY=    83.1118
  XXY=   -39.4092  XXZ=    -2.2011  XZZ=    83.6867  YZZ=   -34.0354
  YYZ=    -3.9550  XYZ=    11.9243
 Hexadecapole moment (field-independent basis, Debye-Ang**3):
 XXXX= -1206.5275 YYYY=  -401.2705 ZZZZ=  -270.6350 XXXY=   259.9699
 XXXZ=    88.2324 YYYX=   274.3298 YYYZ=   -29.8360 ZZZX=    69.3868
 ZZZY=   -18.4043 XXYY=  -315.4360 XXZZ=  -300.7297 YYZZ=  -113.7884
 XXYZ=   -45.4797 YYXZ=    47.2842 ZZXY=    98.1283
 N-N= 3.226377180484D+02 E-N=-1.542787926209D+03  KE= 3.816431700207D+02
  Exact polarizability:  63.316  -5.789  50.442  -4.471   3.306  52.212
 Approx polarizability:  75.031  -1.989  61.168   0.621   8.738  65.751
 Use density number 0.
 Entering OneElI...
 Calculate overlap and kinetic energy integrals
    NBasis = 181  MinDer = 2  MaxDer = 2
 Requested accuracy = 0.1000D-12
 PrsmSu:  NPrtUS=   1 ThrOK=F
 PRISM was handed   130784202 working-precision words and  2265 shell-pairs
 Entering OneElI...
 Calculate potential energy integrals
    NBasis = 181  MinDer = 2  MaxDer = 2
 Requested accuracy = 0.1000D-12
 PrsmSu:  NPrtUS=   8 ThrOK=T
 PRISM was handed    16309120 working-precision words and  2090 shell-pairs
 PRISM was handed    16309120 working-precision words and  2090 shell-pairs
 PRISM was handed    16309120 working-precision words and  2090 shell-pairs
 PRISM was handed    16309120 working-precision words and  2090 shell-pairs
 PRISM was handed    16309120 working-precision words and  2090 shell-pairs
 PRISM was handed    16309120 working-precision words and  2090 shell-pairs
 PRISM was handed    16309120 working-precision words and  2090 shell-pairs
 PRISM was handed    16309120 working-precision words and  2090 shell-pairs
 Polarizability after L701:
                1             2             3
      1  0.633158D+02
      2 -0.578925D+01  0.504418D+02
      3 -0.447091D+01  0.330636D+01  0.522120D+02
 Dipole Derivatives after L701:
               1            2            3            4            5
      1-0.350920D+00-0.395917D-01-0.586854D-01 0.369921D+00-0.355734D-01
      2 0.113977D+00-0.256042D+00 0.591940D-01-0.451232D-02 0.315671D+00
      3 0.128707D+00 0.420763D-01-0.215827D+00 0.197521D-02-0.350769D-01
               6            7            8            9           10
      1-0.392796D-01-0.254299D+00 0.225265D+00 0.268959D+00 0.118292D+01
      2-0.301103D-01 0.442852D-01-0.470268D+00-0.429608D+00-0.706936D-01
      3 0.291077D+00 0.337335D-01-0.401002D+00-0.639266D+00 0.115926D+00
              11           12           13           14           15
      1-0.256385D+00-0.168233D+00-0.895336D+00 0.153705D-01-0.514857D-01
      2 0.799642D+00 0.698558D+00-0.146640D+00-0.543735D+00-0.256231D+00
      3 0.675912D+00 0.111229D+01-0.291464D+00-0.244076D+00-0.716536D+00
              16           17           18           19           20
      1-0.978071D-01 0.113306D+00 0.534303D-01 0.407476D-01-0.263232D-01
      2 0.489407D-01 0.450080D-01-0.341297D-01-0.160433D-01-0.188534D-01
      3 0.296983D-02-0.299767D-01 0.685744D-01-0.117286D-01-0.385321D-01
              21           22           23           24           25
      1-0.158729D-01-0.394310D-02 0.227049D-01-0.627843D-01 0.783225D-01
      2-0.384512D-01 0.194844D-01 0.164656D-01 0.891901D-02 0.350203D-01
      3-0.240032D-01 0.111838D-01 0.718905D-02 0.198348D-01 0.254840D-02
              26           27           28           29           30
      1 0.156063D-01 0.118755D-01-0.104135D+00 0.482760D-01 0.193624D-01
      2-0.896454D-01 0.368301D-01 0.305984D-01 0.767600D-01 0.992788D-02
      3 0.662889D-01 0.264255D-01 0.337226D-01 0.129236D-03 0.398904D-01
              31           32           33           34           35
      1 0.483755D-01-0.445076D-01-0.877040D-02-0.292572D-01-0.644691D-01
      2-0.573012D-01 0.161878D-01-0.217184D-01 0.184311D-01 0.397043D-01
      3-0.589433D-01-0.656630D-01 0.865933D-02 0.223242D-01 0.360300D-02
              36           37           38           39           40
      1 0.347420D-01-0.100907D+00 0.408535D-01 0.210993D-01 0.686162D-01
      2 0.852874D-02 0.488631D-01 0.301951D-01 0.216086D-02-0.104430D-01
      3 0.187519D-01 0.538595D-02 0.958753D-02 0.839161D-01 0.590907D-01
              41           42           43           44           45
      1-0.282907D-02 0.447120D-01 0.477064D-01-0.117030D-01-0.490696D-01
      2 0.312889D-01 0.584596D-01-0.539674D-01 0.762093D-02-0.723297D-01
      3 0.280699D-01-0.771006D-01-0.554311D-01-0.185297D-01 0.330856D-02
 Hessian after L701:
                1             2             3             4             5
      1  0.216828D+01
      2  0.118748D+01  0.103903D+02
      3  0.242888D+00 -0.241067D+01  0.925978D+01
      4 -0.557083D+01  0.123515D+01  0.175174D+01  0.571637D+01
      5  0.905048D+00 -0.519526D+01  0.205845D+01 -0.858937D+00  0.525383D+01
      6  0.132470D+01  0.210480D+01 -0.376831D+01 -0.129163D+01 -0.235396D+01
      7  0.340691D+01 -0.157569D+01 -0.103290D+01 -0.107298D+00  0.108565D+00
      8 -0.145458D+01 -0.518448D+01 -0.490435D+00  0.329948D-02  0.227217D+00
      9 -0.872600D+00 -0.505830D+00 -0.570664D+01 -0.275855D-01  0.741202D-01
     10 -0.426305D-01 -0.297177D+00 -0.403869D+00 -0.924219D-01  0.508777D-01
     11 -0.219231D+00  0.178033D+00  0.132395D+00  0.336620D-02 -0.202991D-01
     12 -0.299611D+00  0.119957D+00  0.174771D+00 -0.642583D-02 -0.650771D-03
     13 -0.379980D+00 -0.128946D+00 -0.155604D+00 -0.102419D+00 -0.204991D+00
     14 -0.818540D-01 -0.627243D-02  0.573566D+00 -0.328022D+00 -0.214308D+00
     15 -0.929039D-01  0.565838D+00  0.259763D+00 -0.387099D+00  0.229701D+00
     16  0.280593D+00 -0.200577D+00 -0.194449D+00  0.113893D+00 -0.158428D-01
     17 -0.180936D+00 -0.922396D-01  0.661105D-01 -0.397977D-01 -0.301509D-01
     18 -0.168987D+00  0.614708D-01 -0.101598D+00 -0.295454D-01 -0.341445D-02
     19  0.368918D-01 -0.725118D-02 -0.659613D-02  0.451952D-02  0.287850D-02
     20  0.968870D-02 -0.214754D-01 -0.514930D-02  0.308395D-02  0.125367D-02
     21  0.124522D-01 -0.505178D-02 -0.226545D-01  0.352354D-02  0.247099D-02
     22  0.367227D-01 -0.410160D-01 -0.107407D+00  0.155387D-01  0.679767D-02
     23 -0.400038D-01 -0.658849D-01  0.358869D-01 -0.499743D-02 -0.103669D-01
     24 -0.683799D-01  0.177663D-01 -0.249866D-01 -0.475984D-02 -0.198730D-03
     25  0.363316D-02 -0.288462D-03 -0.141045D-01  0.134081D-02  0.101055D-02
     26  0.128503D-01 -0.131724D-01 -0.203590D-01  0.498665D-02  0.281779D-02
     27 -0.168508D-01  0.652049D-03  0.758360D-02 -0.287495D-02 -0.186185D-02
     28  0.141139D-01 -0.948214D-02 -0.190765D-01  0.532941D-02  0.322232D-02
     29 -0.483422D-02 -0.392622D-02  0.418318D-02 -0.957603D-03 -0.125501D-02
     30 -0.646249D-02  0.187584D-02 -0.290074D-03 -0.134889D-02 -0.576548D-03
     31 -0.317315D-02 -0.242513D-02 -0.513494D-02 -0.194248D-02 -0.149907D-03
     32 -0.995053D-02  0.213438D-03  0.181808D-01 -0.282324D-02 -0.276366D-02
     33 -0.152473D-01  0.136322D-01  0.177338D-01 -0.316300D-02 -0.290610D-02
     34  0.391481D-01 -0.122013D+00 -0.444001D-01  0.136874D-01  0.395822D-03
     35 -0.812365D-01 -0.147251D-01  0.197893D-01 -0.582060D-02 -0.539875D-02
     36 -0.395042D-01  0.363162D-01 -0.749898D-01 -0.294275D-02 -0.156603D-02
     37  0.141896D-01 -0.198367D-01 -0.976841D-02  0.527500D-02  0.222442D-02
     38 -0.844792D-02  0.188276D-02  0.278768D-02 -0.200000D-02 -0.113408D-02
     39 -0.296659D-02  0.225457D-02 -0.546527D-02 -0.190152D-03 -0.131939D-03
     40 -0.317515D-03 -0.121534D-01  0.973071D-03  0.704654D-03 -0.104653D-02
     41 -0.183882D-01  0.900727D-02 -0.908990D-04 -0.331802D-02 -0.134661D-02
     42  0.137599D-01 -0.222219D-01 -0.157821D-01  0.532673D-02  0.196818D-02
     43 -0.355340D-02 -0.576928D-02 -0.228886D-02 -0.174856D-02 -0.531164D-04
     44 -0.156069D-01  0.180232D-01  0.153594D-01 -0.321269D-02 -0.283402D-02
     45 -0.102816D-01  0.192095D-01  0.109951D-02 -0.301667D-02 -0.144569D-02
                6             7             8             9            10
      6  0.373075D+01
      7  0.107071D+00  0.627600D+01
      8  0.605669D-01  0.432704D+01  0.110812D+02
      9  0.275935D+00  0.423375D+01 -0.670177D+01  0.874324D+01
     10  0.556104D-01 -0.984491D+01 -0.212005D+01 -0.251450D+01  0.183694D+02
     11 -0.662541D-02 -0.204626D+01 -0.645055D+01  0.663378D+01 -0.157778D+01
     12 -0.162022D-01 -0.241705D+01  0.663952D+01 -0.356502D+01 -0.496204D+01
     13 -0.226538D+00 -0.265232D+00 -0.109263D+00 -0.216394D+00 -0.872286D+01
     14  0.212262D+00 -0.226813D+00  0.466723D+00  0.169214D+00  0.547880D+01
     15 -0.162709D+00 -0.374459D+00  0.175689D+00  0.499607D+00  0.866404D+01
     16  0.514807D-03  0.246523D+00 -0.855949D-01 -0.631875D-01 -0.370573D+00
     17 -0.752928D-02 -0.141605D+00 -0.103582D+00  0.145018D+00 -0.114832D+01
     18 -0.374196D-01 -0.108256D+00  0.144442D+00 -0.114082D+00 -0.586021D+00
     19  0.430610D-02  0.225283D+00 -0.102763D+00 -0.989556D-01 -0.195045D+00
     20  0.324513D-02 -0.168765D-01 -0.117509D+00  0.375632D-02 -0.878435D-01
     21  0.263731D-02 -0.777451D-02  0.212083D-02 -0.121153D+00 -0.127048D+00
     22  0.395418D-02  0.345515D-01 -0.395252D-01 -0.290135D+00  0.315531D+00
     23 -0.259762D-02 -0.630622D-01 -0.173126D+00  0.825713D-01 -0.663768D-01
     24 -0.543186D-02 -0.235783D+00  0.409861D-01  0.130566D+00 -0.490630D-01
     25  0.508684D-04  0.446248D-02 -0.319047D-03 -0.413572D-01 -0.633901D-02
     26  0.372145D-02  0.310385D-01 -0.286487D-01 -0.420131D-01  0.196260D-01
     27 -0.234765D-02 -0.527107D-01  0.568263D-03  0.421283D-01 -0.175829D-01
     28  0.397168D-02  0.302618D-01 -0.158009D-01 -0.344185D-01  0.150979D+00
     29 -0.740725D-03 -0.108887D-01 -0.816394D-02  0.861805D-02 -0.119327D-01
     30 -0.127867D-02 -0.155340D-01  0.567962D-02  0.280349D-02 -0.104437D+00
     31 -0.135363D-03 -0.131973D-01 -0.383757D-02 -0.117389D-01 -0.614316D-02
     32 -0.247698D-02 -0.204514D-01 -0.135397D-02  0.383754D-01  0.532797D-02
     33 -0.424213D-02 -0.371095D-01  0.307374D-01  0.499380D-01  0.367995D-01
     34  0.128128D-01 -0.172511D-02 -0.303383D+00 -0.444604D-01  0.333937D+00
     35 -0.219338D-02 -0.242669D+00  0.170766D+00  0.521630D-01 -0.133263D+00
     36 -0.110669D-01 -0.650191D-01  0.945363D-01 -0.185951D+00 -0.220604D-01
     37  0.509800D-02  0.308435D-01 -0.375816D-01 -0.156750D-01  0.122858D+00
     38 -0.142251D-02 -0.204758D-01  0.652705D-02  0.706642D-02 -0.116343D+00
     39 -0.942897D-03 -0.681161D-02  0.566055D-02 -0.107984D-01  0.155237D-01
     40  0.684219D-03 -0.571817D-02 -0.482852D-01 -0.816576D-03 -0.130140D-01
     41 -0.282873D-02 -0.679907D-01  0.631737D-01  0.214854D-02 -0.167570D-01
     42  0.458361D-02  0.324646D-01 -0.498493D-01 -0.406297D-01  0.134733D-01
     43 -0.461827D-03 -0.167553D-01 -0.935296D-02 -0.191919D-02  0.127885D-02
     44 -0.422689D-02 -0.338531D-01  0.518285D-01  0.327841D-01  0.212103D-01
     45 -0.395379D-02 -0.198805D-01  0.415455D-01  0.615340D-04  0.117669D-02
               11            12            13            14            15
     11  0.285855D+02
     12 -0.125248D+02  0.213971D+02
     13  0.548574D+01  0.864793D+01  0.775029D+01
     14 -0.164175D+02  0.582266D+01 -0.457145D+01  0.166513D+02
     15  0.583781D+01 -0.117312D+02 -0.771812D+01 -0.637750D+01  0.117642D+02
     16 -0.113844D+01 -0.549050D+00  0.462676D+00 -0.258985D+00 -0.348161D+00
     17 -0.602867D+01  0.412537D-02 -0.354874D+00  0.949216D-01 -0.253774D+00
     18  0.420093D-02 -0.624169D+01 -0.443140D+00 -0.239870D+00 -0.899527D-01
     19 -0.110853D+00 -0.153617D+00  0.108038D+00  0.763911D-01  0.991349D-01
     20  0.188267D+00 -0.187047D-01  0.935767D-01 -0.126198D-01  0.506425D-01
     21 -0.193583D-01  0.161559D+00  0.113795D+00  0.454715D-01  0.158082D-01
     22 -0.863658D-01 -0.141933D+00  0.550805D+00  0.207063D+00 -0.137571D+00
     23  0.171181D-01  0.134619D-01  0.167792D+00 -0.294587D+00 -0.345174D-01
     24  0.158585D-01 -0.558597D-01 -0.116560D+00 -0.291291D-01 -0.296882D+00
     25  0.256189D-02 -0.154069D-01  0.212294D-01  0.327048D-01 -0.153232D-01
     26 -0.298472D-02 -0.424881D-01  0.870367D-01  0.267567D-01 -0.150081D-01
     27 -0.951556D-02  0.167623D-02 -0.350079D-01 -0.223067D-01 -0.223618D-01
     28 -0.184821D-01 -0.117554D+00  0.741685D-01  0.121170D-01  0.718668D-03
     29 -0.491059D-01  0.766430D-02 -0.548432D-02 -0.177136D-01 -0.504510D-03
     30  0.834822D-02 -0.123828D-02 -0.131362D-01 -0.186705D-02 -0.145578D-01
     31  0.119506D-01  0.417821D-01  0.672487D-01  0.103171D-01 -0.829345D-01
     32  0.109098D-01  0.107823D-02 -0.430058D-01 -0.934392D-01  0.144329D-01
     33 -0.145909D-01 -0.498013D-01 -0.170858D+00 -0.134161D-01 -0.818426D-02
     34 -0.198812D+00 -0.412920D-01  0.351108D+00 -0.243727D+00  0.315419D+00
     35  0.597296D-02  0.351328D-02 -0.210757D+00 -0.197973D+00 -0.108105D+00
     36 -0.964488D-02 -0.270276D-01  0.266532D+00 -0.109948D+00 -0.164934D+00
     37 -0.126772D+00  0.893133D-02  0.629790D-01 -0.123390D-01  0.271545D-01
     38  0.243532D-01 -0.732624D-02 -0.206498D-01 -0.966237D-02 -0.730238D-02
     39 -0.104541D-01 -0.496113D-01  0.737557D-02 -0.173166D-02 -0.131736D-01
     40 -0.856578D-02 -0.107400D-02 -0.508262D-02 -0.147278D-01  0.218460D-01
     41  0.879199D-02 -0.119645D-01 -0.304105D-01 -0.110649D-01 -0.305136D-01
     42 -0.444836D-01 -0.478974D-02  0.725028D-01 -0.298942D-01  0.458174D-01
     43  0.279411D-01  0.640102D-02  0.270246D-01 -0.794771D-01  0.282553D-01
     44 -0.497888D-01 -0.605955D-02 -0.154319D+00  0.354503D-01 -0.468844D-01
     45  0.707383D-02  0.735819D-02 -0.127839D-01  0.249252D-02 -0.811730D-01
               16            17            18            19            20
     16  0.136018D+02
     17  0.152074D+01  0.160085D+02
     18  0.162289D+01  0.950440D+00  0.162707D+02
     19 -0.419547D+01  0.837139D+00  0.896134D+00  0.383689D+01
     20  0.696811D+00 -0.363217D+01  0.113213D+01 -0.826353D+00  0.352212D+01
     21  0.745851D+00  0.113383D+01 -0.347726D+01 -0.895229D+00 -0.135713D+01
     22 -0.511848D+01  0.321223D+00 -0.151904D+01  0.969409D-01  0.283109D-01
     23  0.277751D+00 -0.518481D+01 -0.928666D+00  0.288466D-01  0.110212D+00
     24 -0.144373D+01 -0.969840D+00 -0.136837D+01  0.514365D-01  0.456183D-01
     25  0.670780D-01 -0.366450D-01  0.222004D-01  0.110959D-01  0.174663D-02
     26  0.105045D-01  0.692656D-01  0.425972D-01 -0.409735D-02  0.130034D-02
     27 -0.170698D-01  0.862055D-01 -0.274194D-01 -0.272714D-02  0.154673D-01
     28  0.829975D-02  0.165121D-01  0.580388D-01  0.206131D-03 -0.181368D-02
     29 -0.224645D-01  0.723230D-01  0.252623D-02  0.577113D-02  0.126955D-01
     30  0.110022D+00 -0.195191D-01  0.269332D-01  0.212970D-01 -0.100482D-01
     31  0.118407D+00  0.175160D-01  0.422345D-01 -0.203571D-01  0.110251D-01
     32  0.765767D-02  0.114666D+00  0.296985D-01  0.129192D-01 -0.558232D-02
     33 -0.389252D-01 -0.261747D-01 -0.351335D-01  0.373769D-01  0.563417D-01
     34 -0.545407D+01 -0.886039D+00  0.223751D+00  0.920597D-01  0.424032D-01
     35 -0.805740D+00 -0.120648D+01 -0.125632D+01  0.315402D-01 -0.786991D-01
     36  0.179850D+00 -0.120937D+01 -0.505853D+01  0.300382D-01  0.356044D-01
     37  0.424231D-01  0.454616D-01  0.790263D-02  0.475093D-02  0.135748D-01
     38  0.993398D-01  0.454142D-02 -0.283973D-02  0.202399D-01 -0.380417D-01
     39 -0.292180D-01  0.154748D-01  0.656567D-01  0.325025D-02 -0.617162D-02
     40  0.725226D-01  0.937875D-02 -0.310234D-01  0.100087D-01 -0.313983D-02
     41 -0.355299D-01 -0.349275D-01  0.101346D+00 -0.929076D-02 -0.269759D-01
     42  0.122542D-01  0.569121D-01  0.598808D-01 -0.247657D-02  0.282690D-02
     43  0.124372D+00  0.202423D-01  0.128607D-01 -0.158056D-01  0.358057D-01
     44 -0.496302D-01 -0.511427D-01 -0.377419D-01  0.448831D-01  0.972224D-01
     45  0.124085D-01  0.280932D-01  0.128261D+00  0.166268D-01  0.515652D-01
               21            22            23            24            25
     21  0.336183D+01
     22  0.628999D-01  0.133788D+02
     23  0.285787D-01 -0.301101D+00  0.145127D+02
     24 -0.795435D-01  0.129767D+01  0.637716D+00  0.123897D+02
     25  0.156052D-02 -0.409077D+01 -0.278645D+00  0.858165D-01  0.397237D+01
     26  0.236492D-02 -0.449810D+00 -0.176278D+01 -0.618466D+00  0.239619D+00
     27 -0.293261D-01  0.157509D+00 -0.757699D+00 -0.393355D+01 -0.303559D-02
     28  0.142345D-01 -0.158288D+01 -0.491907D+00 -0.227089D+00  0.116692D-04
     29 -0.769704D-02 -0.417990D+00 -0.393111D+01  0.465359D-01  0.976350D-01
     30 -0.293056D-01 -0.343782D+00  0.778361D-01 -0.398896D+01 -0.153830D-01
     31  0.282236D-01 -0.364348D+01  0.685449D+00  0.781349D+00  0.655889D-01
     32  0.505963D-01  0.775925D+00 -0.336118D+01  0.978743D+00 -0.586437D-01
     33  0.101481D+00  0.101751D+01  0.112693D+01 -0.299538D+01 -0.795047D-02
     34  0.315212D-01  0.575783D-01  0.597110D-01 -0.498800D-01 -0.485706D-01
     35  0.574101D-01 -0.278119D-01  0.126564D+00 -0.443854D-01  0.373490D-02
     36  0.105710D+00  0.264137D-01 -0.161851D+00  0.125813D+00 -0.295695D-04
     37 -0.425649D-02  0.411213D-02 -0.260458D-01  0.168848D-01  0.103101D-02
     38 -0.671547D-02 -0.917671D-02 -0.142922D-01 -0.101919D-01 -0.296727D-02
     39  0.147086D-01  0.906388D-02 -0.139960D-01  0.238852D-02  0.155324D-02
     40  0.497992D-02 -0.428299D-01  0.231830D-01 -0.297055D-01  0.101809D-03
     41  0.149505D-01  0.258401D-01  0.213982D-01 -0.107335D+00 -0.173724D-02
     42  0.519366D-03 -0.344451D-01 -0.112289D+00  0.113949D+00  0.186124D-02
     43  0.152657D-01 -0.121125D-01  0.294063D-01 -0.820606D-02 -0.226734D-02
     44  0.581589D-01  0.763670D-02  0.101176D-01 -0.367747D-02  0.232270D-03
     45 -0.500404D-02 -0.707569D-03  0.863330D-02 -0.134355D-01 -0.452379D-03
               26            27            28            29            30
     26  0.166358D+01
     27  0.846906D+00  0.380577D+01
     28  0.633822D-01 -0.173448D-01  0.137423D+01
     29 -0.445717D-02  0.111900D-01  0.425827D+00  0.385894D+01
     30  0.429663D-02  0.616228D-01  0.447019D+00 -0.227988D-01  0.389160D+01
     31 -0.109998D-01  0.165101D-02 -0.725864D-01 -0.621806D-01 -0.702647D-01
     32 -0.816519D-01 -0.538806D-01 -0.269706D-01  0.664642D-01 -0.309126D-02
     33 -0.383863D-01  0.692888D-01 -0.642119D-01 -0.155804D-01  0.545715D-01
     34 -0.164014D-03  0.366601D-02  0.116802D-01  0.834562D-02 -0.785010D-02
     35  0.109458D+00 -0.109719D+00  0.156972D-01 -0.192682D-02 -0.755947D-02
     36 -0.115273D+00  0.292474D-01 -0.249662D-01 -0.920619D-02 -0.175382D-01
     37 -0.127755D-01  0.546862D-02 -0.254457D-01 -0.326396D-02  0.581759D-02
     38  0.799086D-02 -0.561102D-02  0.127372D-01  0.904786D-02 -0.272488D-01
     39 -0.511468D-02  0.390547D-03 -0.107967D-01 -0.227798D-01  0.118119D-01
     40  0.271251D-02 -0.137390D-02  0.415971D-02  0.166886D-02 -0.459689D-02
     41  0.404229D-04  0.406372D-02  0.553355D-02 -0.796106D-03 -0.467060D-02
     42 -0.604041D-02  0.134313D-03 -0.141889D-01 -0.314563D-02  0.672157D-02
     43  0.608984D-02 -0.171619D-02  0.747496D-02  0.749142D-03 -0.136055D-02
     44  0.124866D-01 -0.445883D-02  0.942858D-02 -0.101146D-02 -0.656528D-03
     45  0.326286D-02 -0.283800D-02  0.566405D-02  0.173548D-02 -0.289835D-02
               31            32            33            34            35
     31  0.354718D+01
     32 -0.645454D+00  0.336308D+01
     33 -0.755447D+00 -0.105375D+01  0.275489D+01
     34 -0.185534D-01 -0.616915D-03  0.373314D-02  0.138243D+02
     35 -0.627027D-02 -0.147205D-01 -0.563357D-02  0.108902D+01  0.121653D+02
     36  0.272952D-01  0.493100D-02  0.193456D-01 -0.315662D+00  0.846045D+00
     37  0.666791D-02  0.424613D-02  0.103058D-01 -0.160841D+01 -0.506754D+00
     38 -0.241313D-02 -0.316075D-02 -0.212489D-02 -0.623463D+00 -0.389267D+01
     39  0.230768D-02  0.205756D-02  0.809871D-03 -0.625403D-01  0.200135D-01
     40 -0.310203D-02 -0.895601D-03 -0.228712D-02 -0.392019D+01  0.153340D+00
     41 -0.111543D-02 -0.260056D-02 -0.396961D-02  0.244921D+00 -0.403530D+01
     42  0.479854D-02  0.287630D-02  0.126810D-01 -0.830756D+00 -0.462892D+00
     43 -0.225595D-01  0.273596D-02 -0.105239D-01 -0.367202D+01  0.726990D+00
     44 -0.141196D-02  0.111226D-01 -0.511060D-01  0.933421D+00 -0.313022D+01
     45 -0.398613D-02 -0.277661D-01  0.120049D-01  0.805937D+00  0.997875D+00
               36            37            38            39            40
     36  0.143789D+02
     37 -0.130412D+00  0.142908D+01
     38  0.412559D-01  0.733018D+00  0.377689D+01
     39 -0.401715D+01  0.610495D-01  0.330628D-01  0.393242D+01
     40 -0.671473D+00 -0.219545D-01 -0.418264D-02  0.919880D-01  0.384907D+01
     41 -0.623128D+00 -0.718515D-02  0.612965D-01 -0.330509D-02 -0.931411D-01
     42 -0.189558D+01  0.549528D-01 -0.561213D-02  0.180851D-01  0.665875D+00
     43  0.741940D+00 -0.684033D-01 -0.552146D-01 -0.795885D-01  0.756426D-01
     44  0.118130D+01 -0.459711D-01  0.664331D-01 -0.148389D-01 -0.414493D-02
     45 -0.320619D+01 -0.434537D-01 -0.777765D-02  0.508660D-01 -0.439963D-01
               41            42            43            44            45
     41  0.388017D+01
     42  0.718671D+00  0.178866D+01
     43  0.856942D-02  0.459686D-02  0.357943D+01
     44  0.691346D-01 -0.468257D-01 -0.708663D+00  0.286318D+01
     45 -0.533738D-01 -0.942490D-01 -0.703254D+00 -0.107112D+01  0.321009D+01
 ReadGW:  IGet=0 IStart=         108 Next=        6790 LGW=        6682.
 ICntrl=12127.
 Symmetry not used in FoFDir.
 MinBra= 0 MaxBra= 2 Meth= 1.
 IRaf=       0 NMat=   1 IRICut=       1 DoRegI=T DoRafI=F ISym2E= 0 JSym2E=0.
 PrsmSu:  NPrtUS=   8 ThrOK=T
 PRISM was handed    16300685 working-precision words and  2167 shell-pairs
 PRISM was handed    16300685 working-precision words and  2167 shell-pairs
 PRISM was handed    16300685 working-precision words and  2167 shell-pairs
 PRISM was handed    16300685 working-precision words and  2167 shell-pairs
 PRISM was handed    16300685 working-precision words and  2167 shell-pairs
 PRISM was handed    16300685 working-precision words and  2167 shell-pairs
 PRISM was handed    16300685 working-precision words and  2167 shell-pairs
 PRISM was handed    16300685 working-precision words and  2167 shell-pairs
 Pruned (  75, 302) grid will be used in CalDFT.
 CkSvGd:  ISavGI=        -1 IRadAn=       4 IRASav=       4 ISavGd=        -1.
 CalDSu:  NPrtUS=   8 ThrOK=T
 IPart= 0 IRanGd=          0 ScrnBf=T ScrnGd=T RCrit=4.00D+00 DoMicB=T.
 IPart= 1 IRanGd=          0 ScrnBf=T ScrnGd=T RCrit=4.00D+00 DoMicB=T.
 IPart= 7 IRanGd=          0 ScrnBf=T ScrnGd=T RCrit=4.00D+00 DoMicB=T.
 CutRad = 1000.00    CtRdIn =    0.00    XCrit =  15.00   ICut = 0
 IPart= 5 IRanGd=          0 ScrnBf=T ScrnGd=T RCrit=4.00D+00 DoMicB=T.
 CutRad = 1000.00    CtRdIn =    0.00    XCrit =  15.00   ICut = 0
 CutRad = 1000.00    CtRdIn =    0.00    XCrit =  15.00   ICut = 0
 IPart= 3 IRanGd=          0 ScrnBf=T ScrnGd=T RCrit=4.00D+00 DoMicB=T.
 IPart= 6 IRanGd=          0 ScrnBf=T ScrnGd=T RCrit=4.00D+00 DoMicB=T.
 CutRad = 1000.00    CtRdIn =    0.00    XCrit =  15.00   ICut = 0
 IPart= 4 IRanGd=          0 ScrnBf=T ScrnGd=T RCrit=4.00D+00 DoMicB=T.
 IPart= 2 IRanGd=          0 ScrnBf=T ScrnGd=T RCrit=4.00D+00 DoMicB=T.
 CutRad = 1000.00    CtRdIn =    0.00    XCrit =  15.00   ICut = 0
 CutRad = 1000.00    CtRdIn =    0.00    XCrit =  15.00   ICut = 0
 CutRad = 1000.00    CtRdIn =    0.00    XCrit =  15.00   ICut = 0
 CutRad = 1000.00    CtRdIn =    0.00    XCrit =  15.00   ICut = 0
 IPart= 7        12592 of        14332 points in      29 batches and       86 microbatches, Max-NSigAt=      15 Max-NSgAt2=      15
 IPart= 4        13636 of        15548 points in      32 batches and       92 microbatches, Max-NSigAt=      15 Max-NSgAt2=      15
 IPart= 5        11994 of        13832 points in      30 batches and       80 microbatches, Max-NSigAt=      15 Max-NSgAt2=      15
 IPart= 1        13665 of        15354 points in      32 batches and      100 microbatches, Max-NSigAt=      15 Max-NSgAt2=      15
 IPart= 3        13468 of        15554 points in      33 batches and       93 microbatches, Max-NSigAt=      15 Max-NSgAt2=      15
 IPart= 6        13417 of        15020 points in      29 batches and       98 microbatches, Max-NSigAt=      15 Max-NSgAt2=      15
 IPart= 2        13029 of        14574 points in      30 batches and       96 microbatches, Max-NSigAt=      15 Max-NSgAt2=      15
 IPart= 0        13786 of        15554 points in      31 batches and       93 microbatches, Max-NSigAt=      15 Max-NSgAt2=      15
 Polarizability after L703:
                1             2             3
      1  0.633158D+02
      2 -0.578925D+01  0.504418D+02
      3 -0.447091D+01  0.330636D+01  0.522120D+02
 Dipole Derivatives after L703:
               1            2            3            4            5
      1-0.350920D+00-0.395917D-01-0.586854D-01 0.369921D+00-0.355734D-01
      2 0.113977D+00-0.256042D+00 0.591940D-01-0.451232D-02 0.315671D+00
      3 0.128707D+00 0.420763D-01-0.215827D+00 0.197521D-02-0.350769D-01
               6            7            8            9           10
      1-0.392796D-01-0.254299D+00 0.225265D+00 0.268959D+00 0.118292D+01
      2-0.301103D-01 0.442852D-01-0.470268D+00-0.429608D+00-0.706936D-01
      3 0.291077D+00 0.337335D-01-0.401002D+00-0.639266D+00 0.115926D+00
              11           12           13           14           15
      1-0.256385D+00-0.168233D+00-0.895336D+00 0.153705D-01-0.514857D-01
      2 0.799642D+00 0.698558D+00-0.146640D+00-0.543735D+00-0.256231D+00
      3 0.675912D+00 0.111229D+01-0.291464D+00-0.244076D+00-0.716536D+00
              16           17           18           19           20
      1-0.978071D-01 0.113306D+00 0.534303D-01 0.407476D-01-0.263232D-01
      2 0.489407D-01 0.450080D-01-0.341297D-01-0.160433D-01-0.188534D-01
      3 0.296983D-02-0.299767D-01 0.685744D-01-0.117286D-01-0.385321D-01
              21           22           23           24           25
      1-0.158729D-01-0.394310D-02 0.227049D-01-0.627843D-01 0.783225D-01
      2-0.384512D-01 0.194844D-01 0.164656D-01 0.891901D-02 0.350203D-01
      3-0.240032D-01 0.111838D-01 0.718905D-02 0.198348D-01 0.254840D-02
              26           27           28           29           30
      1 0.156063D-01 0.118755D-01-0.104135D+00 0.482760D-01 0.193624D-01
      2-0.896454D-01 0.368301D-01 0.305984D-01 0.767600D-01 0.992788D-02
      3 0.662889D-01 0.264255D-01 0.337226D-01 0.129236D-03 0.398904D-01
              31           32           33           34           35
      1 0.483755D-01-0.445076D-01-0.877040D-02-0.292572D-01-0.644691D-01
      2-0.573012D-01 0.161878D-01-0.217184D-01 0.184311D-01 0.397043D-01
      3-0.589433D-01-0.656630D-01 0.865933D-02 0.223242D-01 0.360300D-02
              36           37           38           39           40
      1 0.347420D-01-0.100907D+00 0.408535D-01 0.210993D-01 0.686162D-01
      2 0.852874D-02 0.488631D-01 0.301951D-01 0.216086D-02-0.104430D-01
      3 0.187519D-01 0.538595D-02 0.958753D-02 0.839161D-01 0.590907D-01
              41           42           43           44           45
      1-0.282907D-02 0.447120D-01 0.477064D-01-0.117030D-01-0.490696D-01
      2 0.312889D-01 0.584596D-01-0.539674D-01 0.762093D-02-0.723297D-01
      3 0.280699D-01-0.771006D-01-0.554311D-01-0.185297D-01 0.330856D-02
 Hessian after L703:
                1             2             3             4             5
      1  0.382624D+00
      2  0.162875D-01  0.207306D+00
      3  0.676618D-01  0.257111D+00  0.359192D+00
      4 -0.936002D-01 -0.476866D-01 -0.737382D-01  0.149145D+00
      5 -0.834051D-01 -0.152310D+00 -0.204922D+00  0.696817D-01  0.154642D+00
      6 -0.120578D+00 -0.200397D+00 -0.283402D+00  0.109616D+00  0.200901D+00
      7 -0.254470D+00 -0.163236D-01 -0.504441D-01 -0.451876D-01  0.716160D-02
      8  0.628048D-01 -0.430105D-01 -0.301374D-01 -0.214784D-01 -0.314845D-02
      9  0.523459D-01 -0.397645D-01 -0.599581D-01 -0.334225D-01  0.150618D-02
     10 -0.528766D-01  0.332909D-01  0.362137D-01 -0.139531D-01  0.155567D-01
     11  0.802577D-02 -0.141212D-01 -0.163670D-01 -0.213293D-02  0.133978D-01
     12  0.428160D-02 -0.136144D-01 -0.170190D-01 -0.582465D-02  0.942248D-02
     13  0.130591D-01  0.136309D-01  0.191756D-01  0.265929D-02 -0.715155D-02
     14 -0.735960D-02 -0.109129D-02 -0.769064D-03  0.172018D-02 -0.113979D-01
     15 -0.798989D-02  0.203854D-02 -0.349333D-04  0.337917D-02 -0.482574D-02
     16  0.836113D-02 -0.165885D-02 -0.210080D-02 -0.382697D-03 -0.133066D-02
     17  0.232070D-02  0.321409D-02 -0.549402D-02 -0.464616D-03 -0.889083D-03
     18  0.357747D-02 -0.676936D-02  0.793718D-03 -0.519302D-03 -0.168796D-02
     19  0.152720D-02  0.669265D-03  0.907486D-03  0.492529D-03 -0.889066D-03
     20 -0.344780D-03  0.269504D-03  0.390283D-03  0.126104D-03  0.128569D-03
     21 -0.264232D-03  0.538443D-03  0.266443D-03  0.155169D-03  0.555390D-04
     22 -0.196607D-02  0.217328D-02  0.398847D-03  0.475542D-03  0.128656D-03
     23  0.139388D-02 -0.896261D-03  0.364805D-03 -0.792507D-04 -0.539856D-04
     24 -0.105214D-02  0.753875D-03  0.286741D-03  0.276798D-03 -0.196465D-03
     25  0.615239D-04 -0.115776D-04 -0.221370D-04 -0.622990D-04 -0.433055D-04
     26 -0.131890D-03  0.506920D-04  0.346516D-04 -0.227506D-05 -0.565012D-04
     27 -0.715072D-04  0.102275D-04 -0.119263D-03  0.130484D-04  0.766413D-04
     28 -0.144323D-03  0.148566D-03  0.937735D-04  0.140789D-03 -0.242463D-04
     29 -0.927567D-04  0.124114D-03  0.683020D-04  0.292312D-04 -0.378943D-04
     30  0.863272D-03 -0.724230D-03 -0.201372D-04 -0.132330D-03 -0.497564D-04
     31 -0.197933D-03 -0.710054D-04 -0.186228D-03 -0.151566D-03  0.153246D-03
     32  0.244199D-04  0.549125D-05  0.204967D-04  0.280574D-04 -0.150641D-04
     33  0.280423D-03  0.120880D-03  0.305053D-03  0.195430D-03 -0.190839D-03
     34 -0.225562D-02 -0.342376D-03  0.206456D-02  0.480656D-03  0.128128D-04
     35 -0.573412D-03  0.296774D-03  0.267596D-03  0.249121D-03 -0.870080D-04
     36  0.120456D-02  0.555874D-03 -0.503579D-03 -0.503799D-04 -0.136559D-03
     37 -0.775431D-04  0.446622D-04  0.606346D-04  0.100959D-03 -0.611689D-04
     38  0.859850D-03  0.125872D-03 -0.628871D-03 -0.162414D-03 -0.381749D-04
     39 -0.130211D-03  0.621198D-04  0.155525D-03  0.529222D-04  0.144755D-04
     40  0.260764D-04 -0.514745D-04  0.257552D-04 -0.450081D-04  0.628200D-04
     41 -0.742778D-04 -0.191719D-03 -0.120908D-03 -0.505917D-05  0.316230D-04
     42 -0.132399D-03  0.681172D-04  0.666698D-04  0.790892D-05  0.757627D-04
     43 -0.714986D-04 -0.995102D-04 -0.110654D-03 -0.111895D-03  0.147591D-03
     44  0.264947D-03  0.228035D-03  0.181909D-03  0.177113D-03 -0.165979D-03
     45  0.346799D-05  0.100112D-04 -0.942144D-05 -0.916084D-05 -0.422895D-04
                6             7             8             9            10
      6  0.285609D+00
      7  0.430374D-02  0.447039D+00
      8 -0.198515D-02 -0.392037D-01  0.204814D+00
      9 -0.543161D-02 -0.360298D-03  0.205815D+00  0.307119D+00
     10  0.172016D-01 -0.129773D+00  0.975157D-02  0.530007D-02  0.878082D+00
     11  0.713313D-02  0.410692D-01 -0.134961D+00 -0.873117D-01  0.996766D-01
     12  0.191444D-01  0.442903D-01 -0.905396D-01 -0.175464D+00  0.216570D+00
     13 -0.829482D-02  0.753417D-02 -0.250639D-01 -0.353448D-01 -0.464282D+00
     14 -0.378607D-02 -0.201931D-01 -0.215911D-01 -0.724154D-01 -0.180409D+00
     15 -0.133560D-01 -0.290798D-01 -0.731892D-01 -0.651401D-01 -0.283897D+00
     16 -0.174528D-02 -0.180748D-01  0.123091D-01  0.113266D-01 -0.184654D+00
     17 -0.156796D-02  0.250854D-01 -0.283848D-02 -0.884126D-02  0.106271D-01
     18 -0.210911D-02  0.288334D-01 -0.100478D-01 -0.200023D-02  0.202039D-02
     19 -0.109720D-02 -0.913321D-03  0.107798D-02  0.890105D-03 -0.134374D-01
     20  0.168745D-03  0.148373D-02 -0.625678D-03 -0.241287D-03  0.229257D-02
     21  0.868347D-04  0.183920D-02 -0.550813D-03 -0.416031D-03 -0.137029D-03
     22  0.238832D-03 -0.341956D-02  0.582971D-03 -0.712124D-03 -0.164335D-01
     23 -0.176916D-03  0.129488D-02 -0.430055D-03 -0.716456D-03  0.405517D-03
     24 -0.815304D-04 -0.100688D-02  0.157164D-02  0.747999D-03  0.166153D-01
     25  0.611314D-04  0.348380D-04  0.171344D-03 -0.143194D-03  0.106718D-02
     26  0.633953D-04 -0.382060D-03  0.153425D-03  0.214086D-03  0.904490D-03
     27  0.831506D-05  0.108288D-03 -0.508725D-03 -0.117608D-04 -0.141025D-02
     28 -0.370369D-04 -0.534079D-03  0.179460D-03  0.327260D-03  0.834706D-03
     29  0.406722D-04 -0.396484D-03  0.218449D-03  0.938221D-04 -0.785775D-03
     30 -0.121052D-03  0.128300D-02 -0.260563D-03  0.808748D-04 -0.203382D-02
     31  0.203910D-03  0.909367D-04 -0.633357D-03 -0.483167D-03  0.114698D-02
     32 -0.536823D-04  0.141687D-03  0.285052D-03  0.135455D-03 -0.126155D-02
     33 -0.193283D-03  0.660277D-04  0.455180D-03  0.480124D-03 -0.322101D-02
     34  0.590539D-04 -0.219868D-02 -0.380022D-03  0.538792D-03 -0.849375D-02
     35 -0.222183D-03 -0.102800D-02  0.874848D-03  0.195917D-02  0.183633D-01
     36 -0.533804D-04  0.938114D-03 -0.860730D-03 -0.100638D-02 -0.336195D-02
     37 -0.522049D-05 -0.211905D-03  0.209492D-03  0.558396D-04  0.803892D-03
     38 -0.187531D-04  0.102028D-02 -0.143497D-03 -0.358542D-03 -0.343510D-02
     39 -0.499001D-04 -0.416536D-03  0.772833D-04  0.362792D-03 -0.150666D-03
     40 -0.551230D-04  0.120268D-03 -0.176626D-03  0.136120D-03  0.890868D-03
     41  0.105777D-03  0.123714D-03  0.143245D-03 -0.593901D-03 -0.154603D-02
     42 -0.811987D-04 -0.428317D-03  0.172256D-03  0.445694D-03  0.107628D-02
     43  0.128382D-03 -0.368206D-04 -0.150742D-03 -0.454565D-03  0.107797D-02
     44 -0.204820D-03  0.146452D-03  0.259360D-03  0.519264D-03 -0.343126D-02
     45  0.302919D-04  0.738830D-04 -0.115378D-04  0.191341D-03 -0.784784D-03
               11            12            13            14            15
     11  0.419104D+00
     12  0.248792D+00  0.588548D+00
     13 -0.168118D+00 -0.268471D+00  0.483343D+00
     14 -0.184650D+00 -0.155348D+00  0.205833D+00  0.201747D+00
     15 -0.153861D+00 -0.319956D+00  0.325492D+00  0.236370D+00  0.388903D+00
     16  0.169828D-01  0.765469D-02 -0.318734D-01 -0.246447D-02 -0.102945D-01
     17 -0.830570D-01 -0.121378D-02 -0.197141D-01  0.134787D-01 -0.531546D-02
     18 -0.862285D-03 -0.797440D-01 -0.313463D-01 -0.279874D-02  0.509596D-02
     19 -0.249676D-01 -0.261609D-01 -0.971928D-02  0.242872D-02  0.676917D-03
     20  0.248183D-02  0.467067D-02  0.266544D-02  0.838179D-03 -0.288754D-03
     21  0.198759D-02 -0.751647D-03  0.121941D-02 -0.640804D-03  0.153364D-02
     22 -0.910285D-02  0.359394D-01  0.853213D-03  0.220212D-02 -0.272620D-03
     23  0.113261D-02 -0.554594D-02  0.531705D-03  0.158618D-03 -0.479117D-03
     24 -0.117368D-02 -0.454510D-02 -0.456694D-02 -0.168244D-02 -0.232603D-02
     25 -0.139962D-02  0.450688D-03 -0.355334D-03  0.386535D-03 -0.434850D-03
     26 -0.193799D-03  0.483108D-03 -0.685843D-03  0.237344D-03 -0.348322D-03
     27  0.121666D-02  0.641516D-03  0.334979D-03 -0.517625D-04  0.263226D-03
     28 -0.513759D-03  0.832985D-03  0.167506D-03  0.212674D-03  0.640050D-03
     29 -0.449961D-03  0.123532D-02 -0.155320D-03  0.367786D-03  0.263409D-03
     30  0.190734D-02 -0.725940D-02  0.991953D-03 -0.223466D-04  0.177432D-02
     31  0.190806D-02  0.160136D-02 -0.419889D-03 -0.223701D-03 -0.286800D-03
     32 -0.412582D-03 -0.126282D-02  0.418501D-03 -0.183279D-03  0.106262D-02
     33 -0.192469D-02 -0.177964D-02  0.511292D-03  0.101263D-02  0.192602D-02
     34  0.370268D-01 -0.115735D-01 -0.100710D-02 -0.201832D-02  0.178351D-02
     35 -0.112649D-01  0.198391D-02 -0.486122D-02 -0.134033D-02 -0.270477D-02
     36 -0.539571D-03  0.164435D-03  0.534193D-03 -0.613484D-03  0.798278D-03
     37  0.116367D-03 -0.198300D-03  0.385677D-03  0.559691D-03  0.227449D-03
     38 -0.691164D-02  0.200050D-02  0.162766D-02  0.158242D-02  0.305481D-03
     39  0.154059D-02 -0.977756D-03 -0.207305D-03  0.231426D-03  0.362125D-03
     40  0.206701D-03 -0.126188D-02 -0.254338D-03 -0.200010D-03  0.256294D-03
     41  0.948021D-03  0.168126D-02  0.372422D-03  0.100834D-03 -0.239776D-03
     42  0.196164D-03 -0.716286D-03 -0.687864D-03 -0.116460D-03  0.181420D-03
     43  0.122253D-02  0.186940D-02 -0.903793D-04 -0.475098D-03 -0.199283D-03
     44 -0.104277D-02 -0.274419D-02  0.669945D-03  0.174299D-02  0.121250D-02
     45 -0.732923D-03 -0.286068D-03  0.659693D-03  0.630818D-03 -0.250715D-04
               16            17            18            19            20
     16  0.509448D+00
     17  0.378718D-01  0.506753D+00
     18  0.407926D-01  0.766299D-01  0.530491D+00
     19 -0.106786D+00 -0.696498D-01 -0.742397D-01  0.117828D+00
     20 -0.750503D-01 -0.145644D+00 -0.107325D+00  0.771522D-01  0.160676D+00
     21 -0.797999D-01 -0.106930D+00 -0.160703D+00  0.829965D-01  0.112727D+00
     22 -0.894366D-01 -0.107166D-01  0.315328D-01  0.607740D-02  0.417706D-02
     23 -0.636838D-02 -0.791867D-01  0.144136D-01  0.790741D-02  0.495894D-02
     24  0.267955D-01  0.188204D-01 -0.174533D+00  0.893270D-02  0.558157D-02
     25 -0.218429D-03 -0.115001D-01  0.219443D-02  0.190023D-03  0.438760D-03
     26  0.162833D-03 -0.297454D-02 -0.334615D-03 -0.745638D-04  0.547202D-03
     27 -0.499117D-02  0.297947D-01 -0.665873D-02 -0.773553D-03 -0.282538D-03
     28 -0.956632D-02  0.165517D-02  0.221091D-04  0.457561D-03  0.760831D-04
     29 -0.630711D-02  0.861612D-04 -0.161832D-03  0.380649D-03  0.140382D-05
     30  0.334787D-01 -0.447997D-02 -0.456937D-02 -0.449402D-03 -0.563888D-03
     31  0.526758D-02  0.700387D-02  0.871799D-02 -0.502217D-03 -0.475851D-03
     32  0.439069D-02  0.318792D-02  0.457435D-02 -0.444195D-03  0.435938D-03
     33 -0.145464D-01 -0.184832D-01 -0.239264D-01  0.286916D-02  0.208211D-02
     34 -0.803630D-01  0.208479D-01 -0.907118D-02  0.403827D-02 -0.142751D-01
     35  0.116880D-01 -0.174452D+00  0.247660D-01  0.522171D-02 -0.213221D-01
     36 -0.428780D-02  0.199522D-01 -0.813696D-01  0.534567D-02 -0.192018D-01
     37 -0.474560D-02  0.209576D-03  0.513827D-03  0.457186D-03  0.359031D-03
     38  0.339015D-01 -0.927242D-02  0.113471D-03 -0.293027D-03  0.132053D-02
     39 -0.820397D-02  0.127203D-02 -0.708624D-03  0.484936D-03 -0.315366D-03
     40  0.398067D-03  0.131054D-02 -0.750838D-02 -0.407871D-05 -0.412862D-03
     41 -0.970776D-02 -0.514972D-02  0.297181D-01 -0.534633D-03  0.119777D-02
     42  0.875393D-03  0.360637D-04 -0.505815D-02 -0.800325D-04  0.262413D-03
     43  0.262631D-02  0.511310D-02  0.447979D-02  0.294157D-03  0.178795D-02
     44 -0.144193D-01 -0.232562D-01 -0.202279D-01  0.201497D-02 -0.526426D-02
     45  0.504631D-02  0.582073D-02  0.499959D-02 -0.302751D-03  0.233522D-02
               21            22            23            24            25
     21  0.175994D+00
     22 -0.134574D-01  0.573787D+00
     23 -0.172679D-01 -0.756595D-02  0.580094D+00
     24 -0.209740D-01  0.340464D-01  0.172028D-01  0.480414D+00
     25 -0.491938D-03 -0.553360D-01  0.414152D-01 -0.101260D-01  0.550048D-01
     26  0.368912D-03  0.408362D-01 -0.293526D+00  0.595256D-01 -0.446333D-01
     27  0.107498D-02 -0.970544D-02  0.579144D-01 -0.628020D-01  0.868869D-02
     28  0.254901D-03 -0.304485D+00  0.496648D-01  0.143512D-01 -0.338812D-02
     29 -0.219826D-03  0.509602D-01 -0.576403D-01 -0.291800D-02  0.314896D-01
     30  0.113879D-02  0.129300D-01 -0.299244D-02 -0.469973D-01 -0.779914D-02
     31  0.265617D-02 -0.113714D+00 -0.774060D-01 -0.875504D-01  0.261551D-02
     32  0.178575D-02 -0.762572D-01 -0.140449D+00 -0.102058D+00 -0.157881D-01
     33 -0.472962D-02 -0.847993D-01 -0.100674D+00 -0.158970D+00  0.499786D-02
     34  0.490468D-02  0.317370D-02 -0.113720D-01  0.315146D-02 -0.598214D-03
     35  0.670414D-02  0.152269D-03 -0.109073D-01  0.684580D-02 -0.239243D-05
     36  0.660594D-02 -0.513330D-02  0.357986D-01 -0.127706D-01  0.216756D-02
     37  0.781635D-04  0.562821D-03 -0.826794D-03  0.133908D-03  0.344152D-03
     38 -0.654034D-03  0.461255D-03  0.180011D-02 -0.140435D-02 -0.250458D-03
     39  0.886514D-04 -0.101744D-02 -0.196215D-03  0.428106D-03  0.160856D-03
     40  0.367408D-03 -0.270333D-04  0.135352D-02 -0.141151D-03  0.678719D-03
     41 -0.437011D-03  0.203759D-02 -0.676863D-02  0.551745D-03 -0.614399D-03
     42  0.572203D-03 -0.540989D-03  0.190033D-02  0.668215D-03  0.294046D-03
     43 -0.321128D-03 -0.112181D-03 -0.348532D-03  0.140195D-03 -0.383251D-04
     44  0.253311D-02 -0.689767D-04  0.171386D-02 -0.142075D-02  0.341913D-03
     45  0.213475D-03  0.552198D-03  0.454896D-03  0.145488D-02  0.198020D-05
               26            27            28            29            30
     26  0.315851D+00
     27 -0.666877D-01  0.683583D-01
     28  0.608680D-04 -0.589038D-04  0.328903D+00
     29 -0.453926D-02 -0.246300D-02 -0.549466D-01  0.573730D-01
     30  0.551315D-03 -0.255432D-03 -0.175831D-01  0.139097D-02  0.526007D-01
     31  0.425679D-02  0.503485D-02 -0.137323D-01 -0.193103D-01 -0.207974D-01
     32 -0.166916D-01 -0.208050D-01  0.390508D-02  0.398492D-02  0.611633D-02
     33  0.505587D-02  0.591835D-02  0.181321D-02  0.262727D-02  0.184186D-02
     34 -0.572839D-03  0.291605D-02  0.579156D-03 -0.100531D-02  0.214300D-03
     35  0.791032D-03  0.694170D-04  0.280669D-03  0.480765D-03 -0.134210D-02
     36  0.135159D-02 -0.623011D-02 -0.100982D-02 -0.116212D-03  0.178665D-02
     37 -0.317979D-04  0.185412D-04  0.419607D-03  0.169004D-03 -0.577234D-03
     38  0.118521D-03 -0.418263D-03 -0.732161D-03  0.573136D-04  0.691256D-03
     39 -0.194039D-03  0.476582D-04  0.317045D-03  0.381062D-03 -0.575502D-04
     40  0.167295D-03 -0.282482D-03  0.405001D-03  0.108179D-03 -0.271272D-03
     41 -0.168356D-03  0.208476D-02  0.293349D-04  0.543177D-05 -0.376755D-03
     42  0.401993D-04 -0.271041D-03 -0.300899D-04 -0.174262D-03  0.980390D-04
     43  0.126127D-03  0.178869D-03 -0.578319D-04 -0.137218D-03 -0.117598D-03
     44  0.401012D-03  0.501938D-04  0.405394D-05 -0.319307D-04  0.154834D-03
     45 -0.124101D-03  0.359716D-04  0.663836D-04 -0.477000D-04 -0.410520D-04
               31            32            33            34            35
     31  0.119402D+00
     32  0.843583D-01  0.148442D+00
     33  0.918525D-01  0.110058D+00  0.177073D+00
     34  0.829142D-04  0.666865D-03 -0.454758D-03  0.580634D+00
     35  0.444268D-03  0.133837D-02 -0.135968D-02  0.189987D-01  0.468971D+00
     36 -0.453650D-03  0.593163D-03  0.158824D-02 -0.574570D-02  0.261035D-01
     37 -0.492929D-04  0.699974D-04  0.302905D-04 -0.306937D+00  0.451645D-01
     38 -0.138721D-03 -0.339534D-04  0.111908D-03  0.438628D-01 -0.526295D-01
     39 -0.106805D-03 -0.756872D-05 -0.311869D-04  0.132054D-01 -0.271682D-02
     40 -0.462762D-04  0.158659D-04  0.306215D-03 -0.768611D-01 -0.152736D-01
     41  0.174466D-03  0.961962D-05  0.486977D-04 -0.146391D-01 -0.563126D-01
     42  0.544276D-04 -0.132736D-03  0.434186D-03  0.780859D-01  0.444059D-01
     43  0.208046D-03 -0.268334D-03  0.989729D-04 -0.110274D+00 -0.788239D-01
     44 -0.400836D-04  0.960959D-04  0.105988D-02 -0.768108D-01 -0.144437D+00
     45 -0.256838D-03 -0.269045D-04  0.635344D-04 -0.800785D-01 -0.104760D+00
               36            37            38            39            40
     36  0.577576D+00
     37  0.122238D-01  0.330875D+00
     38 -0.263611D-02 -0.503078D-01  0.595125D-01
     39 -0.492458D-01 -0.140236D-01  0.743391D-03  0.483300D-01
     40  0.783849D-01 -0.856119D-02 -0.631937D-02  0.308024D-01  0.780589D-01
     41  0.428136D-01  0.117044D-02  0.425588D-03 -0.596362D-02  0.151274D-01
     42 -0.280151D+00 -0.498745D-03 -0.527432D-03 -0.134230D-03 -0.854915D-01
     43 -0.807563D-01 -0.133671D-01 -0.200944D-01 -0.207670D-01  0.522110D-02
     44 -0.103064D+00  0.315476D-02  0.408627D-02  0.507125D-02  0.408159D-02
     45 -0.157190D+00  0.196058D-02  0.268035D-02  0.143023D-02 -0.152673D-01
               41            42            43            44            45
     41  0.614704D-01
     42 -0.506167D-01  0.301364D+00
     43  0.808582D-02  0.749597D-02  0.114733D+00
     44  0.425848D-02  0.441041D-02  0.839146D-01  0.161412D+00
     45 -0.186553D-01 -0.174195D-01  0.883349D-01  0.112469D+00  0.166551D+00
 FrcOut:
 IF    =  1165 IFX   =  1210 IFXYZ =  1255
 IFFX  =  1300 IFFFX =  2335 IFLen =    45
 IFFLen=  1035 IFFFLn=     0 IEDerv=  2335
 LEDerv=  2213 IFroze=  4552 ICStrt= 65611
 DipoleDeriv   =-3.50920200D-01 1.13977317D-01 1.28706862D-01
                -3.95917482D-02-2.56042186D-01 4.20762887D-02
                -5.86854295D-02 5.91940056D-02-2.15826774D-01
                 3.69921120D-01-4.51231635D-03 1.97521116D-03
                -3.55733991D-02 3.15671426D-01-3.50768504D-02
                -3.92795912D-02-3.01103200D-02 2.91077323D-01
                -2.54298745D-01 4.42852456D-02 3.37335241D-02
                 2.25264985D-01-4.70267610D-01-4.01002215D-01
                 2.68959423D-01-4.29607797D-01-6.39265586D-01
                 1.18291509D+00-7.06935754D-02 1.15926248D-01
                -2.56385444D-01 7.99641935D-01 6.75912124D-01
                -1.68233027D-01 6.98558167D-01 1.11229386D+00
                -8.95336000D-01-1.46639809D-01-2.91464360D-01
                 1.53705204D-02-5.43735458D-01-2.44075514D-01
                -5.14856592D-02-2.56231129D-01-7.16536057D-01
                -9.78071305D-02 4.89407107D-02 2.96983264D-03
                 1.13306385D-01 4.50079984D-02-2.99767291D-02
                 5.34302887D-02-3.41297399D-02 6.85743819D-02
                 4.07476273D-02-1.60432527D-02-1.17286374D-02
                -2.63232371D-02-1.88534436D-02-3.85320747D-02
                -1.58728895D-02-3.84512276D-02-2.40031971D-02
                -3.94309530D-03 1.94843824D-02 1.11838195D-02
                 2.27049134D-02 1.64656494D-02 7.18905467D-03
                -6.27842982D-02 8.91900733D-03 1.98348059D-02
                 7.83225285D-02 3.50202551D-02 2.54839920D-03
                 1.56062749D-02-8.96453686D-02 6.62888524D-02
                 1.18754795D-02 3.68300750D-02 2.64255321D-02
                -1.04134860D-01 3.05983794D-02 3.37226265D-02
                 4.82759844D-02 7.67600284D-02 1.29235584D-04
                 1.93624207D-02 9.92788291D-03 3.98904169D-02
                 4.83754994D-02-5.73012149D-02-5.89433372D-02
                -4.45076039D-02 1.61877522D-02-6.56629559D-02
                -8.77040000D-03-2.17184382D-02 8.65932934D-03
                -2.92572191D-02 1.84311222D-02 2.23241981D-02
                -6.44691320D-02 3.97042924D-02 3.60299877D-03
                 3.47419721D-02 8.52873994D-03 1.87518842D-02
                -1.00907266D-01 4.88631241D-02 5.38594521D-03
                 4.08535345D-02 3.01951492D-02 9.58753377D-03
                 2.10992978D-02 2.16086113D-03 8.39160904D-02
                 6.86162297D-02-1.04430110D-02 5.90907401D-02
                -2.82906517D-03 3.12889045D-02 2.80699427D-02
                 4.47119990D-02 5.84596133D-02-7.71005720D-02
                 4.77064168D-02-5.39673572D-02-5.54310721D-02
                -1.17029675D-02 7.62093110D-03-1.85296924D-02
                -4.90695853D-02-7.23296997D-02 3.30856022D-03
 Full mass-weighted force constant matrix:
 Low frequencies ---  -21.5279   -6.9918    0.0007    0.0011    0.0012   20.1470
 Low frequencies ---   26.8557  159.3450  215.3950
 Dipole derivatives wrt mode   1:  3.23990D-02 -6.92106D-02  2.76328D-03
 Vibrational polarizability contributions from mode   1       0.1106680       0.5050156       0.0008050
 Vibrational hyperpolarizability contributions from mode   1       0.0000000       0.0000000       0.0000000
 Dipole derivatives wrt mode   2:  2.04970D-02 -2.78810D-01  2.17880D-01
 Vibrational polarizability contributions from mode   2       0.0004454       0.0824114       0.0503278
 Vibrational hyperpolarizability contributions from mode   2       0.0000000       0.0000000       0.0000000
 Dipole derivatives wrt mode   3:  1.73780D-01  1.95875D-01 -1.06891D-01
 Vibrational polarizability contributions from mode   3       0.0175315       0.0222730       0.0066328
 Vibrational hyperpolarizability contributions from mode   3       0.0000000       0.0000000       0.0000000
 Dipole derivatives wrt mode   4: -1.64811D-01 -6.88103D-02 -2.10973D-01
 Vibrational polarizability contributions from mode   4       0.0128266       0.0022359       0.0210180
 Vibrational hyperpolarizability contributions from mode   4       0.0000000       0.0000000       0.0000000
 Dipole derivatives wrt mode   5:  3.52072D-01 -3.23319D-01 -3.78818D-01
 Vibrational polarizability contributions from mode   5       0.0414913       0.0349910       0.0480346
 Vibrational hyperpolarizability contributions from mode   5       0.0000000       0.0000000       0.0000000
 Dipole derivatives wrt mode   6:  3.35053D-01  7.30902D-02 -4.45173D-01
 Vibrational polarizability contributions from mode   6       0.0335114       0.0015947       0.0591593
 Vibrational hyperpolarizability contributions from mode   6       0.0000000       0.0000000       0.0000000
 Dipole derivatives wrt mode   7: -7.78862D-01  8.54165D-01  6.16663D-01
 Vibrational polarizability contributions from mode   7       0.1674420       0.2013849       0.1049636
 Vibrational hyperpolarizability contributions from mode   7       0.0000000       0.0000000       0.0000000
 Dipole derivatives wrt mode   8: -4.16735D+00  2.48714D-02  3.08703D+00
 Vibrational polarizability contributions from mode   8       2.3809166       0.0000848       1.3064846
 Vibrational hyperpolarizability contributions from mode   8       0.0000000       0.0000000       0.0000000
 Dipole derivatives wrt mode   9:  8.68863D-02  8.33269D+00 -5.79235D+00
 Vibrational polarizability contributions from mode   9       0.0009387       8.6332719       4.1717167
 Vibrational hyperpolarizability contributions from mode   9       0.0000000       0.0000000       0.0000000
 Dipole derivatives wrt mode  10:  1.95705D+00 -8.97861D-01  5.37692D-01
 Vibrational polarizability contributions from mode  10       0.4104763       0.0863973       0.0309849
 Vibrational hyperpolarizability contributions from mode  10       0.0000000       0.0000000       0.0000000
 Dipole derivatives wrt mode  11: -5.93159D-01  2.74428D-01  4.24032D-01
 Vibrational polarizability contributions from mode  11       0.0201410       0.0043112       0.0102928
 Vibrational hyperpolarizability contributions from mode  11       0.0000000       0.0000000       0.0000000
 Dipole derivatives wrt mode  12:  3.18602D-01  3.76742D+00 -2.60020D+00
 Vibrational polarizability contributions from mode  12       0.0044007       0.6153406       0.2931165
 Vibrational hyperpolarizability contributions from mode  12       0.0000000       0.0000000       0.0000000
 Dipole derivatives wrt mode  13: -1.30230D-01 -4.23286D-01 -2.21390D-01
 Vibrational polarizability contributions from mode  13       0.0005724       0.0060476       0.0016543
 Vibrational hyperpolarizability contributions from mode  13       0.0000000       0.0000000       0.0000000
 Dipole derivatives wrt mode  14: -1.24938D-01 -1.35146D+00  1.25903D+00
 Vibrational polarizability contributions from mode  14       0.0004717       0.0551911       0.0478997
 Vibrational hyperpolarizability contributions from mode  14       0.0000000       0.0000000       0.0000000
 Dipole derivatives wrt mode  15:  1.28317D+00 -2.47732D+00 -3.15875D+00
 Vibrational polarizability contributions from mode  15       0.0473228       0.1763862       0.2867679
 Vibrational hyperpolarizability contributions from mode  15       0.0000000       0.0000000       0.0000000
 Dipole derivatives wrt mode  16:  1.02826D-01  1.78074D-01 -2.46604D-01
 Vibrational polarizability contributions from mode  16       0.0002939       0.0008815       0.0016906
 Vibrational hyperpolarizability contributions from mode  16       0.0000000       0.0000000       0.0000000
 Dipole derivatives wrt mode  17: -3.49550D+00  2.81270D+00  2.86206D+00
 Vibrational polarizability contributions from mode  17       0.3132460       0.2028225       0.2100033
 Vibrational hyperpolarizability contributions from mode  17       0.0000000       0.0000000       0.0000000
 Dipole derivatives wrt mode  18:  1.09627D+00 -6.73415D-03  1.41860D-01
 Vibrational polarizability contributions from mode  18       0.0251178       0.0000009       0.0004206
 Vibrational hyperpolarizability contributions from mode  18       0.0000000       0.0000000       0.0000000
 Dipole derivatives wrt mode  19:  2.45663D+00  1.13510D+00  1.86556D+00
 Vibrational polarizability contributions from mode  19       0.1253959       0.0267715       0.0723137
 Vibrational hyperpolarizability contributions from mode  19       0.0000000       0.0000000       0.0000000
 Dipole derivatives wrt mode  20: -3.03273D+00  2.68869D+00  2.79545D+00
 Vibrational polarizability contributions from mode  20       0.1712630       0.1346104       0.1455127
 Vibrational hyperpolarizability contributions from mode  20       0.0000000       0.0000000       0.0000000
 Dipole derivatives wrt mode  21:  8.21780D+00 -6.82874D+00 -7.48972D+00
 Vibrational polarizability contributions from mode  21       1.2013835       0.8295668       0.9979348
 Vibrational hyperpolarizability contributions from mode  21       0.0000000       0.0000000       0.0000000
 Dipole derivatives wrt mode  22: -5.18852D-01 -1.90689D-02  3.62676D-01
 Vibrational polarizability contributions from mode  22       0.0040311       0.0000054       0.0019696
 Vibrational hyperpolarizability contributions from mode  22       0.0000000       0.0000000       0.0000000
 Dipole derivatives wrt mode  23: -1.30729D+00 -1.20542D+00  1.78047D+00
 Vibrational polarizability contributions from mode  23       0.0231903       0.0197167       0.0430161
 Vibrational hyperpolarizability contributions from mode  23       0.0000000       0.0000000       0.0000000
 Dipole derivatives wrt mode  24: -4.52686D+00  3.89835D+00  2.89643D+00
 Vibrational polarizability contributions from mode  24       0.2741247       0.2032900       0.1122225
 Vibrational hyperpolarizability contributions from mode  24       0.0000000       0.0000000       0.0000000
 Dipole derivatives wrt mode  25:  1.17535D+00 -2.75097D+00 -3.53228D+00
 Vibrational polarizability contributions from mode  25       0.0181298       0.0993184       0.1637451
 Vibrational hyperpolarizability contributions from mode  25       0.0000000       0.0000000       0.0000000
 Dipole derivatives wrt mode  26:  6.40483D-01  1.65733D+00 -4.44049D-01
 Vibrational polarizability contributions from mode  26       0.0048833       0.0326975       0.0023472
 Vibrational hyperpolarizability contributions from mode  26       0.0000000       0.0000000       0.0000000
 Dipole derivatives wrt mode  27:  7.81639D-02 -9.77542D-01  1.15790D+00
 Vibrational polarizability contributions from mode  27       0.0000722       0.0113003       0.0158549
 Vibrational hyperpolarizability contributions from mode  27       0.0000000       0.0000000       0.0000000
 Dipole derivatives wrt mode  28:  2.70621D-01  2.11932D+00  2.76489D+00
 Vibrational polarizability contributions from mode  28       0.0008516       0.0522264       0.0888903
 Vibrational hyperpolarizability contributions from mode  28       0.0000000       0.0000000       0.0000000
 Dipole derivatives wrt mode  29: -4.36606D+00  5.45128D-01 -1.87991D-02
 Vibrational polarizability contributions from mode  29       0.2187221       0.0034096       0.0000041
 Vibrational hyperpolarizability contributions from mode  29       0.0000000       0.0000000       0.0000000
 Dipole derivatives wrt mode  30:  1.23641D+01 -5.75424D-01  1.06751D+00
 Vibrational polarizability contributions from mode  30       1.4879242       0.0032228       0.0110917
 Vibrational hyperpolarizability contributions from mode  30       0.0000000       0.0000000       0.0000000
 Dipole derivatives wrt mode  31:  5.39766D+00  6.80494D+00  1.00588D+01
 Vibrational polarizability contributions from mode  31       0.2227813       0.3540928       0.7736724
 Vibrational hyperpolarizability contributions from mode  31       0.0000000       0.0000000       0.0000000
 Dipole derivatives wrt mode  32: -4.35003D-01  3.08316D+00 -2.09806D+00
 Vibrational polarizability contributions from mode  32       0.0005488       0.0275707       0.0127671
 Vibrational hyperpolarizability contributions from mode  32       0.0000000       0.0000000       0.0000000
 Dipole derivatives wrt mode  33: -2.30193D+00  1.42661D-01  1.98315D+00
 Vibrational polarizability contributions from mode  33       0.0153463       0.0000589       0.0113902
 Vibrational hyperpolarizability contributions from mode  33       0.0000000       0.0000000       0.0000000
 Dipole derivatives wrt mode  34:  2.40993D-01 -8.62056D-01 -8.16497D-01
 Vibrational polarizability contributions from mode  34       0.0001634       0.0020902       0.0018751
 Vibrational hyperpolarizability contributions from mode  34       0.0000000       0.0000000       0.0000000
 Dipole derivatives wrt mode  35:  5.01068D-01 -2.34934D+00  1.52557D+00
 Vibrational polarizability contributions from mode  35       0.0006921       0.0152150       0.0064157
 Vibrational hyperpolarizability contributions from mode  35       0.0000000       0.0000000       0.0000000
 Dipole derivatives wrt mode  36:  3.27314D+00 -1.33877D+00 -1.60572D+00
 Vibrational polarizability contributions from mode  36       0.0294996       0.0049351       0.0070994
 Vibrational hyperpolarizability contributions from mode  36       0.0000000       0.0000000       0.0000000
 Dipole derivatives wrt mode  37:  4.54123D-01 -9.54527D-02  1.59119D+00
 Vibrational polarizability contributions from mode  37       0.0005657       0.0000250       0.0069453
 Vibrational hyperpolarizability contributions from mode  37       0.0000000       0.0000000       0.0000000
 Dipole derivatives wrt mode  38:  2.33319D+00  2.05856D+00  1.90370D+00
 Vibrational polarizability contributions from mode  38       0.0148655       0.0115720       0.0098964
 Vibrational hyperpolarizability contributions from mode  38       0.0000000       0.0000000       0.0000000
 Dipole derivatives wrt mode  39:  2.94942D+00  4.77994D+00  6.61695D+00
 Vibrational polarizability contributions from mode  39       0.0174726       0.0458912       0.0879429
 Vibrational hyperpolarizability contributions from mode  39       0.0000000       0.0000000       0.0000000
 Diagonal vibrational polarizability:
        7.4197210      12.5082289       9.2248804
 Harmonic frequencies (cm**-1), IR intensities (KM/Mole), Raman scattering
 activities (A**4/AMU), depolarization ratios for plane and unpolarized
 incident light, reduced masses (AMU), force constants (mDyne/A),
 and normal coordinates:
                           1         2         3         4         5
                           A         A         A         A         A
       Frequencies ---    15.9767  159.3238  215.3067  238.7245  283.5433
    Reduced masses ---     4.8592    3.8575    1.1717    1.9803    1.3642
   Force constants ---     0.0007    0.0577    0.0320    0.0665    0.0646
    IR Intensities ---     0.0058    0.1256    0.0800    0.0764    0.3720
 Coord Atom Element:
   1     1     8          0.00920   0.00972   0.02535  -0.06140  -0.03715
[...]
     Eigenvalues ---    0.00017   0.00185   0.00291   0.00434   0.00919
     Eigenvalues ---    0.01067   0.01399   0.03282   0.03582   0.04321
     Eigenvalues ---    0.04714   0.05771   0.05907   0.07208   0.07437
     Eigenvalues ---    0.09271   0.10849   0.11792   0.12019   0.12266
     Eigenvalues ---    0.16357   0.17337   0.18732   0.22854   0.27859
     Eigenvalues ---    0.39735   0.40592   0.54499   0.59151   0.66643
     Eigenvalues ---    0.71191   0.74791   0.77039   0.80235   0.81519
     Eigenvalues ---    0.85314   0.90458   0.96086   1.76273
 Angle between quadratic step and forces=  77.74 degrees.
 Linear search not attempted -- first point.
 TrRot=  0.000024  0.000014 -0.000035  0.000009  0.000023  0.000009
 MatCor failed.
 Variable       Old X    -DE/DX   Delta X   Delta X   Delta X     New X
                                 (Linear)    (Quad)   (Total)
    X1       -7.33986   0.00000   0.00000   0.00004   0.00004  -7.33982
    Y1        3.54201   0.00000   0.00000  -0.00012  -0.00023   3.54178
    Z1        2.00124  -0.00002   0.00000   0.00019   0.00032   2.00156
    X2       -7.97631   0.00000   0.00000  -0.00005  -0.00006  -7.97637
    Y2        2.52948   0.00001   0.00000   0.00000  -0.00013   2.52935
    Z2        0.59385  -0.00001   0.00000   0.00016   0.00031   0.59416
    X3       -4.70226  -0.00001   0.00000   0.00007   0.00008  -4.70218
    Y3        3.13475   0.00001   0.00000   0.00042   0.00035   3.13510
    Z3        1.79095   0.00000   0.00000  -0.00033  -0.00026   1.79069
    X4       -4.12512  -0.00001   0.00000  -0.00004  -0.00005  -4.12516
    Y4        1.58493   0.00000   0.00000  -0.00007  -0.00013   1.58480
    Z4       -0.12419  -0.00001   0.00000   0.00001   0.00007  -0.12412
    X5       -5.72253   0.00001   0.00000  -0.00013  -0.00016  -5.72269
    Y5        0.70121   0.00001   0.00000  -0.00074  -0.00083   0.70038
    Z5       -1.47638   0.00000   0.00000   0.00059   0.00068  -1.47570
    X6       -1.30316   0.00000   0.00000  -0.00002  -0.00002  -1.30317
    Y6        1.11812   0.00000   0.00000   0.00013   0.00012   1.11824
    Z6       -0.27916   0.00000   0.00000  -0.00015  -0.00015  -0.27932
    X7       -0.38046   0.00000   0.00000  -0.00007  -0.00006  -0.38052
    Y7        2.38193  -0.00001   0.00000   0.00006   0.00007   2.38200
    Z7        1.07197   0.00001   0.00000  -0.00005  -0.00008   1.07189
    X8       -0.38140   0.00001   0.00000   0.00021   0.00014  -0.38126
    Y8        1.68822   0.00000   0.00000   0.00012   0.00013   1.68835
    Z8       -2.98106   0.00001   0.00000  -0.00007  -0.00010  -2.98116
    X9       -0.70057   0.00001   0.00000   0.00094   0.00081  -0.69976
    Y9        3.66640   0.00000   0.00000   0.00028   0.00028   3.66668
    Z9       -3.49038   0.00001   0.00000   0.00009   0.00007  -3.49030
   X10        1.64383   0.00001   0.00000   0.00012   0.00005   1.64388
   Y10        1.29878  -0.00001   0.00000  -0.00051  -0.00046   1.29831
   Z10       -3.12188   0.00001   0.00000   0.00008   0.00001  -3.12188
   X11       -1.38445   0.00001   0.00000   0.00001  -0.00008  -1.38453
   Y11        0.49399   0.00000   0.00000   0.00051   0.00050   0.49448
   Z11       -4.33743   0.00000   0.00000  -0.00025  -0.00025  -4.33768
   X12       -0.78607  -0.00001   0.00000  -0.00018  -0.00011  -0.78618
   Y12       -1.65539   0.00000   0.00000   0.00009   0.00009  -1.65529
   Z12        0.46405   0.00000   0.00000  -0.00015  -0.00017   0.46388
   X13        1.24371  -0.00001   0.00000  -0.00015  -0.00008   1.24363
   Y13       -2.03501  -0.00001   0.00000   0.00007   0.00011  -2.03490
   Z13        0.36861   0.00001   0.00000   0.00057   0.00051   0.36912
   X14       -1.43231  -0.00001   0.00000  -0.00090  -0.00079  -1.43310
   Y14       -2.05378   0.00000   0.00000  -0.00003  -0.00004  -2.05381
   Z14        2.38715   0.00000   0.00000  -0.00041  -0.00042   2.38674
   X15       -1.76038  -0.00001   0.00000   0.00022   0.00028  -1.76010
   Y15       -2.93217   0.00000   0.00000   0.00019   0.00018  -2.93199
   Z15       -0.83795   0.00000   0.00000  -0.00056  -0.00055  -0.83850
         Item               Value     Threshold  Converged?
 Maximum Force            0.000019     0.000450     YES
 RMS     Force            0.000008     0.000300     YES
 Maximum Displacement     0.000832     0.001800     YES
 RMS     Displacement     0.000319     0.001200     YES
 Predicted change in Energy=-5.851601D-09
 Optimization completed.
    -- Stationary point found.
 GradGradGradGradGradGradGradGradGradGradGradGradGradGradGradGradGradGrad


 Test job not archived.
 1\1\GINC-NODE58\Freq\RBMK\CBSB7\C4H8O3\NYEE\15-Jul-2014\0\\# freq nosy
 mm bmk/cbsb7 iop(7/33=1)\\Title Card Required\\0,1\O,-3.884088,1.87435
 2,1.059011\H,-4.220883,1.338544,0.314251\O,-2.488328,1.658839,0.947729
 \C,-2.182918,0.838711,-0.065716\O,-3.028234,0.371063,-0.781269\C,-0.68
 96,0.591682,-0.147727\H,-0.201331,1.260463,0.56726\C,-0.20183,0.893367
 ,-1.577509\H,-0.370728,1.940176,-1.847029\H,0.869877,0.687283,-1.65203
 \H,-0.73262,0.261407,-2.295269\C,-0.41597,-0.875994,0.245567\H,0.65814
 4,-1.076881,0.195059\H,-0.757946,-1.086812,1.263227\H,-0.931552,-1.551
 637,-0.443423\\Version=AM64L-G03RevD.01\HF=-382.7266167\RMSD=5.744e-09
 \RMSF=7.576e-06\ZeroPoint=0.1241574\Thermal=0.1321182\Dipole=0.8823928
 ,-0.325232,-0.2572678\DipoleDeriv=-0.3509202,0.1139773,0.1287069,-0.03
 95917,-0.2560422,0.0420763,-0.0586854,0.059194,-0.2158268,0.3699211,-0
 .0045123,0.0019752,-0.0355734,0.3156714,-0.0350769,-0.0392796,-0.03011
 03,0.2910773,-0.2542987,0.0442852,0.0337335,0.225265,-0.4702676,-0.401
 0022,0.2689594,-0.4296078,-0.6392656,1.1829151,-0.0706936,0.1159262,-0
 .2563854,0.7996419,0.6759121,-0.168233,0.6985582,1.1122939,-0.895336,-
 0.1466398,-0.2914644,0.0153705,-0.5437355,-0.2440755,-0.0514857,-0.256
 2311,-0.7165361,-0.0978071,0.0489407,0.0029698,0.1133064,0.045008,-0.0
 299767,0.0534303,-0.0341297,0.0685744,0.0407476,-0.0160433,-0.0117286,
 -0.0263232,-0.0188534,-0.0385321,-0.0158729,-0.0384512,-0.0240032,-0.0
 039431,0.0194844,0.0111838,0.0227049,0.0164656,0.0071891,-0.0627843,0.
 008919,0.0198348,0.0783225,0.0350203,0.0025484,0.0156063,-0.0896454,0.
 0662889,0.0118755,0.0368301,0.0264255,-0.1041349,0.0305984,0.0337226,0
 .048276,0.07676,0.0001292,0.0193624,0.0099279,0.0398904,0.0483755,-0.0
 573012,-0.0589433,-0.0445076,0.0161878,-0.065663,-0.0087704,-0.0217184
 ,0.0086593,-0.0292572,0.0184311,0.0223242,-0.0644691,0.0397043,0.00360
 3,0.034742,0.0085287,0.0187519,-0.1009073,0.0488631,0.0053859,0.040853
 5,0.0301951,0.0095875,0.0210993,0.0021609,0.0839161,0.0686162,-0.01044
 3,0.0590907,-0.0028291,0.0312889,0.0280699,0.044712,0.0584596,-0.07710
 06,0.0477064,-0.0539674,-0.0554311,-0.011703,0.0076209,-0.0185297,-0.0
 490696,-0.0723297,0.0033086\Polar=63.3157832,-5.7892535,50.4418399,-4.
 4709068,3.3063552,52.2119916\PG=C01 [X(C4H8O3)]\NImag=0\\0.38262448,0.
 01628746,0.20730625,0.06766178,0.25711111,0.35919242,-0.09360022,-0.04
 768658,-0.07373824,0.14914470,-0.08340509,-0.15230989,-0.20492199,0.06
 968171,0.15464195,-0.12057814,-0.20039672,-0.28340217,0.10961617,0.200
 90053,0.28560939,-0.25446964,-0.01632358,-0.05044406,-0.04518765,0.007
 16160,0.00430374,0.44703903,0.06280478,-0.04301048,-0.03013735,-0.0214
 7839,-0.00314845,-0.00198515,-0.03920372,0.20481433,0.05234595,-0.0397
 6450,-0.05995810,-0.03342255,0.00150618,-0.00543161,-0.00036030,0.2058
 1512,0.30711915,-0.05287663,0.03329086,0.03621371,-0.01395314,0.015556
 66,0.01720161,-0.12977283,0.00975157,0.00530007,0.87808194,0.00802577,
 -0.01412119,-0.01636695,-0.00213293,0.01339779,0.00713313,0.04106920,-
 0.13496095,-0.08731172,0.09967658,0.41910437,0.00428160,-0.01361439,-0
 .01701896,-0.00582465,0.00942248,0.01914443,0.04429026,-0.09053961,-0.
 17546377,0.21656951,0.24879157,0.58854786,0.01305907,0.01363086,0.0191
 7558,0.00265929,-0.00715155,-0.00829482,0.00753417,-0.02506385,-0.0353
 4485,-0.46428192,-0.16811800,-0.26847074,0.48334274,-0.00735960,-0.001
 09129,-0.00076906,0.00172018,-0.01139789,-0.00378607,-0.02019307,-0.02
 159112,-0.07241543,-0.18040897,-0.18464983,-0.15534808,0.20583334,0.20
 174692,-0.00798989,0.00203854,-0.00003493,0.00337917,-0.00482574,-0.01
 335602,-0.02907985,-0.07318918,-0.06514007,-0.28389740,-0.15386123,-0.
 31995561,0.32549175,0.23636981,0.38890276,0.00836113,-0.00165885,-0.00
 210080,-0.00038270,-0.00133066,-0.00174528,-0.01807476,0.01230911,0.01
 132661,-0.18465436,0.01698279,0.00765469,-0.03187341,-0.00246447,-0.01
 029446,0.50944755,0.00232070,0.00321409,-0.00549402,-0.00046462,-0.000
 88908,-0.00156796,0.02508537,-0.00283848,-0.00884126,0.01062712,-0.083
 05704,-0.00121378,-0.01971408,0.01347865,-0.00531546,0.03787185,0.5067
 5272,0.00357747,-0.00676936,0.00079372,-0.00051930,-0.00168796,-0.0021
 0911,0.02883342,-0.01004782,-0.00200023,0.00202039,-0.00086228,-0.0797
 4400,-0.03134634,-0.00279874,0.00509596,0.04079261,0.07662986,0.530491
 48,0.00152720,0.00066926,0.00090749,0.00049253,-0.00088907,-0.00109720
 ,-0.00091332,0.00107798,0.00089011,-0.01343742,-0.02496759,-0.02616087
 ,-0.00971928,0.00242872,0.00067692,-0.10678554,-0.06964982,-0.07423966
 ,0.11782753,-0.00034478,0.00026950,0.00039028,0.00012610,0.00012857,0.
 00016874,0.00148373,-0.00062568,-0.00024129,0.00229257,0.00248183,0.00
 467067,0.00266544,0.00083818,-0.00028875,-0.07505032,-0.14564364,-0.10
 732471,0.07715219,0.16067582,-0.00026423,0.00053844,0.00026644,0.00015
 517,0.00005554,0.00008683,0.00183920,-0.00055081,-0.00041603,-0.000137
 03,0.00198759,-0.00075165,0.00121941,-0.00064080,0.00153364,-0.0797999
 1,-0.10693039,-0.16070335,0.08299649,0.11272729,0.17599373,-0.00196607
 ,0.00217328,0.00039885,0.00047554,0.00012866,0.00023883,-0.00341956,0.
 00058297,-0.00071212,-0.01643348,-0.00910285,0.03593943,0.00085321,0.0
 0220212,-0.00027262,-0.08943656,-0.01071658,0.03153282,0.00607740,0.00
 417706,-0.01345735,0.57378675,0.00139388,-0.00089626,0.00036481,-0.000
 07925,-0.00005399,-0.00017692,0.00129488,-0.00043006,-0.00071646,0.000
 40552,0.00113261,-0.00554594,0.00053170,0.00015862,-0.00047912,-0.0063
 6838,-0.07918671,0.01441358,0.00790741,0.00495894,-0.01726790,-0.00756
 595,0.58009361,-0.00105214,0.00075388,0.00028674,0.00027680,-0.0001964
 7,-0.00008153,-0.00100688,0.00157164,0.00074800,0.01661534,-0.00117368
 ,-0.00454510,-0.00456694,-0.00168244,-0.00232603,0.02679545,0.01882042
 ,-0.17453318,0.00893270,0.00558157,-0.02097403,0.03404638,0.01720276,0
 .48041404,0.00006152,-0.00001158,-0.00002214,-0.00006230,-0.00004331,0
 .00006113,0.00003484,0.00017134,-0.00014319,0.00106718,-0.00139962,0.0
 0045069,-0.00035533,0.00038654,-0.00043485,-0.00021843,-0.01150012,0.0
 0219443,0.00019002,0.00043876,-0.00049194,-0.05533599,0.04141521,-0.01
 012599,0.05500475,-0.00013189,0.00005069,0.00003465,-0.00000228,-0.000
 05650,0.00006340,-0.00038206,0.00015343,0.00021409,0.00090449,-0.00019
 380,0.00048311,-0.00068584,0.00023734,-0.00034832,0.00016283,-0.002974
 54,-0.00033461,-0.00007456,0.00054720,0.00036891,0.04083620,-0.2935259
 4,0.05952561,-0.04463333,0.31585077,-0.00007151,0.00001023,-0.00011926
 ,0.00001305,0.00007664,0.00000832,0.00010829,-0.00050873,-0.00001176,-
 0.00141025,0.00121666,0.00064152,0.00033498,-0.00005176,0.00026323,-0.
 00499117,0.02979469,-0.00665873,-0.00077355,-0.00028254,0.00107498,-0.
 00970544,0.05791437,-0.06280202,0.00868869,-0.06668767,0.06835833,-0.0
 0014432,0.00014857,0.00009377,0.00014079,-0.00002425,-0.00003704,-0.00
 053408,0.00017946,0.00032726,0.00083471,-0.00051376,0.00083299,0.00016
 751,0.00021267,0.00064005,-0.00956632,0.00165517,0.00002211,0.00045756
 ,0.00007608,0.00025490,-0.30448452,0.04966480,0.01435120,-0.00338812,0
 .00006087,-0.00005890,0.32890317,-0.00009276,0.00012411,0.00006830,0.0
 0002923,-0.00003789,0.00004067,-0.00039648,0.00021845,0.00009382,-0.00
 078578,-0.00044996,0.00123532,-0.00015532,0.00036779,0.00026341,-0.006
 30711,0.00008616,-0.00016183,0.00038065,0.00000140,-0.00021983,0.05096
 017,-0.05764032,-0.00291800,0.03148960,-0.00453926,-0.00246300,-0.0549
 4658,0.05737302,0.00086327,-0.00072423,-0.00002014,-0.00013233,-0.0000
 4976,-0.00012105,0.00128300,-0.00026056,0.00008087,-0.00203382,0.00190
 734,-0.00725940,0.00099195,-0.00002235,0.00177432,0.03347871,-0.004479
 97,-0.00456937,-0.00044940,-0.00056389,0.00113879,0.01293003,-0.002992
 44,-0.04699727,-0.00779914,0.00055131,-0.00025543,-0.01758306,0.001390
 97,0.05260071,-0.00019793,-0.00007101,-0.00018623,-0.00015157,0.000153
 25,0.00020391,0.00009094,-0.00063336,-0.00048317,0.00114698,0.00190806
 ,0.00160136,-0.00041989,-0.00022370,-0.00028680,0.00526758,0.00700387,
 0.00871799,-0.00050222,-0.00047585,0.00265617,-0.11371404,-0.07740598,
 -0.08755035,0.00261551,0.00425679,0.00503485,-0.01373230,-0.01931028,-
 0.02079740,0.11940155,0.00002442,0.00000549,0.00002050,0.00002806,-0.0
 0001506,-0.00005368,0.00014169,0.00028505,0.00013545,-0.00126155,-0.00
 041258,-0.00126282,0.00041850,-0.00018328,0.00106262,0.00439069,0.0031
 8792,0.00457435,-0.00044420,0.00043594,0.00178575,-0.07625721,-0.14044
 852,-0.10205773,-0.01578815,-0.01669159,-0.02080501,0.00390508,0.00398
 492,0.00611633,0.08435827,0.14844157,0.00028042,0.00012088,0.00030505,
 0.00019543,-0.00019084,-0.00019328,0.00006603,0.00045518,0.00048012,-0
 .00322101,-0.00192469,-0.00177964,0.00051129,0.00101263,0.00192602,-0.
 01454638,-0.01848318,-0.02392640,0.00286916,0.00208211,-0.00472962,-0.
 08479926,-0.10067433,-0.15897019,0.00499786,0.00505587,0.00591835,0.00
 181321,0.00262727,0.00184186,0.09185253,0.11005829,0.17707294,-0.00225
 562,-0.00034238,0.00206456,0.00048066,0.00001281,0.00005905,-0.0021986
 8,-0.00038002,0.00053879,-0.00849375,0.03702676,-0.01157349,-0.0010071
 0,-0.00201832,0.00178351,-0.08036296,0.02084791,-0.00907118,0.00403827
 ,-0.01427511,0.00490468,0.00317370,-0.01137203,0.00315146,-0.00059821,
 -0.00057284,0.00291605,0.00057916,-0.00100531,0.00021430,0.00008291,0.
 00066686,-0.00045476,0.58063352,-0.00057341,0.00029677,0.00026760,0.00
 024912,-0.00008701,-0.00022218,-0.00102800,0.00087485,0.00195917,0.018
 36332,-0.01126487,0.00198391,-0.00486122,-0.00134033,-0.00270477,0.011
 68798,-0.17445168,0.02476597,0.00522171,-0.02132210,0.00670414,0.00015
 227,-0.01090732,0.00684580,-0.00000239,0.00079103,0.00006942,0.0002806
 7,0.00048077,-0.00134210,0.00044427,0.00133837,-0.00135968,0.01899867,
 0.46897063,0.00120456,0.00055587,-0.00050358,-0.00005038,-0.00013656,-
 0.00005338,0.00093811,-0.00086073,-0.00100638,-0.00336195,-0.00053957,
 0.00016444,0.00053419,-0.00061348,0.00079828,-0.00428780,0.01995224,-0
 .08136961,0.00534567,-0.01920176,0.00660594,-0.00513330,0.03579857,-0.
 01277064,0.00216756,0.00135159,-0.00623011,-0.00100982,-0.00011621,0.0
 0178665,-0.00045365,0.00059316,0.00158824,-0.00574570,0.02610349,0.577
 57613,-0.00007754,0.00004466,0.00006063,0.00010096,-0.00006117,-0.0000
 0522,-0.00021191,0.00020949,0.00005584,0.00080389,0.00011637,-0.000198
 30,0.00038568,0.00055969,0.00022745,-0.00474560,0.00020958,0.00051383,
 0.00045719,0.00035903,0.00007816,0.00056282,-0.00082679,0.00013391,0.0
 0034415,-0.00003180,0.00001854,0.00041961,0.00016900,-0.00057723,-0.00
 004929,0.00007000,0.00003029,-0.30693660,0.04516452,0.01222383,0.33087
 494,0.00085985,0.00012587,-0.00062887,-0.00016241,-0.00003817,-0.00001
 875,0.00102028,-0.00014350,-0.00035854,-0.00343510,-0.00691164,0.00200
 050,0.00162766,0.00158242,0.00030548,0.03390154,-0.00927242,0.00011347
 ,-0.00029303,0.00132053,-0.00065403,0.00046126,0.00180011,-0.00140435,
 -0.00025046,0.00011852,-0.00041826,-0.00073216,0.00005731,0.00069126,-
 0.00013872,-0.00003395,0.00011191,0.04386284,-0.05262946,-0.00263611,-
 0.05030777,0.05951253,-0.00013021,0.00006212,0.00015552,0.00005292,0.0
 0001448,-0.00004990,-0.00041654,0.00007728,0.00036279,-0.00015067,0.00
 154059,-0.00097776,-0.00020731,0.00023143,0.00036212,-0.00820397,0.001
 27203,-0.00070862,0.00048494,-0.00031537,0.00008865,-0.00101744,-0.000
 19622,0.00042811,0.00016086,-0.00019404,0.00004766,0.00031704,0.000381
 06,-0.00005755,-0.00010681,-0.00000757,-0.00003119,0.01320537,-0.00271
 682,-0.04924584,-0.01402357,0.00074339,0.04833000,0.00002608,-0.000051
 47,0.00002576,-0.00004501,0.00006282,-0.00005512,0.00012027,-0.0001766
 3,0.00013612,0.00089087,0.00020670,-0.00126188,-0.00025434,-0.00020001
 ,0.00025629,0.00039807,0.00131054,-0.00750838,-0.00000408,-0.00041286,
 0.00036741,-0.00002703,0.00135352,-0.00014115,0.00067872,0.00016729,-0
 .00028248,0.00040500,0.00010818,-0.00027127,-0.00004628,0.00001587,0.0
 0030622,-0.07686110,-0.01527360,0.07838492,-0.00856119,-0.00631937,0.0
 3080240,0.07805892,-0.00007428,-0.00019172,-0.00012091,-0.00000506,0.0
 0003162,0.00010578,0.00012371,0.00014325,-0.00059390,-0.00154603,0.000
 94802,0.00168126,0.00037242,0.00010083,-0.00023978,-0.00970776,-0.0051
 4972,0.02971805,-0.00053463,0.00119777,-0.00043701,0.00203759,-0.00676
 863,0.00055174,-0.00061440,-0.00016836,0.00208476,0.00002933,0.0000054
 3,-0.00037676,0.00017447,0.00000962,0.00004870,-0.01463906,-0.05631255
 ,0.04281364,0.00117044,0.00042559,-0.00596362,0.01512743,0.06147037,-0
 .00013240,0.00006812,0.00006667,0.00000791,0.00007576,-0.00008120,-0.0
 0042832,0.00017226,0.00044569,0.00107628,0.00019616,-0.00071629,-0.000
 68786,-0.00011646,0.00018142,0.00087539,0.00003606,-0.00505815,-0.0000
 8003,0.00026241,0.00057220,-0.00054099,0.00190033,0.00066821,0.0002940
 5,0.00004020,-0.00027104,-0.00003009,-0.00017426,0.00009804,0.00005443
 ,-0.00013274,0.00043419,0.07808588,0.04440587,-0.28015056,-0.00049874,
 -0.00052743,-0.00013423,-0.08549148,-0.05061670,0.30136449,-0.00007150
 ,-0.00009951,-0.00011065,-0.00011189,0.00014759,0.00012838,-0.00003682
 ,-0.00015074,-0.00045456,0.00107797,0.00122253,0.00186940,-0.00009038,
 -0.00047510,-0.00019928,0.00262631,0.00511310,0.00447979,0.00029416,0.
 00178795,-0.00032113,-0.00011218,-0.00034853,0.00014020,-0.00003833,0.
 00012613,0.00017887,-0.00005783,-0.00013722,-0.00011760,0.00020805,-0.
 00026833,0.00009897,-0.11027419,-0.07882391,-0.08075625,-0.01336710,-0
 .02009440,-0.02076703,0.00522110,0.00808582,0.00749597,0.11473264,0.00
 026495,0.00022804,0.00018191,0.00017711,-0.00016598,-0.00020482,0.0001
 4645,0.00025936,0.00051926,-0.00343126,-0.00104277,-0.00274419,0.00066
 994,0.00174299,0.00121250,-0.01441926,-0.02325622,-0.02022795,0.002014
 97,-0.00526426,0.00253311,-0.00006898,0.00171386,-0.00142075,0.0003419
 1,0.00040101,0.00005019,0.00000405,-0.00003193,0.00015483,-0.00004008,
 0.00009610,0.00105988,-0.07681079,-0.14443709,-0.10306415,0.00315476,0
 .00408627,0.00507125,0.00408159,0.00425848,0.00441041,0.08391462,0.161
 41216,0.00000347,0.00001001,-0.00000942,-0.00000916,-0.00004229,0.0000
 3029,0.00007388,-0.00001154,0.00019134,-0.00078478,-0.00073292,-0.0002
 8607,0.00065969,0.00063082,-0.00002507,0.00504631,0.00582073,0.0049995
 9,-0.00030275,0.00233522,0.00021348,0.00055220,0.00045490,0.00145488,0
 .00000198,-0.00012410,0.00003597,0.00006638,-0.00004770,-0.00004105,-0
 .00025684,-0.00002690,0.00006353,-0.08007854,-0.10475981,-0.15718957,0
 .00196058,0.00268035,0.00143023,-0.01526735,-0.01865526,-0.01741945,0.
 08833492,0.11246851,0.16655132\\0.00000054,-0.00000215,0.00001874,0.00
 000197,-0.00001450,0.00000668,0.00000587,-0.00000531,0.00000050,0.0000
 0731,0.00000221,0.00001443,-0.00001239,-0.00001004,0.00000391,-0.00000
 019,0.00000134,-0.00000139,0.00000217,0.00000579,-0.00000796,-0.000009
 23,0.00000184,-0.00000644,-0.00001421,-0.00000021,-0.00000672,-0.00000
 879,0.00000530,-0.00001185,-0.00000977,-0.00000149,-0.00000249,0.00000
 833,0.00000362,-0.00000124,0.00000733,0.00000761,-0.00000795,0.0000141
 5,0.00000444,-0.00000082,0.00000692,0.00000156,0.00000261\\\@


 A MAN IS EXACTLY AS GREAT AS THE TIDE SURGING
 BENEATH HIM.      - BISMARCK
 Job cpu time:  0 days  0 hours 49 minutes 42.6 seconds.
 File lengths (MBytes):  RWF=     71 Int=      0 D2E=      0 Chk=      8 Scr=      1
 Normal termination of Gaussian 03 at Tue Jul 15 17:29:39 2014.
