 Entering Gaussian System, Link 0=g03
 Input=g-Q2-freq.gjf
 Output=g-Q2-freq.log
 Initial command:
 /opt/g03/l1.exe /scratch/shamel/Gau-19279.inp -scrdir=/scratch/shamel/
 Entering Link 1 = /opt/g03/l1.exe PID=     19281.
  
 Copyright (c) 1988,1990,1992,1993,1995,1998,2003,2004, Gaussian, Inc.
                  All Rights Reserved.
  
 This is the Gaussian(R) 03 program.  It is based on the
 the Gaussian(R) 98 system (copyright 1998, Gaussian, Inc.),
 the Gaussian(R) 94 system (copyright 1995, Gaussian, Inc.),
 the Gaussian 92(TM) system (copyright 1992, Gaussian, Inc.),
 the Gaussian 90(TM) system (copyright 1990, Gaussian, Inc.),
 the Gaussian 88(TM) system (copyright 1988, Gaussian, Inc.),
 the Gaussian 86(TM) system (copyright 1986, Carnegie Mellon
 University), and the Gaussian 82(TM) system (copyright 1983,
 Carnegie Mellon University). Gaussian is a federally registered
 trademark of Gaussian, Inc.
  
 This software contains proprietary and confidential information,
 including trade secrets, belonging to Gaussian, Inc.
  
 This software is provided under written license and may be
 used, copied, transmitted, or stored only in accord with that
 written license.
  
 The following legend is applicable only to US Government
 contracts under FAR:
  
                    RESTRICTED RIGHTS LEGEND
  
 Use, reproduction and disclosure by the US Government is
 subject to restrictions as set forth in subparagraphs (a)
 and (c) of the Commercial Computer Software - Restricted
 Rights clause in FAR 52.227-19.
  
 Gaussian, Inc.
 340 Quinnipiac St., Bldg. 40, Wallingford CT 06492
  
  
 ---------------------------------------------------------------
 Warning -- This program may not be used in any manner that
 competes with the business of Gaussian, Inc. or will provide
 assistance to any competitor of Gaussian, Inc.  The licensee
 of this program is prohibited from giving any competitor of
 Gaussian, Inc. access to this program.  By using this program,
 the user acknowledges that Gaussian, Inc. is engaged in the
 business of creating and licensing software in the field of
 computational chemistry and represents and warrants to the
 licensee that it is not a competitor of Gaussian, Inc. and that
 it will not use this program in any manner prohibited above.
 ---------------------------------------------------------------
  

 Cite this work as:
 Gaussian 03, Revision D.01,
 M. J. Frisch, G. W. Trucks, H. B. Schlegel, G. E. Scuseria, 
 M. A. Robb, J. R. Cheeseman, J. A. Montgomery, Jr., T. Vreven, 
 K. N. Kudin, J. C. Burant, J. M. Millam, S. S. Iyengar, J. Tomasi, 
 V. Barone, B. Mennucci, M. Cossi, G. Scalmani, N. Rega, 
 G. A. Petersson, H. Nakatsuji, M. Hada, M. Ehara, K. Toyota, 
 R. Fukuda, J. Hasegawa, M. Ishida, T. Nakajima, Y. Honda, O. Kitao, 
 H. Nakai, M. Klene, X. Li, J. E. Knox, H. P. Hratchian, J. B. Cross, 
 V. Bakken, C. Adamo, J. Jaramillo, R. Gomperts, R. E. Stratmann, 
 O. Yazyev, A. J. Austin, R. Cammi, C. Pomelli, J. W. Ochterski, 
 P. Y. Ayala, K. Morokuma, G. A. Voth, P. Salvador, J. J. Dannenberg, 
 V. G. Zakrzewski, S. Dapprich, A. D. Daniels, M. C. Strain, 
 O. Farkas, D. K. Malick, A. D. Rabuck, K. Raghavachari, 
 J. B. Foresman, J. V. Ortiz, Q. Cui, A. G. Baboul, S. Clifford, 
 J. Cioslowski, B. B. Stefanov, G. Liu, A. Liashenko, P. Piskorz, 
 I. Komaromi, R. L. Martin, D. J. Fox, T. Keith, M. A. Al-Laham, 
 C. Y. Peng, A. Nanayakkara, M. Challacombe, P. M. W. Gill, 
 B. Johnson, W. Chen, M. W. Wong, C. Gonzalez, and J. A. Pople, 
 Gaussian, Inc., Wallingford CT, 2004.
 
 ******************************************
 Gaussian 03:  AM64L-G03RevD.01 13-Oct-2005
                18-Jun-2013 
 ******************************************
 %chk=g-Q2-freq.chk
 %mem=1000mb
 %nproc=8
 Will use up to    8 processors via shared memory.
 -------------------------------------
 # freq nosymm b3lyp/cbsb7 iop(7/33=1)
 -------------------------------------
 1/10=4,30=1,38=1/1,3;
 2/15=1,17=6,18=5,40=1/2;
 3/5=4,6=6,7=700,11=2,16=1,25=1,30=1,74=-5/1,2,3;
 4//1;
 5/5=2,38=5/2;
 8/6=4,10=90,11=11/1;
 11/6=1,8=1,9=11,15=111,16=1,31=1/1,2,10;
 10/6=1,31=1/2;
 6/7=2,8=2,9=2,10=2,18=1,28=1/1;
 7/8=1,10=1,25=1,30=1,33=1/1,2,3,16;
 1/10=4,30=1/3;
 99//99;
 -------------------
 Title Card Required
 -------------------
 Symbolic Z-matrix:
 Charge =  0 Multiplicity = 2
 C                    -1.05966  -0.0548    0.00726 
 H                    -1.88918  -0.16627  -0.69783 
 H                    -0.70666  -1.04596   0.30744 
 C                    -1.42911   0.77109   1.20062 
 C                    -0.71821   0.516     2.49258 
 H                    -0.75587  -0.54409   2.76743 
 H                     0.35119   0.76895   2.4199 
 H                    -1.14086   1.09544   3.31818 
 C                    -2.14911   2.06358   0.99678 
 H                    -2.88761   1.98786   0.19774 
 H                    -2.65695   2.38568   1.91241 
 O                    -1.25624   3.13399   0.55315 
 H                    -0.61854   3.29709   1.25709 
 O                     0.06643   0.49744  -0.71331 
 O                    -0.42414   1.54867  -1.57861 
 H                    -0.50316   2.29878  -0.95505 
 

 GradGradGradGradGradGradGradGradGradGradGradGradGradGradGradGradGradGrad
 Berny optimization.
 Initialization pass.
 Trust Radius=3.00D-01 FncErr=1.00D-07 GrdErr=1.00D-07
 Number of steps in this run=   2 maximum allowed number of steps=   2.
 GradGradGradGradGradGradGradGradGradGradGradGradGradGradGradGradGradGrad

                          Input orientation:                          
 ---------------------------------------------------------------------
 Center     Atomic     Atomic              Coordinates (Angstroms)
 Number     Number      Type              X           Y           Z
 ---------------------------------------------------------------------
    1          6             0       -1.059664   -0.054797    0.007264
    2          1             0       -1.889184   -0.166267   -0.697832
    3          1             0       -0.706663   -1.045962    0.307438
    4          6             0       -1.429109    0.771085    1.200624
    5          6             0       -0.718205    0.516003    2.492575
    6          1             0       -0.755866   -0.544092    2.767432
    7          1             0        0.351187    0.768953    2.419899
    8          1             0       -1.140857    1.095443    3.318184
    9          6             0       -2.149112    2.063576    0.996780
   10          1             0       -2.887609    1.987861    0.197743
   11          1             0       -2.656950    2.385682    1.912410
   12          8             0       -1.256236    3.133994    0.553149
   13          1             0       -0.618544    3.297089    1.257086
   14          8             0        0.066428    0.497437   -0.713307
   15          8             0       -0.424144    1.548668   -1.578614
   16          1             0       -0.503162    2.298784   -0.955054
 ---------------------------------------------------------------------
                    Distance matrix (angstroms):
                    1          2          3          4          5
     1  C    0.000000
     2  H    1.094390   0.000000
     3  H    1.094131   1.784037   0.000000
     4  C    1.497558   2.166664   2.149737   0.000000
     5  C    2.572776   3.466321   2.686018   1.496526   0.000000
     6  H    2.819615   3.665408   2.511148   2.153563   1.095795
     7  H    2.913739   3.951474   2.979170   2.157797   1.101301
     8  H    3.505971   4.275546   3.720045   2.161564   1.093625
     9  C    2.579446   2.812734   3.496438   1.493482   2.584546
    10  H    2.747748   2.537553   3.738000   2.147914   3.484097
    11  H    3.483797   3.730318   4.260955   2.149687   2.755181
    12  O    3.241145   3.585708   4.223084   2.456104   3.302231
    13  H    3.604411   4.175053   4.446537   2.653469   3.044800
    14  O    1.446467   2.065227   2.005410   2.444309   3.300556
    15  O    2.343074   2.421388   3.220111   3.055937   4.210398
    16  H    2.602901   2.839665   3.580869   2.799677   3.887248
                    6          7          8          9         10
     6  H    0.000000
     7  H    1.752265   0.000000
     8  H    1.771898   1.771922   0.000000
     9  C    3.446197   3.154808   2.709756   0.000000
    10  H    4.190276   4.112604   3.685743   1.090674   0.000000
    11  H    3.595658   3.452571   2.437100   1.095459   1.775260
    12  O    4.322237   3.414965   3.437211   1.462816   2.025170
    13  H    4.129730   2.946860   3.060748   1.982915   2.825764
    14  O    3.725117   3.157814   4.250655   3.207149   3.431867
    15  O    4.835059   4.146951   4.969680   3.142181   3.068712
    16  H    4.690704   3.802710   4.485003   2.564007   2.666684
                   11         12         13         14         15
    11  H    0.000000
    12  O    2.090349   0.000000
    13  H    2.327061   0.963731   0.000000
    14  O    4.228078   3.210106   3.491373   0.000000
    15  O    4.227678   2.783891   3.337059   1.447240   0.000000
    16  H    3.587298   1.881322   2.429710   1.904659   0.978644
                   16
    16  H    0.000000
 Symmetry turned off by external request.
 Stoichiometry    C4H9O3(2)
 Framework group  C1[X(C4H9O3)]
 Deg. of freedom    42
 Full point group                 C1
 Rotational constants (GHZ):      3.1074138      2.3299754      1.5824529
 Standard basis: CBSB7 (5D, 7F)
 Integral buffers will be    131072 words long.
 Raffenetti 2 integral format.
 Two-electron integral symmetry is turned off.
   180 basis functions,   296 primitive gaussians,   187 cartesian basis functions
    29 alpha electrons       28 beta electrons
       nuclear repulsion energy       330.6320773855 Hartrees.
 NAtoms=   16 NActive=   16 NUniq=   16 SFac= 7.50D-01 NAtFMM=   80 NAOKFM=F Big=F
 One-electron integrals computed using PRISM.
 NBasis=   180 RedAO= T  NBF=   180
 NBsUse=   180 1.00D-06 NBFU=   180
 Harris functional with IExCor=  402 diagonalized for initial guess.
 ExpMin= 1.03D-01 ExpMax= 8.59D+03 ExpMxC= 1.30D+03 IAcc=1 IRadAn=         1 AccDes= 1.00D-06
 HarFok:  IExCor= 402 AccDes= 1.00D-06 IRadAn=         1 IDoV=1
 ScaDFX=  1.000000  1.000000  1.000000  1.000000
 <S**2> of initial guess= 0.7500
 Requested convergence on RMS density matrix=1.00D-08 within 128 cycles.
 Requested convergence on MAX density matrix=1.00D-06.
 Requested convergence on             energy=1.00D-06.
 No special actions if energy rises.
 Integral accuracy reduced to 1.0D-05 until final iterations.
 Initial convergence to 1.0D-05 achieved.  Increase integral accuracy.
 SCF Done:  E(UB+HF-LYP) =  -383.466372840     A.U. after   17 cycles
             Convg  =    0.6347D-08             -V/T =  2.0032
             S**2   =   0.7544
 Annihilation of the first spin contaminant:
 S**2 before annihilation     0.7544,   after     0.7500
 Range of M.O.s used for correlation:     1   180
 NBasis=   180 NAE=    29 NBE=    28 NFC=     0 NFV=     0
 NROrb=    180 NOA=    29 NOB=    28 NVA=   151 NVB=   152
 Symmetrizing basis deriv contribution to polar:
 IMax=3 JMax=2 DiffMx= 0.00D+00
 G2DrvN: will do   17 centers at a time, making    1 passes doing MaxLOS=2.
 FoFDir/FoFCou used for L=0 through L=2.
 DoAtom=TTTTTTTTTTTTTTTT
          Differentiating once with respect to electric field.
                with respect to dipole field.
          Differentiating once with respect to nuclear coordinates.
 Symmetry not used in FoFDir.
 MinBra= 0 MaxBra= 2 Meth= 1.
 IRaf=       0 NMat=  51 IRICut=      51 DoRegI=T DoRafI=T ISym2E= 0 JSym2E=0.
          There are  51 degrees of freedom in the 1st order CPHF.
    48 vectors were produced by pass  0.
 AX will form  48 AO Fock derivatives at one time.
    48 vectors were produced by pass  1.
    48 vectors were produced by pass  2.
    48 vectors were produced by pass  3.
    48 vectors were produced by pass  4.
    48 vectors were produced by pass  5.
    30 vectors were produced by pass  6.
     4 vectors were produced by pass  7.
     3 vectors were produced by pass  8.
 Inv2:  IOpt= 1 Iter= 1 AM= 2.72D-15 Conv= 1.00D-12.
 Inverted reduced A of dimension  325 with in-core refinement.
 Isotropic polarizability for W=    0.000000       58.57 Bohr**3.
 End of Minotr Frequency-dependent properties file   721 does not exist.

 **********************************************************************

            Population analysis using the SCF density.

 **********************************************************************

 Alpha  occ. eigenvalues --  -19.16527 -19.14492 -19.14491 -10.23483 -10.22213
 Alpha  occ. eigenvalues --  -10.20079 -10.18398  -1.10438  -1.04226  -0.89773
 Alpha  occ. eigenvalues --   -0.81076  -0.71165  -0.68489  -0.57848  -0.53222
 Alpha  occ. eigenvalues --   -0.51693  -0.48896  -0.47025  -0.44714  -0.43158
 Alpha  occ. eigenvalues --   -0.42442  -0.41346  -0.39204  -0.37023  -0.35477
 Alpha  occ. eigenvalues --   -0.30790  -0.28578  -0.26667  -0.21799
 Alpha virt. eigenvalues --    0.01498   0.03329   0.05360   0.07164   0.07796
 Alpha virt. eigenvalues --    0.09265   0.10357   0.10820   0.14222   0.15261
 Alpha virt. eigenvalues --    0.16125   0.17188   0.20515   0.26259   0.28129
 Alpha virt. eigenvalues --    0.28978   0.30145   0.33240   0.36401   0.38791
 Alpha virt. eigenvalues --    0.41616   0.41902   0.43679   0.44739   0.47628
 Alpha virt. eigenvalues --    0.48742   0.51746   0.53214   0.55408   0.55780
 Alpha virt. eigenvalues --    0.56728   0.58389   0.59367   0.62393   0.62987
 Alpha virt. eigenvalues --    0.64196   0.64528   0.73653   0.75599   0.79732
 Alpha virt. eigenvalues --    0.82936   0.86393   0.87575   0.89728   0.92148
 Alpha virt. eigenvalues --    0.94614   0.96466   1.03099   1.05525   1.06628
 Alpha virt. eigenvalues --    1.10457   1.15966   1.24732   1.25979   1.31403
 Alpha virt. eigenvalues --    1.32801   1.34589   1.39863   1.41685   1.42802
 Alpha virt. eigenvalues --    1.44731   1.45633   1.47633   1.49560   1.51910
 Alpha virt. eigenvalues --    1.55443   1.56580   1.58481   1.59696   1.60651
 Alpha virt. eigenvalues --    1.62756   1.63225   1.64536   1.67703   1.68665
 Alpha virt. eigenvalues --    1.70936   1.73848   1.77442   1.81895   1.84987
 Alpha virt. eigenvalues --    1.87453   1.97325   1.98060   2.03300   2.06252
 Alpha virt. eigenvalues --    2.06832   2.16547   2.19197   2.19903   2.20922
 Alpha virt. eigenvalues --    2.28495   2.33757   2.35230   2.37285   2.38787
 Alpha virt. eigenvalues --    2.43334   2.45281   2.47500   2.49954   2.52736
 Alpha virt. eigenvalues --    2.53726   2.56093   2.60060   2.62111   2.64916
 Alpha virt. eigenvalues --    2.67678   2.70309   2.72098   2.77513   2.81470
 Alpha virt. eigenvalues --    2.84733   2.86058   2.88257   2.90214   3.04364
 Alpha virt. eigenvalues --    3.07366   3.10353   3.13358   3.17829   3.19698
 Alpha virt. eigenvalues --    3.26609   3.29463   3.30237   3.50778   3.61919
 Alpha virt. eigenvalues --    3.68991   3.74815   3.77884   3.79242   3.84084
 Alpha virt. eigenvalues --    3.86874   3.89450   3.94044   4.23310   4.25565
 Alpha virt. eigenvalues --    4.69569   4.84538   4.88022   4.93456   5.22553
 Alpha virt. eigenvalues --    5.25696   5.36430   5.56473   5.70484  23.67464
 Alpha virt. eigenvalues --   23.79462  23.84529  23.91608  49.79943  49.83973
 Alpha virt. eigenvalues --   49.87321
  Beta  occ. eigenvalues --  -19.16295 -19.14497 -19.14250 -10.23562 -10.22296
  Beta  occ. eigenvalues --  -10.18751 -10.18468  -1.10157  -1.03673  -0.89430
  Beta  occ. eigenvalues --   -0.79353  -0.70897  -0.68231  -0.56619  -0.52743
  Beta  occ. eigenvalues --   -0.51411  -0.48454  -0.46356  -0.43738  -0.42425
  Beta  occ. eigenvalues --   -0.42253  -0.40815  -0.38948  -0.36714  -0.35118
  Beta  occ. eigenvalues --   -0.30243  -0.28035  -0.26382
  Beta virt. eigenvalues --   -0.08618   0.01743   0.03515   0.05500   0.07188
  Beta virt. eigenvalues --    0.07842   0.09440   0.10498   0.11075   0.14551
  Beta virt. eigenvalues --    0.15614   0.16791   0.18420   0.21509   0.26756
  Beta virt. eigenvalues --    0.28501   0.29619   0.30770   0.33476   0.36525
  Beta virt. eigenvalues --    0.38890   0.42051   0.43338   0.44289   0.44959
  Beta virt. eigenvalues --    0.48133   0.49101   0.52903   0.54887   0.55717
  Beta virt. eigenvalues --    0.56556   0.57229   0.58585   0.59723   0.62897
  Beta virt. eigenvalues --    0.63502   0.64429   0.65076   0.74716   0.75895
  Beta virt. eigenvalues --    0.79923   0.83372   0.86775   0.87684   0.90337
  Beta virt. eigenvalues --    0.92591   0.94827   0.96767   1.03510   1.05787
  Beta virt. eigenvalues --    1.07651   1.10933   1.16012   1.25274   1.26202
  Beta virt. eigenvalues --    1.31773   1.32968   1.35126   1.40088   1.42797
  Beta virt. eigenvalues --    1.43238   1.45009   1.45940   1.48337   1.49976
  Beta virt. eigenvalues --    1.52524   1.55623   1.57225   1.58800   1.60639
  Beta virt. eigenvalues --    1.61177   1.63348   1.63689   1.65158   1.68100
  Beta virt. eigenvalues --    1.68901   1.71208   1.74465   1.77763   1.83577
  Beta virt. eigenvalues --    1.85515   1.89269   1.97679   1.98664   2.03786
  Beta virt. eigenvalues --    2.06716   2.07155   2.17191   2.19321   2.20400
  Beta virt. eigenvalues --    2.21667   2.29455   2.34160   2.35814   2.37524
  Beta virt. eigenvalues --    2.38953   2.43687   2.45552   2.47995   2.50347
  Beta virt. eigenvalues --    2.52968   2.53958   2.56292   2.60423   2.62527
  Beta virt. eigenvalues --    2.65145   2.68155   2.71466   2.72517   2.77780
  Beta virt. eigenvalues --    2.81858   2.85221   2.86406   2.89400   2.92373
  Beta virt. eigenvalues --    3.04895   3.08012   3.10695   3.13690   3.18187
  Beta virt. eigenvalues --    3.20677   3.27000   3.29958   3.30446   3.51124
  Beta virt. eigenvalues --    3.62017   3.69148   3.75232   3.77996   3.79332
  Beta virt. eigenvalues --    3.84160   3.87000   3.89891   3.94517   4.24574
  Beta virt. eigenvalues --    4.26856   4.69651   4.84659   4.88356   4.93806
  Beta virt. eigenvalues --    5.22957   5.26118   5.36562   5.56766   5.70628
  Beta virt. eigenvalues --   23.68281  23.80072  23.84462  23.91537  49.80035
  Beta virt. eigenvalues --   49.84135  49.87541
          Condensed to atoms (all electrons):
              1          2          3          4          5          6
     1  C    4.779707   0.400060   0.400385   0.335522  -0.067885  -0.005151
     2  H    0.400060   0.586393  -0.022913  -0.056772   0.007111   0.000203
     3  H    0.400385  -0.022913   0.574702  -0.051929  -0.009601   0.004041
     4  C    0.335522  -0.056772  -0.051929   5.619342   0.323770  -0.037318
     5  C   -0.067885   0.007111  -0.009601   0.323770   4.896855   0.403252
     6  H   -0.005151   0.000203   0.004041  -0.037318   0.403252   0.559716
     7  H   -0.002643   0.000551  -0.000546  -0.046221   0.387646  -0.031931
     8  H    0.006533  -0.000419   0.000181  -0.039182   0.404295  -0.024011
     9  C   -0.053451  -0.012635   0.008835   0.333753  -0.067040   0.005276
    10  H   -0.007230   0.005229   0.000310  -0.045214   0.008195  -0.000261
    11  H    0.007367  -0.000098  -0.000184  -0.044419  -0.014288   0.000132
    12  O   -0.000873   0.000065  -0.000281  -0.059137   0.003291  -0.000117
    13  H   -0.001499   0.000055   0.000100  -0.005400   0.006624   0.000071
    14  O    0.223709  -0.034378  -0.022978  -0.060523   0.001998  -0.000233
    15  O   -0.047649   0.007068   0.006312  -0.018773  -0.000168  -0.000001
    16  H    0.001101   0.000483  -0.001546   0.006911  -0.000176  -0.000011
              7          8          9         10         11         12
     1  C   -0.002643   0.006533  -0.053451  -0.007230   0.007367  -0.000873
     2  H    0.000551  -0.000419  -0.012635   0.005229  -0.000098   0.000065
     3  H   -0.000546   0.000181   0.008835   0.000310  -0.000184  -0.000281
     4  C   -0.046221  -0.039182   0.333753  -0.045214  -0.044419  -0.059137
     5  C    0.387646   0.404295  -0.067040   0.008195  -0.014288   0.003291
     6  H   -0.031931  -0.024011   0.005276  -0.000261   0.000132  -0.000117
     7  H    0.587995  -0.031480  -0.001084  -0.000391  -0.000094   0.002818
     8  H   -0.031480   0.572992  -0.004771   0.000185   0.005479  -0.000377
     9  C   -0.001084  -0.004771   4.809773   0.407007   0.402855   0.223976
    10  H   -0.000391   0.000185   0.407007   0.561057  -0.033769  -0.033435
    11  H   -0.000094   0.005479   0.402855  -0.033769   0.594978  -0.030194
    12  O    0.002818  -0.000377   0.223976  -0.033435  -0.030194   7.976864
    13  H   -0.001004   0.000088  -0.032412   0.009543  -0.008482   0.300185
    14  O    0.007050  -0.000260  -0.004220  -0.000778  -0.000222   0.002013
    15  O   -0.000173  -0.000001   0.019139   0.003993   0.000153  -0.018414
    16  H    0.000090   0.000013  -0.017451  -0.003439   0.002028   0.055531
             13         14         15         16
     1  C   -0.001499   0.223709  -0.047649   0.001101
     2  H    0.000055  -0.034378   0.007068   0.000483
     3  H    0.000100  -0.022978   0.006312  -0.001546
     4  C   -0.005400  -0.060523  -0.018773   0.006911
     5  C    0.006624   0.001998  -0.000168  -0.000176
     6  H    0.000071  -0.000233  -0.000001  -0.000011
     7  H   -0.001004   0.007050  -0.000173   0.000090
     8  H    0.000088  -0.000260  -0.000001   0.000013
     9  C   -0.032412  -0.004220   0.019139  -0.017451
    10  H    0.009543  -0.000778   0.003993  -0.003439
    11  H   -0.008482  -0.000222   0.000153   0.002028
    12  O    0.300185   0.002013  -0.018414   0.055531
    13  H    0.484498   0.000385   0.001180  -0.004078
    14  O    0.000385   8.083968   0.082600  -0.034116
    15  O    0.001180   0.082600   7.961486   0.283120
    16  H   -0.004078  -0.034116   0.283120   0.441397
 Mulliken atomic charges:
              1
     1  C    0.031996
     2  H    0.119997
     3  H    0.115112
     4  C   -0.154412
     5  C   -0.283880
     6  H    0.126343
     7  H    0.129416
     8  H    0.110735
     9  C   -0.017549
    10  H    0.128997
    11  H    0.118758
    12  O   -0.421915
    13  H    0.250146
    14  O   -0.244014
    15  O   -0.279872
    16  H    0.270142
 Sum of Mulliken charges=   0.00000
 Atomic charges with hydrogens summed into heavy atoms:
              1
     1  C    0.267104
     2  H    0.000000
     3  H    0.000000
     4  C   -0.154412
     5  C    0.082614
     6  H    0.000000
     7  H    0.000000
     8  H    0.000000
     9  C    0.230206
    10  H    0.000000
    11  H    0.000000
    12  O   -0.171769
    13  H    0.000000
    14  O   -0.244014
    15  O   -0.009730
    16  H    0.000000
 Sum of Mulliken charges=   0.00000
          Atomic-Atomic Spin Densities.
              1          2          3          4          5          6
     1  C   -0.046628   0.007146   0.004031   0.000895   0.001417   0.000708
     2  H    0.007146   0.009094   0.001116  -0.006639   0.000168   0.000301
     3  H    0.004031   0.001116   0.003821  -0.003821   0.001171   0.001137
     4  C    0.000895  -0.006639  -0.003821   1.072806  -0.038844  -0.015462
     5  C    0.001417   0.000168   0.001171  -0.038844  -0.060088   0.013501
     6  H    0.000708   0.000301   0.001137  -0.015462   0.013501   0.037712
     7  H   -0.001402  -0.000384  -0.001391  -0.027441   0.007481  -0.016603
     8  H   -0.000054   0.000050   0.000107  -0.003994   0.004393   0.003389
     9  C   -0.000124   0.000823  -0.000029   0.013224   0.000428  -0.000122
    10  H    0.001326   0.000635   0.000115  -0.005775   0.000063   0.000129
    11  H    0.000055   0.000121   0.000045  -0.005334   0.000825   0.000302
    12  O   -0.000911  -0.000443  -0.000115  -0.035595   0.000463  -0.000233
    13  H    0.000229   0.000060   0.000036   0.005055  -0.000349   0.000152
    14  O   -0.010836  -0.003923  -0.002664  -0.031192  -0.000036  -0.000616
    15  O    0.000796   0.000074   0.000031   0.000444  -0.000002   0.000005
    16  H    0.000662   0.000117   0.000044   0.001814  -0.000020   0.000015
              7          8          9         10         11         12
     1  C   -0.001402  -0.000054  -0.000124   0.001326   0.000055  -0.000911
     2  H   -0.000384   0.000050   0.000823   0.000635   0.000121  -0.000443
     3  H   -0.001391   0.000107  -0.000029   0.000115   0.000045  -0.000115
     4  C   -0.027441  -0.003994   0.013224  -0.005775  -0.005334  -0.035595
     5  C    0.007481   0.004393   0.000428   0.000063   0.000825   0.000463
     6  H   -0.016603   0.003389  -0.000122   0.000129   0.000302  -0.000233
     7  H    0.103557  -0.007462  -0.000943  -0.000302  -0.000769   0.002418
     8  H   -0.007462   0.006832   0.000722   0.000143   0.000564  -0.000540
     9  C   -0.000943   0.000722  -0.044067   0.005253   0.004849  -0.018229
    10  H   -0.000302   0.000143   0.005253   0.007620   0.001613  -0.004501
    11  H   -0.000769   0.000564   0.004849   0.001613   0.006309  -0.003888
    12  O    0.002418  -0.000540  -0.018229  -0.004501  -0.003888   0.122872
    13  H   -0.001726   0.000321   0.002702   0.000405   0.000761  -0.003746
    14  O    0.002912  -0.000097  -0.000630  -0.000592  -0.000111   0.001621
    15  O   -0.000019   0.000001   0.000153   0.000009   0.000007   0.000065
    16  H   -0.000151   0.000009   0.000727   0.000205   0.000017  -0.001808
             13         14         15         16
     1  C    0.000229  -0.010836   0.000796   0.000662
     2  H    0.000060  -0.003923   0.000074   0.000117
     3  H    0.000036  -0.002664   0.000031   0.000044
     4  C    0.005055  -0.031192   0.000444   0.001814
     5  C   -0.000349  -0.000036  -0.000002  -0.000020
     6  H    0.000152  -0.000616   0.000005   0.000015
     7  H   -0.001726   0.002912  -0.000019  -0.000151
     8  H    0.000321  -0.000097   0.000001   0.000009
     9  C    0.002702  -0.000630   0.000153   0.000727
    10  H    0.000405  -0.000592   0.000009   0.000205
    11  H    0.000761  -0.000111   0.000007   0.000017
    12  O   -0.003746   0.001621   0.000065  -0.001808
    13  H   -0.000885  -0.000502  -0.000012   0.000311
    14  O   -0.000502   0.107540  -0.001686  -0.001138
    15  O   -0.000012  -0.001686  -0.001468  -0.000409
    16  H    0.000311  -0.001138  -0.000409   0.000426
 Mulliken atomic spin densities:
              1
     1  C   -0.042692
     2  H    0.008314
     3  H    0.003636
     4  C    0.920141
     5  C   -0.069427
     6  H    0.024315
     7  H    0.057774
     8  H    0.004385
     9  C   -0.035261
    10  H    0.006347
    11  H    0.005365
    12  O    0.057430
    13  H    0.002814
    14  O    0.058049
    15  O   -0.002010
    16  H    0.000821
 Sum of Mulliken spin densities=   1.00000
 APT atomic charges:
              1
     1  C    0.384356
     2  H   -0.020271
     3  H   -0.017811
     4  C   -0.066706
     5  C    0.038531
     6  H   -0.002060
     7  H   -0.007642
     8  H   -0.014178
     9  C    0.462277
    10  H   -0.008238
    11  H   -0.050551
    12  O   -0.612761
    13  H    0.239875
    14  O   -0.317087
    15  O   -0.338055
    16  H    0.330322
 Sum of APT charges=   0.00000
 APT Atomic charges with hydrogens summed into heavy atoms:
              1
     1  C    0.346273
     2  H    0.000000
     3  H    0.000000
     4  C   -0.066706
     5  C    0.014651
     6  H    0.000000
     7  H    0.000000
     8  H    0.000000
     9  C    0.403488
    10  H    0.000000
    11  H    0.000000
    12  O   -0.372886
    13  H    0.000000
    14  O   -0.317087
    15  O   -0.007733
    16  H    0.000000
 Sum of APT charges=   0.00000
 Electronic spatial extent (au):  <R**2>=  1361.3757
 Charge=     0.0000 electrons
 Dipole moment (field-independent basis, Debye):
    X=    -1.2468    Y=     0.0096    Z=     3.9509  Tot=     4.1429
 Quadrupole moment (field-independent basis, Debye-Ang):
   XX=   -41.1531   YY=   -41.3133   ZZ=   -42.9349
   XY=     0.7621   XZ=    -0.9439   YZ=     6.2015
 Traceless Quadrupole moment (field-independent basis, Debye-Ang):
   XX=     0.6473   YY=     0.4872   ZZ=    -1.1344
   XY=     0.7621   XZ=    -0.9439   YZ=     6.2015
 Octapole moment (field-independent basis, Debye-Ang**2):
  XXX=   125.3737  YYY=  -155.0779  ZZZ=   -52.9671  XYY=    51.7296
  XXY=   -49.6858  XXZ=   -21.8249  XZZ=    41.2282  YZZ=   -46.0143
  YYZ=    -8.1444  XYZ=    -3.2625
 Hexadecapole moment (field-independent basis, Debye-Ang**3):
 XXXX=  -430.3263 YYYY=  -732.6170 ZZZZ=  -558.5825 XXXY=   181.7394
 XXXZ=   110.6533 YYYX=   236.8583 YYYZ=   -35.8623 ZZZX=    97.8622
 ZZZY=   -42.9182 XXYY=  -202.2752 XXZZ=  -163.7576 YYZZ=  -184.3219
 XXYZ=   -17.0544 YYXZ=    31.1601 ZZXY=    55.7449
 N-N= 3.306320773855D+02 E-N=-1.561112001932D+03  KE= 3.822253832214D+02
  Exact polarizability:  51.215  -2.634  60.739  -0.285  -3.144  63.747
 Approx polarizability:  74.066  -2.212  84.745  -0.161  -6.683  84.012
                          Isotropic Fermi Contact Couplings
        Atom                 a.u.       MegaHertz       Gauss      10(-4) cm-1
     1  C(13)             -0.01855     -20.84920      -7.43951      -6.95455
     2  H(1)               0.00448      20.03285       7.14822       6.68224
     3  H(1)               0.00149       6.65943       2.37625       2.22135
     4  C(13)              0.07802      87.70968      31.29699      29.25680
     5  C(13)             -0.02622     -29.47621     -10.51784      -9.83220
     6  H(1)               0.01339      59.85008      21.35600      19.96384
     7  H(1)               0.02772     123.88449      44.20506      41.32342
     8  H(1)               0.00199       8.91021       3.17939       2.97213
     9  C(13)             -0.01553     -17.45724      -6.22918      -5.82311
    10  H(1)               0.00304      13.60621       4.85503       4.53854
    11  H(1)               0.00265      11.84929       4.22812       3.95250
    12  O(17)              0.05629     -34.12361     -12.17615     -11.38241
    13  H(1)              -0.00124      -5.54131      -1.97728      -1.84838
    14  O(17)              0.02763     -16.75103      -5.97719      -5.58754
    15  O(17)              0.00364      -2.20941      -0.78837      -0.73698
    16  H(1)               0.00030       1.34988       0.48167       0.45027
 --------------------------------------------------------
       Center         ----  Spin Dipole Couplings  ----
                      3XX-RR        3YY-RR        3ZZ-RR
 --------------------------------------------------------
     1   Atom       -0.010437      0.002696      0.007741
     2   Atom       -0.007723     -0.004285      0.012008
     3   Atom       -0.003941      0.007577     -0.003636
     4   Atom        0.530232     -0.093408     -0.436823
     5   Atom        0.005822     -0.010074      0.004252
     6   Atom       -0.004605      0.000292      0.004312
     7   Atom        0.007607     -0.009200      0.001593
     8   Atom       -0.006684     -0.007087      0.013771
     9   Atom       -0.000316      0.008961     -0.008645
    10   Atom        0.002571      0.002862     -0.005434
    11   Atom       -0.001070      0.009908     -0.008838
    12   Atom       -0.165751      0.293567     -0.127817
    13   Atom       -0.004022      0.007676     -0.003654
    14   Atom        0.089592     -0.163691      0.074098
    15   Atom       -0.007946     -0.005202      0.013148
    16   Atom       -0.005011      0.000482      0.004530
 --------------------------------------------------------
                        XY            XZ            YZ
 --------------------------------------------------------
     1   Atom       -0.005678     -0.001631      0.013970
     2   Atom        0.003116      0.000903      0.010218
     3   Atom       -0.006442     -0.006044      0.009738
     4   Atom        0.690727     -0.331265     -0.213776
     5   Atom        0.008853      0.013396     -0.004413
     6   Atom       -0.005857      0.007002     -0.010145
     7   Atom       -0.000290      0.008859     -0.001284
     8   Atom        0.001469      0.004255      0.003616
     9   Atom       -0.013494      0.001022     -0.001874
    10   Atom       -0.009280      0.006749     -0.009060
    11   Atom       -0.009695     -0.004918      0.005363
    12   Atom        0.055265     -0.011554     -0.141972
    13   Atom        0.009837      0.011597      0.004904
    14   Atom       -0.060704     -0.257914      0.042363
    15   Atom        0.016589     -0.012428     -0.008758
    16   Atom        0.001253     -0.004969     -0.006774
 --------------------------------------------------------


 ---------------------------------------------------------------------------------
              Anisotropic Spin Dipole Couplings in Principal Axis System
 ---------------------------------------------------------------------------------

       Atom             a.u.   MegaHertz   Gauss  10(-4) cm-1        Axes

              Baa    -0.0136    -1.819    -0.649    -0.607  0.8046  0.5230 -0.2814
     1 C(13)  Bbb    -0.0066    -0.892    -0.318    -0.298  0.5720 -0.5551  0.6038
              Bcc     0.0202     2.711     0.967     0.904 -0.1595  0.6468  0.7458
 
              Baa    -0.0111    -5.897    -2.104    -1.967 -0.6065  0.7354 -0.3021
     2 H(1)   Bbb    -0.0061    -3.237    -1.155    -1.080  0.7902  0.5157 -0.3310
              Bcc     0.0171     9.134     3.259     3.047  0.0876  0.4395  0.8940
 
              Baa    -0.0105    -5.579    -1.991    -1.861  0.5013 -0.2656  0.8235
     3 H(1)   Bbb    -0.0063    -3.385    -1.208    -1.129  0.7747  0.5616 -0.2905
              Bcc     0.0168     8.964     3.199     2.990 -0.3853  0.7836  0.4873
 
              Baa    -0.5395   -72.399   -25.834   -24.150  0.5592 -0.5839  0.5885
     4 C(13)  Bbb    -0.5393   -72.368   -25.823   -24.139 -0.1620  0.6193  0.7683
              Bcc     1.0788   144.767    51.656    48.289  0.8130  0.5250 -0.2517
 
              Baa    -0.0187    -2.512    -0.896    -0.838 -0.5069  0.7424  0.4381
     5 C(13)  Bbb    -0.0002    -0.025    -0.009    -0.008  0.4231  0.6571 -0.6239
              Bcc     0.0189     2.537     0.905     0.846  0.7511  0.1309  0.6471
 
              Baa    -0.0085    -4.562    -1.628    -1.522  0.9085  0.3615 -0.2095
     6 H(1)   Bbb    -0.0080    -4.284    -1.529    -1.429 -0.1339  0.7269  0.6736
              Bcc     0.0166     8.845     3.156     2.951  0.3958 -0.5839  0.7088
 
              Baa    -0.0094    -5.018    -1.791    -1.674 -0.0740  0.9819  0.1742
     7 H(1)   Bbb    -0.0046    -2.450    -0.874    -0.817 -0.5804 -0.1845  0.7931
              Bcc     0.0140     7.468     2.665     2.491  0.8109 -0.0424  0.5836
 
              Baa    -0.0084    -4.465    -1.593    -1.490 -0.6661  0.7459  0.0062
     8 H(1)   Bbb    -0.0069    -3.687    -1.316    -1.230  0.7190  0.6443 -0.2606
              Bcc     0.0153     8.152     2.909     2.719  0.1984  0.1691  0.9654
 
              Baa    -0.0100    -1.342    -0.479    -0.448  0.7869  0.5806  0.2091
     9 C(13)  Bbb    -0.0088    -1.175    -0.419    -0.392 -0.2146 -0.0603  0.9748
              Bcc     0.0188     2.517     0.898     0.840 -0.5786  0.8119 -0.0771
 
              Baa    -0.0113    -6.035    -2.153    -2.013 -0.0905  0.4936  0.8649
    10 H(1)   Bbb    -0.0062    -3.295    -1.176    -1.099  0.7876  0.5670 -0.2412
              Bcc     0.0175     9.330     3.329     3.112 -0.6095  0.6594 -0.4401
 
              Baa    -0.0113    -6.004    -2.142    -2.003  0.3935 -0.0524  0.9178
    11 H(1)   Bbb    -0.0062    -3.327    -1.187    -1.110  0.7712  0.5623 -0.2985
              Bcc     0.0175     9.330     3.329     3.112 -0.5005  0.8253  0.2616
 
              Baa    -0.1767    12.783     4.561     4.264  0.7293 -0.2749 -0.6265
    12 O(17)  Bbb    -0.1665    12.048     4.299     4.019  0.6753  0.1422  0.7237
              Bcc     0.3432   -24.830    -8.860    -8.282  0.1098  0.9509 -0.2893
 
              Baa    -0.0161    -8.589    -3.065    -2.865  0.7541 -0.1818 -0.6311
    13 H(1)   Bbb    -0.0022    -1.176    -0.420    -0.392 -0.3670  0.6803 -0.6345
              Bcc     0.0183     9.766     3.485     3.257  0.5447  0.7101  0.4463
 
              Baa    -0.1869    13.527     4.827     4.512  0.5805  0.6683  0.4651
    14 O(17)  Bbb    -0.1633    11.819     4.217     3.942 -0.3938  0.7304 -0.5581
              Bcc     0.3503   -25.345    -9.044    -8.454  0.7127 -0.1408 -0.6872
 
              Baa    -0.0236     1.705     0.608     0.569  0.7624 -0.6384  0.1058
    15 O(17)  Bbb    -0.0031     0.225     0.080     0.075  0.4266  0.6187  0.6597
              Bcc     0.0267    -1.929    -0.688    -0.644 -0.4866 -0.4578  0.7441
 
              Baa    -0.0076    -4.050    -1.445    -1.351  0.8173  0.2907  0.4975
    16 H(1)   Bbb    -0.0034    -1.818    -0.649    -0.606 -0.4994  0.7880  0.3600
              Bcc     0.0110     5.868     2.094     1.957 -0.2874 -0.5427  0.7892
 

 ---------------------------------------------------------------------------------

 Use density number 0.
 Entering OneElI...
 Calculate overlap and kinetic energy integrals
    NBasis = 187  MinDer = 2  MaxDer = 2
 Requested accuracy = 0.1000D-12
 PrsmSu:  NPrtUS=   1 ThrOK=F
 PRISM was handed   130759096 working-precision words and  2552 shell-pairs
 Entering OneElI...
 Calculate potential energy integrals
    NBasis = 187  MinDer = 2  MaxDer = 2
 Requested accuracy = 0.1000D-12
 PrsmSu:  NPrtUS=   8 ThrOK=T
 PRISM was handed    16301018 working-precision words and  2395 shell-pairs
 PRISM was handed    16301018 working-precision words and  2395 shell-pairs
 PRISM was handed    16301018 working-precision words and  2395 shell-pairs
 PRISM was handed    16301018 working-precision words and  2395 shell-pairs
 PRISM was handed    16301018 working-precision words and  2395 shell-pairs
 PRISM was handed    16301018 working-precision words and  2395 shell-pairs
 PRISM was handed    16301018 working-precision words and  2395 shell-pairs
 PRISM was handed    16301018 working-precision words and  2395 shell-pairs
 Polarizability after L701:
                1             2             3
      1  0.512151D+02
      2 -0.263355D+01  0.607387D+02
      3 -0.285222D+00 -0.314397D+01  0.637472D+02
 Dipole Derivatives after L701:
               1            2            3            4            5
      1 0.374260D+00 0.613174D-01-0.939790D-01-0.658819D-01 0.133076D-01
      2 0.994656D-01 0.348845D+00 0.743162D-01-0.608056D-01 0.733014D-01
      3-0.171367D+00 0.109503D+00 0.429962D+00-0.418885D-01-0.479313D-02
               6            7            8            9           10
      1-0.869992D-01 0.255426D-01 0.468445D-01 0.155868D-01-0.168111D+00
      2-0.472952D-01 0.677993D-01-0.104956D+00 0.834633D-01-0.126648D+00
      3-0.682329D-01 0.319699D-01 0.403706D-01 0.259798D-01 0.138714D+00
              11           12           13           14           15
      1-0.118915D+00 0.109303D+00 0.500886D-01 0.515828D-01-0.596331D-01
      2-0.159408D+00-0.174954D-01 0.811660D-01 0.535685D-01-0.946264D-02
      3-0.391275D-01 0.127401D+00-0.142426D+00 0.632092D-02 0.119364D-01
              16           17           18           19           20
      1 0.783172D-01 0.183332D-02-0.215117D-01-0.112277D+00-0.603712D-01
      2-0.134576D-01-0.120685D+00 0.267396D-01-0.269539D-01 0.644253D-01
      3 0.199262D-02 0.697693D-01 0.361875D-01-0.277147D-01-0.258418D-02
              21           22           23           24           25
      1 0.279151D-01 0.324986D-01 0.546618D-01 0.354158D-01 0.498565D+00
      2 0.340980D-01 0.509593D-01 0.244734D-02-0.662032D-01 0.117641D+00
      3 0.249256D-01 0.788832D-01-0.112340D+00-0.774800D-01-0.175619D+00
              26           27           28           29           30
      1 0.943644D-01-0.897074D-01-0.127433D-01-0.169387D-01-0.120588D+00
      2 0.637126D+00-0.629232D-01-0.229624D-01 0.232497D-01 0.256910D-01
      3-0.110145D+00 0.251139D+00-0.698527D-01 0.141543D-01-0.352216D-01
              31           32           33           34           35
      1-0.103905D-01 0.193023D-01 0.140047D+00-0.538275D+00-0.350823D-01
      2 0.244642D-02-0.216067D-01-0.572472D-01-0.128163D+00-0.913208D+00
      3 0.821140D-01-0.436029D-01-0.119654D+00 0.204847D+00 0.251516D-01
              36           37           38           39           40
      1 0.143672D+00 0.221647D+00-0.361708D-02-0.592669D-01-0.346815D+00
      2-0.597235D-02-0.118283D-01 0.347199D+00 0.232428D-01-0.433574D-01
      3-0.386801D+00-0.411728D-01 0.533035D-01 0.150778D+00 0.228806D+00
              41           42           43           44           45
      1-0.256105D-01 0.173253D-01-0.329412D+00-0.598321D-01 0.172329D+00
      2-0.159121D+00-0.796306D-01 0.311454D-01-0.419247D+00-0.276221D-01
      3-0.202871D+00-0.445324D+00 0.493520D-01 0.117503D+00-0.265507D+00
              46           47           48
      1 0.302987D+00-0.228472D-01-0.129909D+00
      2-0.164470D-01 0.348068D+00 0.106301D+00
      3-0.146638D+00 0.793872D-01 0.339910D+00
 Hessian after L701:
                1             2             3             4             5
      1  0.165506D+02
      2 -0.104980D+01  0.172995D+02
      3  0.336129D+01 -0.519382D+00  0.151190D+02
      4 -0.278006D+01  0.269227D+00  0.166759D+01  0.254293D+01
      5  0.469474D+00 -0.473660D+01  0.361594D+00 -0.607289D+00  0.435373D+01
      6  0.159950D+01  0.180091D+00 -0.346143D+01 -0.181125D+01 -0.360392D+00
      7 -0.445606D+01 -0.732709D+00  0.197706D+00 -0.613134D-02  0.736309D-01
      8 -0.849089D+00 -0.188116D+01 -0.797275D+00  0.629233D-01  0.475963D-01
      9  0.208184D+00 -0.723516D+00 -0.452098D+01 -0.743429D-01  0.612161D-01
     10 -0.643767D+01 -0.112129D+01 -0.144155D+01  0.191247D+00 -0.238023D-01
     11 -0.103963D+01 -0.501816D+01  0.278894D+01  0.170936D-01  0.236191D+00
     12 -0.142461D+01  0.296193D+01 -0.245393D+01 -0.753204D-01 -0.905085D-01
     13  0.271693D-01  0.672317D-02  0.478421D-01 -0.190157D-01  0.177919D-01
     14  0.100267D-01  0.389796D-01  0.848889D-01  0.207816D-01 -0.425782D-01
     15  0.497699D-01 -0.305785D-01  0.203042D+00  0.968523D-01  0.521798D-01
     16 -0.159525D-01  0.117605D-02 -0.779486D-02 -0.117950D-02 -0.176585D-03
     17  0.193834D-02  0.652981D-02 -0.395296D-01 -0.835292D-02 -0.315630D-02
     18 -0.445088D-02 -0.158320D-01  0.680292D-02  0.882664D-02 -0.482186D-03
     19  0.144471D-01  0.133676D-01  0.459198D-01  0.108446D-01  0.439190D-02
     20  0.191103D-01 -0.108773D-01  0.227362D-01  0.444809D-02 -0.223220D-02
     21  0.160137D-01  0.700696D-02 -0.208190D-01  0.923276D-02  0.370850D-02
     22 -0.436972D-01 -0.306710D-02 -0.200671D-01 -0.191566D-02 -0.144850D-02
     23 -0.488843D-02 -0.214549D-01  0.763223D-01  0.301244D-02  0.538722D-03
     24 -0.199151D-01  0.736217D-01  0.165065D+00  0.579784D-02 -0.120683D-02
     25  0.574040D-01 -0.146677D-01 -0.123112D-01  0.294908D-01  0.144658D-01
     26 -0.157676D+00  0.824415D-01  0.586570D-01  0.140097D-01 -0.718115D-01
     27 -0.582363D-01  0.616557D-02  0.169057D-01  0.118940D-01 -0.765722D-01
     28 -0.848054D-02  0.225317D-01 -0.155741D-01 -0.192930D-01 -0.403300D-01
     29  0.275930D-01 -0.376079D-01  0.131679D-01 -0.180501D-01  0.368311D-01
     30  0.115234D-01 -0.146624D-02 -0.235909D-03 -0.110799D-01  0.173282D-01
     31  0.101526D-01 -0.855990D-01 -0.722552D-01 -0.480326D-02 -0.249527D-02
     32 -0.751570D-01  0.629319D-01  0.948290D-01  0.302250D-02  0.171538D-02
     33 -0.729290D-01  0.103152D+00  0.344357D-01  0.577836D-02  0.586284D-02
     34 -0.218154D+00 -0.235205D-01 -0.806251D-02 -0.218471D-01  0.101634D-01
     35 -0.208735D-01  0.374964D+00  0.595000D-01  0.436197D-01  0.440331D-01
     36 -0.255392D-02  0.326657D-01 -0.218102D+00  0.104154D-01  0.239911D-01
     37 -0.831686D-02  0.146437D-01  0.653696D-02  0.478704D-02  0.457712D-02
     38 -0.146874D-03 -0.876858D-02  0.419408D-02  0.495863D-02  0.361935D-02
     39  0.238958D-03  0.176063D-01  0.206816D-02  0.735085D-02  0.545228D-02
     40 -0.254521D+01  0.255584D+01 -0.361420D+01  0.131137D+00  0.673468D-01
     41  0.255801D+01 -0.597591D+01 -0.205446D+01  0.142660D+00  0.165332D+00
     42 -0.360492D+01 -0.207541D+01 -0.510002D+01  0.223478D+00  0.841875D-01
     43 -0.120164D+00  0.132751D+00 -0.136405D+00 -0.530488D-01  0.162489D-01
     44  0.916884D-01 -0.236161D+00 -0.148772D+00  0.396148D-01 -0.304190D-01
     45 -0.613596D-01 -0.533415D-01  0.291717D+00 -0.836836D-01 -0.928969D-01
     46 -0.260517D-01  0.144030D-01  0.132682D-02 -0.314497D-02 -0.254961D-02
     47  0.194256D-01  0.613919D-01 -0.540735D-02  0.832074D-02 -0.278445D-02
     48  0.245374D-02  0.372863D-01 -0.635694D-01  0.846468D-02  0.653926D-02
                6             7             8             9            10
      6  0.341305D+01
      7 -0.723370D-01  0.455595D+01
      8  0.504891D-01  0.764659D+00  0.131387D+01
      9  0.231630D-01 -0.275680D+00  0.877302D+00  0.442200D+01
     10 -0.752367D-01  0.744927D-01  0.176872D+00  0.708386D-01  0.163357D+02
     11 -0.325064D-02  0.132603D+00 -0.554469D-01 -0.993705D-01  0.405702D+01
     12 -0.185570D+00  0.464299D-01 -0.559001D-01  0.163530D+00 -0.662686D+00
     13  0.723521D-01 -0.829048D-03  0.967942D-03  0.128290D-01 -0.497330D+01
     14  0.400886D-01  0.556349D-03 -0.108545D-01 -0.323301D-01 -0.509056D+00
     15  0.159107D+00  0.954295D-02 -0.125239D-01 -0.301316D-01  0.237611D+01
     16  0.385051D-02 -0.187360D-01 -0.140225D-02 -0.106719D-02  0.193421D-02
     17 -0.108282D-01  0.238614D-02 -0.289422D-01  0.250802D-02  0.609316D-01
     18  0.126006D-01 -0.459892D-02  0.291709D-01  0.405389D-01 -0.984780D-01
     19  0.156929D-01 -0.280217D-02  0.153414D-01  0.190386D-02  0.255485D+00
     20  0.517696D-02 -0.356552D-04  0.573632D-02  0.170876D-02  0.805172D-01
     21  0.826704D-02  0.281749D-03  0.477428D-02 -0.196401D-02 -0.118786D+00
     22 -0.363337D-02 -0.164813D-02 -0.470338D-02 -0.125620D-02  0.846391D-01
     23  0.296267D-02 -0.318230D-02  0.891892D-02  0.534395D-02 -0.165033D-01
     24  0.358051D-03 -0.433703D-02  0.171840D-01  0.481392D-02 -0.469557D-01
     25  0.172107D-01 -0.124571D-01 -0.107461D+00 -0.141119D-01 -0.568956D+01
     26 -0.630559D-01 -0.998469D-01  0.199280D+00  0.300208D-01 -0.259805D+01
     27 -0.312487D-01 -0.162800D-01  0.453093D-01 -0.562214D-01  0.508659D+00
     28 -0.244827D-01  0.505075D-02 -0.164763D-01  0.266295D-02  0.123237D+00
     29  0.298181D-01 -0.558169D-02  0.645675D-02 -0.979176D-03  0.824569D-01
     30 -0.192135D-01  0.391372D-02 -0.896492D-02 -0.121802D-02 -0.633798D-01
     31 -0.477898D-02  0.727191D-03 -0.497736D-02  0.169205D-02  0.136525D+00
     32  0.650497D-02 -0.938223D-03  0.276708D-02 -0.236173D-02  0.641210D-01
     33  0.891516D-02 -0.266963D-02  0.841571D-02 -0.170677D-02  0.201412D-01
     34  0.324641D-02 -0.967711D-02 -0.178450D-01  0.118752D-02 -0.143632D+00
     35  0.473847D-01 -0.109594D-01  0.483427D-01 -0.707131D-02 -0.459808D-01
     36 -0.102860D-01  0.234170D-03 -0.429337D-02 -0.120144D-01  0.886010D-02
     37  0.633627D-02 -0.292573D-02  0.792725D-02 -0.915397D-03 -0.301890D-01
     38  0.530139D-02 -0.973829D-03  0.908695D-02  0.229141D-03 -0.731775D-01
     39  0.561356D-02 -0.163901D-02  0.986468D-02 -0.226195D-02  0.224519D-01
     40  0.279275D+00 -0.576003D-01 -0.196195D-01  0.610381D-01  0.113404D+00
     41  0.918805D-01 -0.100558D+00  0.188597D+00  0.143976D-01 -0.256502D+00
     42  0.114599D+00  0.108222D+00 -0.676171D-03 -0.627471D-01 -0.332544D+00
     43 -0.764253D-02 -0.699634D-01 -0.365264D-02  0.562197D-02 -0.955986D-02
     44 -0.331715D-01 -0.156100D-01  0.154565D+00 -0.131431D+00  0.696452D-01
     45 -0.385840D-01  0.106964D-01 -0.180597D+00  0.393215D-01 -0.131867D+00
     46  0.190248D-02  0.261063D-02 -0.346357D-02  0.141593D-02 -0.327113D-01
     47  0.110009D-01 -0.344020D-02 -0.881420D-02  0.433342D-02  0.528010D-01
     48  0.652981D-03  0.515524D-03  0.177207D-01 -0.412469D-02 -0.355829D-01
               11            12            13            14            15
     11  0.117598D+02
     12 -0.110777D+01  0.101790D+02
     13 -0.478106D+00  0.229364D+01  0.148323D+02
     14 -0.591399D+01 -0.865317D+00  0.420779D+00  0.149448D+02
     15 -0.835971D+00 -0.192989D+01 -0.151107D+01  0.100475D+01  0.115953D+02
     16  0.691594D-01 -0.781243D-01 -0.409720D+01  0.189457D-01 -0.622484D-02
     17  0.153949D+00 -0.382818D-01  0.384642D-01 -0.158754D+01 -0.660450D+00
     18  0.156683D-01  0.314821D-01 -0.134407D-01 -0.833337D+00 -0.392181D+01
     19  0.677621D-01 -0.723261D-01 -0.143998D+01  0.643434D+00 -0.224191D+00
     20  0.130977D+00  0.412928D-01  0.569467D+00 -0.405130D+01 -0.373606D-01
     21  0.339544D-01 -0.201497D-01  0.166053D-01  0.109094D-01 -0.422218D+01
     22 -0.302373D-01 -0.771971D-01 -0.382338D+01 -0.495150D+00 -0.723910D+00
     23  0.912678D-01  0.161923D-01 -0.490314D+00 -0.344931D+01  0.104336D+01
     24 -0.463370D-01 -0.734851D-02 -0.836560D+00  0.121906D+01 -0.249289D+01
     25 -0.268782D+01  0.600497D+00  0.333767D-01 -0.139547D-01 -0.344549D-01
     26 -0.170424D+01 -0.830434D+00 -0.563903D-01  0.110510D+00 -0.228024D-01
     27 -0.683475D+00 -0.662219D+01  0.633488D-01 -0.860648D-01  0.815651D-01
     28  0.682679D-01 -0.135367D+00  0.606543D-01 -0.798157D-01  0.130372D+00
     29  0.418416D-01  0.157541D+00 -0.585874D-01 -0.163555D-01 -0.705176D-01
     30  0.102350D+00  0.144184D-01  0.112757D+00 -0.804906D-01  0.741309D-01
     31  0.921674D-01  0.732268D-01 -0.405422D-01  0.544151D-01 -0.220988D-01
     32 -0.618473D-01 -0.136131D+00  0.610311D-01 -0.379987D-01  0.223341D-01
     33 -0.103485D+00  0.877139D-01 -0.191880D-01  0.219255D-01  0.219975D-01
     34 -0.584678D-01  0.992084D-02 -0.233351D+00 -0.133684D+00  0.725384D-01
     35  0.511181D+00 -0.182839D+00 -0.598418D-01  0.194286D+00 -0.274830D+00
     36 -0.243501D+00  0.147534D+00  0.332897D-01 -0.341065D+00 -0.376182D-01
     37 -0.341540D-01  0.258125D-01 -0.476892D-01  0.522745D-01 -0.189783D-01
     38 -0.489384D-01  0.632816D-01  0.165946D-01  0.140012D+00 -0.858699D-01
     39  0.861575D-01  0.763660D-02 -0.135652D-02 -0.339640D-01 -0.338578D-01
     40 -0.311844D+00 -0.282364D+00 -0.165524D+00  0.606572D-02 -0.175083D+00
     41 -0.612069D-01  0.261997D+00  0.438448D-02 -0.227329D+00 -0.240126D-01
     42  0.295334D+00  0.593706D+00 -0.228030D+00 -0.215338D-01  0.376815D+00
     43  0.955233D-01 -0.197002D+00 -0.100941D+00  0.410189D-02 -0.198265D-01
     44 -0.928303D-01 -0.781931D-01  0.252247D-03 -0.940754D-01 -0.441728D-01
     45 -0.129227D+00 -0.162211D-01 -0.436761D-01 -0.814511D-01  0.159036D+00
     46  0.406598D-01 -0.445266D-01 -0.117621D-01  0.279574D-03  0.650559D-03
     47  0.314550D-01 -0.116858D+00  0.678398D-02  0.271634D-02 -0.235276D-01
     48 -0.700157D-01  0.103168D-01  0.659330D-03 -0.606481D-02 -0.260228D-02
               16            17            18            19            20
     16  0.411173D+01
     17  0.274059D-01  0.135327D+01
     18  0.505072D-01  0.966407D+00  0.362422D+01
     19  0.235022D-01 -0.725036D-01  0.303156D-01  0.118364D+01
     20 -0.105415D+00 -0.642427D-02  0.343837D-01 -0.574206D+00  0.394004D+01
     21  0.193121D-01  0.113721D-01  0.821167D-01 -0.990177D-01 -0.188637D-01
     22  0.542170D-01  0.132746D-01  0.139061D-02 -0.551391D-01  0.533914D-01
     23  0.373119D-01 -0.381681D-01 -0.505530D-01  0.205122D-01  0.901374D-01
     24  0.450802D-02 -0.281540D-01  0.603443D-01  0.972352D-01 -0.239245D-01
     25 -0.194198D-01 -0.535284D-01  0.366610D-01  0.430823D-01 -0.871806D-02
     26 -0.490752D-01  0.933743D-01 -0.848766D-01 -0.281813D-01 -0.252810D-01
     27  0.305662D-01 -0.870790D-01  0.966991D-02  0.350059D-01 -0.525589D-03
     28 -0.753905D-03 -0.726651D-02  0.189407D-02  0.545788D-02  0.225668D-02
     29  0.151978D-02 -0.642677D-03  0.166258D-02  0.200677D-02 -0.109532D-02
     30  0.228130D-03 -0.774233D-02  0.188285D-02  0.604057D-02  0.175769D-02
     31  0.129055D-02 -0.125292D-01  0.348364D-02  0.144620D-01 -0.363596D-02
     32 -0.529763D-02  0.115952D-01 -0.389643D-02 -0.946612D-02 -0.575133D-03
     33 -0.516022D-03  0.649238D-02 -0.446922D-02 -0.817581D-02  0.688838D-04
     34 -0.123386D-01 -0.139904D-01  0.585268D-02  0.234932D-01 -0.411214D-01
     35 -0.203400D-02  0.353702D-01 -0.206425D-01 -0.742107D-01  0.146939D-01
     36  0.158082D-02 -0.359028D-01  0.223703D-02  0.735048D-01 -0.513119D-01
     37 -0.139843D-02  0.818120D-02 -0.243768D-02 -0.890246D-02  0.391210D-02
     38  0.538477D-03  0.764679D-02 -0.333269D-02 -0.491350D-02 -0.343903D-02
     39  0.243744D-03  0.543095D-02 -0.334364D-02 -0.774049D-02  0.381893D-02
     40 -0.157585D-01  0.118456D-01 -0.129981D-01 -0.590848D-01  0.615191D-03
     41  0.584172D-02 -0.317658D-03 -0.212435D-01  0.820219D-03 -0.651252D-01
     42 -0.144975D-01 -0.526039D-01  0.389625D-01  0.691207D-01  0.225421D-01
     43 -0.894507D-02  0.432515D-02 -0.274744D-02 -0.835880D-02 -0.472395D-03
     44  0.106454D-02 -0.246085D-02 -0.936043D-02  0.228864D-02 -0.137587D-01
     45 -0.271731D-02 -0.342572D-01  0.202611D-01  0.388388D-01 -0.672556D-03
     46 -0.989642D-03 -0.581685D-03  0.220297D-03 -0.149834D-03 -0.113649D-03
     47  0.437499D-03  0.591693D-02 -0.373605D-02 -0.644459D-02 -0.147589D-02
     48  0.145190D-03  0.261849D-02 -0.148860D-02 -0.212650D-02 -0.827160D-03
               21            22            23            24            25
     21  0.396587D+01
     22  0.932845D-01  0.385103D+01
     23 -0.336989D-02  0.483938D+00  0.337896D+01
     24  0.466350D-01  0.766009D+00 -0.108754D+01  0.206033D+01
     25  0.142585D-01 -0.238408D-01 -0.164156D-02 -0.227880D-02  0.163236D+02
     26 -0.240502D-02 -0.732400D-03 -0.151674D-01 -0.294066D-01 -0.347698D+00
     27 -0.186037D-01 -0.107763D-01  0.561372D-02  0.242902D-01  0.110102D+01
     28 -0.208525D-02 -0.171957D-02  0.183549D-02  0.136913D-01 -0.312549D+01
     29  0.158746D-02 -0.107453D-02 -0.254462D-02 -0.215045D-02  0.225181D+00
     30 -0.132882D-02  0.235182D-02  0.209589D-02  0.160618D-01  0.153502D+01
     31  0.853567D-03  0.515447D-02 -0.234853D-01  0.453153D-01 -0.371376D+01
     32 -0.335500D-03 -0.244549D-01 -0.476315D-02 -0.356919D-01 -0.404517D+00
     33 -0.276622D-02  0.213409D-01 -0.187364D-01 -0.680819D-02 -0.125918D+01
     34  0.384608D-01 -0.304932D-01  0.905081D-03  0.114235D-01 -0.380056D+01
     35 -0.508958D-01  0.954069D-02 -0.178972D-01 -0.497769D-01  0.376547D+01
     36  0.657106D-02 -0.181077D-01 -0.139174D-01  0.619108D-01 -0.144436D+01
     37 -0.229100D-02  0.596924D-03  0.452555D-03 -0.110236D-01  0.389091D-01
     38  0.155321D-02  0.366706D-02 -0.407727D-03 -0.104644D-01 -0.864816D-01
     39 -0.320501D-02  0.146809D-02 -0.348983D-02 -0.622930D-02  0.159955D-01
     40  0.391582D-02 -0.644463D-02 -0.598903D-02 -0.149785D-01  0.113018D-01
     41  0.712123D-02 -0.242739D-02 -0.112176D-01  0.576464D-02 -0.146771D+00
     42  0.160650D+00 -0.191906D-01  0.183622D-01  0.386436D-01 -0.170474D+00
     43  0.906219D-02 -0.618600D-02 -0.219486D-02 -0.814587D-02 -0.146629D+00
     44 -0.304789D-02 -0.251272D-02 -0.614171D-02  0.544899D-02 -0.129200D+00
     45  0.217400D-01 -0.123674D-01  0.898455D-02  0.368991D-01 -0.442235D+00
     46  0.898648D-03 -0.117424D-02  0.231599D-03  0.213869D-03 -0.546438D-02
     47 -0.306981D-02  0.199647D-02 -0.275036D-02 -0.642884D-02 -0.265849D-02
     48 -0.834450D-03  0.660885D-03 -0.162950D-02 -0.207893D-02  0.587460D-01
               26            27            28            29            30
     26  0.128714D+02
     27  0.136890D+01  0.181034D+02
     28  0.317431D+00  0.181017D+01  0.266212D+01
     29 -0.479452D+01  0.198849D+00 -0.945106D-01  0.482702D+01
     30  0.246591D+00 -0.321838D+01 -0.183134D+01 -0.368011D+00  0.316000D+01
     31 -0.403568D+00 -0.136912D+01  0.126709D+00 -0.119297D-01 -0.365965D-01
     32 -0.432721D+01  0.719483D+00 -0.116918D-01  0.106646D+00 -0.600881D-01
     33  0.661865D+00 -0.248900D+01 -0.376193D-01 -0.550649D-01 -0.136218D+00
     34  0.368210D+01 -0.144515D+01 -0.523756D-01 -0.190901D+00  0.188301D+00
     35 -0.211329D+01 -0.173062D+01 -0.191362D+00 -0.112742D+00  0.114800D+00
     36 -0.172452D+01 -0.637159D+01  0.110094D+00  0.377041D-01  0.160994D+00
     37  0.122734D-01 -0.384232D-01  0.116061D+00  0.764490D-01  0.832584D-01
     38  0.616910D-01 -0.478380D-01  0.933288D-01  0.214953D-02  0.483758D-01
     39  0.243559D-01  0.117309D+00  0.863299D-01  0.428066D-01  0.247380D-02
     40 -0.165442D+00 -0.186011D+00  0.575294D-01 -0.194915D-01  0.158437D-01
     41 -0.791573D-01  0.136839D+00 -0.342297D-01 -0.134555D-01 -0.909385D-02
     42  0.142894D+00 -0.481484D-01 -0.229495D-01  0.175804D-02 -0.308961D-01
     43 -0.108248D+00 -0.465339D+00  0.701255D-01 -0.125135D-01 -0.295319D-01
     44 -0.324364D+00  0.240503D+00 -0.349813D-01 -0.492887D-01 -0.208500D-02
     45  0.205437D+00  0.534458D+00 -0.108725D+00  0.103449D-01 -0.252049D-01
     46 -0.109025D-01  0.286717D-01 -0.188276D-01 -0.256692D-02  0.126931D-01
     47  0.363977D-01 -0.948843D-02  0.501266D-02  0.731359D-02  0.464389D-02
     48  0.187792D-01 -0.321909D-01  0.229284D-01  0.148318D-02  0.273650D-02
               31            32            33            34            35
     31  0.344319D+01
     32  0.637657D+00  0.432405D+01
     33  0.148366D+01 -0.794867D+00  0.215782D+01
     34  0.565768D-01 -0.164061D+00 -0.676883D-01  0.917716D+01
     35 -0.158672D+00 -0.629953D-01  0.110403D+00 -0.340291D+01  0.755953D+01
     36 -0.570643D-01  0.146503D+00  0.234764D+00 -0.816604D+00  0.460649D+00
     37 -0.609475D-01 -0.452176D-01  0.232445D-01 -0.399639D+01  0.758730D+00
     38 -0.509252D-01  0.715276D-02  0.166019D-01  0.101057D+01 -0.650753D+01
     39  0.370230D-01  0.106763D-01  0.122078D-01  0.260022D+01  0.632579D+00
     40  0.963565D-02 -0.137926D-01 -0.279379D-01 -0.142069D+00 -0.352536D+00
     41 -0.142154D-01 -0.335725D-02  0.174728D-01 -0.376735D+00  0.366828D+00
     42 -0.240186D-01  0.155627D-01  0.179596D-01 -0.196121D+00  0.337094D+00
     43  0.482376D-02 -0.955677D-02 -0.325022D-01 -0.262801D+00 -0.111834D+00
     44 -0.146203D-01 -0.604725D-02  0.252775D-01 -0.196061D+00 -0.502486D-01
     45 -0.350489D-01  0.177021D-01  0.436477D-01 -0.223286D+00  0.278050D+00
     46  0.107966D-01 -0.168063D-02 -0.257588D-01 -0.333544D+00 -0.146140D+00
     47  0.241348D-02 -0.120557D-01 -0.538530D-02 -0.844374D-01 -0.284531D+00
     48 -0.242747D-01 -0.223434D-03  0.215090D-01 -0.174236D+00  0.276218D+00
               36            37            38            39            40
     36  0.104743D+02
     37  0.262586D+01  0.404219D+01
     38  0.848453D+00 -0.897650D+00  0.630547D+01
     39 -0.427016D+01 -0.274121D+01 -0.912434D+00  0.409863D+01
     40 -0.156299D+00 -0.266985D-01 -0.138373D-01 -0.147450D-01  0.701800D+01
     41  0.296737D+00  0.152255D-01  0.250854D-01  0.556012D-01 -0.181028D+00
     42 -0.178512D+00  0.140247D-01  0.370972D-01  0.228481D-01  0.266028D+01
     43 -0.166794D+00 -0.338687D-01 -0.422735D-02 -0.769242D-02 -0.446665D+01
     44  0.375369D+00  0.269527D-01  0.888771D-02  0.786919D-01 -0.170195D+01
     45  0.502347D-01  0.336260D-01  0.595729D-01  0.846502D-01  0.159237D+01
     46 -0.202059D+00  0.147809D-01  0.267509D-02  0.306232D-02  0.144035D+00
     47  0.192444D+00 -0.457684D-02 -0.172114D-02 -0.231533D-01  0.143821D+00
     48 -0.402415D-01 -0.342339D-02 -0.247207D-01 -0.343811D-01 -0.128103D+00
               41            42            43            44            45
     41  0.643464D+01
     42  0.464750D+01  0.621093D+01
     43 -0.172125D+01  0.160860D+01  0.120597D+02
     44 -0.681265D+00 -0.371969D+01  0.236755D+01  0.480825D+01
     45 -0.383730D+01 -0.228780D+01 -0.246138D+00  0.122043D+01  0.593843D+01
     46  0.106775D+00 -0.709767D-01 -0.684749D+01 -0.504124D+00 -0.284429D+00
     47 -0.621361D-01  0.267579D+00 -0.646554D+00 -0.338465D+01  0.260922D+01
     48  0.410797D+00  0.133013D+00 -0.303521D+00  0.222420D+01 -0.485258D+01
               46            47            48
     46  0.710909D+01
     47  0.507099D+00  0.361572D+01
     48  0.576694D+00 -0.289217D+01  0.486586D+01
 ReadGW:  IGet=0 IStart=         114 Next=        7220 LGW=        7106.
 ICntrl=12127.
 Symmetry not used in FoFDir.
 MinBra= 0 MaxBra= 2 Meth= 1.
 IRaf=       0 NMat=   1 IRICut=       1 DoRegI=T DoRafI=F ISym2E= 0 JSym2E=0.
 PrsmSu:  NPrtUS=   8 ThrOK=T
 PRISM was handed    16287597 working-precision words and  2479 shell-pairs
 PRISM was handed    16287597 working-precision words and  2479 shell-pairs
 PRISM was handed    16287597 working-precision words and  2479 shell-pairs
 PRISM was handed    16287597 working-precision words and  2479 shell-pairs
 PRISM was handed    16287597 working-precision words and  2479 shell-pairs
 PRISM was handed    16287597 working-precision words and  2479 shell-pairs
 PRISM was handed    16287597 working-precision words and  2479 shell-pairs
 PRISM was handed    16287597 working-precision words and  2479 shell-pairs
 Pruned (  75, 302) grid will be used in CalDFT.
 CkSvGd:  ISavGI=        -1 IRadAn=       4 IRASav=       4 ISavGd=        -1.
 CalDSu:  NPrtUS=   8 ThrOK=T
 IPart= 0 IRanGd=          0 ScrnBf=T ScrnGd=T RCrit=4.00D+00 DoMicB=T.
 IPart= 4 IRanGd=          0 ScrnBf=T ScrnGd=T RCrit=4.00D+00 DoMicB=T.
 IPart= 6 IRanGd=          0 ScrnBf=T ScrnGd=T RCrit=4.00D+00 DoMicB=T.
 CutRad = 1000.00    CtRdIn =    0.00    XCrit =  15.00   ICut = 0
 CutRad = 1000.00    CtRdIn =    0.00    XCrit =  15.00   ICut = 0
 IPart= 5 IRanGd=          0 ScrnBf=T ScrnGd=T RCrit=4.00D+00 DoMicB=T.
 IPart= 1 IRanGd=          0 ScrnBf=T ScrnGd=T RCrit=4.00D+00 DoMicB=T.
 IPart= 2 IRanGd=          0 ScrnBf=T ScrnGd=T RCrit=4.00D+00 DoMicB=T.
 CutRad = 1000.00    CtRdIn =    0.00    XCrit =  15.00   ICut = 0
 IPart= 7 IRanGd=          0 ScrnBf=T ScrnGd=T RCrit=4.00D+00 DoMicB=T.
 CutRad = 1000.00    CtRdIn =    0.00    XCrit =  15.00   ICut = 0
 CutRad = 1000.00    CtRdIn =    0.00    XCrit =  15.00   ICut = 0
 IPart= 3 IRanGd=          0 ScrnBf=T ScrnGd=T RCrit=4.00D+00 DoMicB=T.
 CutRad = 1000.00    CtRdIn =    0.00    XCrit =  15.00   ICut = 0
 CutRad = 1000.00    CtRdIn =    0.00    XCrit =  15.00   ICut = 0
 CutRad = 1000.00    CtRdIn =    0.00    XCrit =  15.00   ICut = 0
 IPart= 1        13286 of        15850 points in      33 batches and       97 microbatches, Max-NSigAt=      16 Max-NSgAt2=      16
 IPart= 6        14208 of        15718 points in      32 batches and       97 microbatches, Max-NSigAt=      16 Max-NSgAt2=      16
 IPart= 7        13809 of        15528 points in      32 batches and       92 microbatches, Max-NSigAt=      16 Max-NSgAt2=      16
 IPart= 0        14622 of        16240 points in      32 batches and       87 microbatches, Max-NSigAt=      16 Max-NSgAt2=      16
 IPart= 5        13640 of        15194 points in      31 batches and       86 microbatches, Max-NSigAt=      16 Max-NSgAt2=      16
 IPart= 2        14097 of        16104 points in      33 batches and      115 microbatches, Max-NSigAt=      16 Max-NSgAt2=      16
 IPart= 4        13896 of        16214 points in      33 batches and       84 microbatches, Max-NSigAt=      16 Max-NSgAt2=      16
 IPart= 3        14756 of        16796 points in      35 batches and      124 microbatches, Max-NSigAt=      16 Max-NSgAt2=      16
 Polarizability after L703:
                1             2             3
      1  0.512151D+02
      2 -0.263355D+01  0.607387D+02
      3 -0.285222D+00 -0.314397D+01  0.637472D+02
 Dipole Derivatives after L703:
               1            2            3            4            5
      1 0.374260D+00 0.613174D-01-0.939790D-01-0.658819D-01 0.133076D-01
      2 0.994656D-01 0.348845D+00 0.743162D-01-0.608056D-01 0.733014D-01
      3-0.171367D+00 0.109503D+00 0.429962D+00-0.418885D-01-0.479313D-02
               6            7            8            9           10
      1-0.869992D-01 0.255426D-01 0.468445D-01 0.155868D-01-0.168111D+00
      2-0.472952D-01 0.677993D-01-0.104956D+00 0.834633D-01-0.126648D+00
      3-0.682329D-01 0.319699D-01 0.403706D-01 0.259798D-01 0.138714D+00
              11           12           13           14           15
      1-0.118915D+00 0.109303D+00 0.500886D-01 0.515828D-01-0.596331D-01
      2-0.159408D+00-0.174954D-01 0.811660D-01 0.535685D-01-0.946264D-02
      3-0.391275D-01 0.127401D+00-0.142426D+00 0.632092D-02 0.119364D-01
              16           17           18           19           20
      1 0.783172D-01 0.183332D-02-0.215117D-01-0.112277D+00-0.603712D-01
      2-0.134576D-01-0.120685D+00 0.267396D-01-0.269539D-01 0.644253D-01
      3 0.199262D-02 0.697693D-01 0.361875D-01-0.277147D-01-0.258418D-02
              21           22           23           24           25
      1 0.279151D-01 0.324986D-01 0.546618D-01 0.354158D-01 0.498565D+00
      2 0.340980D-01 0.509593D-01 0.244734D-02-0.662032D-01 0.117641D+00
      3 0.249256D-01 0.788832D-01-0.112340D+00-0.774800D-01-0.175619D+00
              26           27           28           29           30
      1 0.943644D-01-0.897074D-01-0.127433D-01-0.169387D-01-0.120588D+00
      2 0.637126D+00-0.629232D-01-0.229624D-01 0.232497D-01 0.256910D-01
      3-0.110145D+00 0.251139D+00-0.698527D-01 0.141543D-01-0.352216D-01
              31           32           33           34           35
      1-0.103905D-01 0.193023D-01 0.140047D+00-0.538275D+00-0.350823D-01
      2 0.244642D-02-0.216067D-01-0.572472D-01-0.128163D+00-0.913208D+00
      3 0.821140D-01-0.436029D-01-0.119654D+00 0.204847D+00 0.251516D-01
              36           37           38           39           40
      1 0.143672D+00 0.221647D+00-0.361708D-02-0.592669D-01-0.346815D+00
      2-0.597235D-02-0.118283D-01 0.347199D+00 0.232428D-01-0.433574D-01
      3-0.386801D+00-0.411728D-01 0.533035D-01 0.150778D+00 0.228806D+00
              41           42           43           44           45
      1-0.256105D-01 0.173253D-01-0.329412D+00-0.598321D-01 0.172329D+00
      2-0.159121D+00-0.796306D-01 0.311454D-01-0.419247D+00-0.276221D-01
      3-0.202871D+00-0.445324D+00 0.493520D-01 0.117503D+00-0.265507D+00
              46           47           48
      1 0.302987D+00-0.228472D-01-0.129909D+00
      2-0.164470D-01 0.348068D+00 0.106301D+00
      3-0.146638D+00 0.793872D-01 0.339910D+00
 Hessian after L703:
                1             2             3             4             5
      1  0.459224D+00
      2 -0.875050D-01  0.543918D+00
      3  0.133740D+00 -0.780212D-02  0.476947D+00
      4 -0.181343D+00 -0.138273D-01 -0.125521D+00  0.213007D+00
      5 -0.780398D-02 -0.542670D-01 -0.163662D-01  0.199072D-01  0.508680D-01
      6 -0.133761D+00 -0.173089D-01 -0.159338D+00  0.132457D+00  0.176930D-01
      7 -0.809193D-01  0.838692D-01 -0.308730D-01 -0.506103D-02  0.210192D-01
      8  0.774903D-01 -0.254927D+00  0.593880D-01 -0.170182D-03  0.525014D-02
      9 -0.254802D-01  0.593357D-01 -0.662462D-01 -0.550106D-02  0.167507D-01
     10 -0.631308D-01  0.268433D-01 -0.390513D-02  0.697430D-02 -0.121969D-01
     11  0.257187D-01 -0.127606D+00 -0.530018D-01  0.209006D-02  0.102176D-02
     12 -0.284319D-02 -0.620258D-01 -0.151270D+00  0.479209D-02 -0.137719D-01
     13  0.108724D-01  0.154196D-02  0.741063D-02 -0.394292D-03  0.121471D-02
     14 -0.101225D-01  0.371701D-02 -0.144053D-01  0.554878D-03 -0.201146D-02
     15 -0.140018D-01 -0.589130D-03 -0.257315D-01  0.148687D-02 -0.136929D-02
     16 -0.168945D-03 -0.439346D-03  0.798188D-03 -0.203968D-05  0.702312D-04
     17  0.837053D-03  0.467027D-03 -0.113062D-02 -0.100221D-03  0.295580D-03
     18 -0.911236D-03  0.197067D-02  0.139354D-02  0.128306D-03 -0.630092D-04
     19 -0.934482D-03  0.856599D-03  0.115925D-02  0.379759D-04 -0.223908D-04
     20  0.207328D-03  0.745891D-03 -0.368793D-03  0.268228D-05 -0.118292D-03
     21  0.852594D-03  0.165408D-02  0.177627D-02 -0.738509D-04 -0.313216D-04
     22 -0.153521D-02  0.943113D-03 -0.265082D-02  0.748851D-04 -0.439655D-03
     23  0.148330D-02  0.597512D-03  0.854555D-03 -0.187945D-03  0.403845D-03
     24 -0.431299D-02  0.216814D-02 -0.280517D-02  0.409665D-03 -0.762660D-03
     25 -0.118490D-02  0.157896D-01  0.804351D-03  0.646199D-03 -0.132953D-02
     26  0.117654D-01 -0.181197D-01 -0.501817D-02 -0.416149D-03  0.112694D-02
     27  0.944028D-02 -0.267886D-01  0.104548D-01  0.613977D-03 -0.673098D-03
     28  0.469561D-03 -0.117525D-02 -0.997335D-03  0.101515D-03  0.536347D-03
     29  0.921785D-04  0.157931D-02  0.154423D-02 -0.485301D-03 -0.214148D-03
     30  0.132639D-02 -0.209614D-03  0.188933D-03 -0.226658D-03  0.295600D-03
     31 -0.978353D-03  0.180588D-02 -0.209700D-02  0.160749D-03  0.652442D-04
     32  0.243949D-02 -0.363446D-02  0.303079D-02 -0.166260D-04  0.161127D-03
     33  0.276250D-03  0.133918D-02  0.589864D-03  0.137995D-04  0.212532D-03
     34 -0.204584D-02 -0.171843D-02  0.271948D-02  0.141731D-03  0.116324D-03
     35 -0.552067D-03  0.475939D-02  0.483377D-02 -0.147799D-04 -0.130449D-03
     36  0.210589D-02  0.136715D-03 -0.377451D-02 -0.195001D-03  0.312436D-03
     37  0.838037D-04  0.121774D-03 -0.308964D-03 -0.113204D-03  0.767461D-05
     38 -0.193645D-03 -0.847797D-03 -0.443101D-03  0.927184D-04  0.544979D-04
     39 -0.433447D-03 -0.350968D-03 -0.398036D-04  0.506148D-04 -0.290148D-04
     40 -0.156102D+00 -0.607962D-02  0.869757D-02 -0.385821D-01 -0.202615D-01
     41 -0.208068D-01 -0.615891D-01  0.771584D-02 -0.109548D-01 -0.476353D-02
     42  0.439211D-01  0.211274D-01 -0.664860D-01 -0.762907D-02  0.900659D-03
     43  0.151181D-01 -0.185344D-01  0.127919D-01  0.472379D-02 -0.800445D-03
     44  0.921598D-02 -0.315367D-01  0.198370D-01  0.323031D-02  0.257812D-02
     45 -0.532697D-02  0.232345D-01 -0.203344D-01 -0.137951D-02 -0.311124D-02
     46  0.257497D-02 -0.249207D-02 -0.176828D-02 -0.371816D-03 -0.825626D-04
     47 -0.226560D-02 -0.325508D-02  0.133202D-02  0.295480D-03 -0.255127D-03
     48 -0.459175D-02  0.410868D-02  0.467541D-02  0.573099D-03  0.128710D-04
                6             7             8             9            10
      6  0.172813D+00
      7 -0.470912D-02  0.828147D-01
      8 -0.959073D-03 -0.829436D-01  0.280879D+00
      9 -0.377392D-02  0.201773D-01 -0.712499D-01  0.774117D-01
     10 -0.157676D-01 -0.248380D-02  0.915540D-02  0.992091D-02  0.287839D+00
     11 -0.170348D-02  0.731406D-02 -0.165661D-01 -0.245201D-01 -0.151836D+00
     12 -0.190503D-01 -0.190662D-02  0.410742D-02  0.608683D-02  0.735747D-01
     13  0.155986D-02 -0.116532D-05 -0.435613D-03  0.244915D-03 -0.917504D-01
     14 -0.377057D-02 -0.474492D-03  0.975738D-03 -0.904562D-03  0.240980D-01
     15 -0.216799D-02 -0.411652D-03  0.155529D-02  0.134238D-02 -0.575003D-01
     16  0.103561D-03  0.277192D-03 -0.163887D-03  0.619466D-04 -0.292370D-02
     17  0.000000D+00 -0.291295D-03  0.522269D-03  0.486643D-03  0.420056D-02
     18  0.178233D-03  0.403022D-03 -0.101380D-02 -0.306482D-03 -0.282726D-02
     19 -0.224327D-03  0.662809D-04 -0.213168D-03 -0.140426D-03 -0.156497D-01
     20  0.838962D-04 -0.143112D-03 -0.237819D-03 -0.263518D-04  0.724674D-02
     21  0.165012D-03  0.120110D-03 -0.310461D-03 -0.216516D-03 -0.292401D-01
     22 -0.573738D-03 -0.560106D-04  0.431685D-04  0.231245D-04  0.612240D-02
     23  0.112102D-03 -0.109457D-03  0.482419D-03  0.210894D-03 -0.367703D-02
     24 -0.109930D-02  0.408803D-04  0.145356D-03  0.298631D-03  0.107299D-01
     25 -0.658014D-03  0.444548D-03 -0.158356D-03  0.122689D-02 -0.108135D+00
     26  0.203690D-02  0.467516D-03  0.217955D-03 -0.132810D-02  0.767730D-01
     27  0.173039D-04  0.164575D-02 -0.321211D-02 -0.469550D-02 -0.166134D-01
     28  0.805954D-03  0.356593D-03 -0.622943D-04  0.680087D-04 -0.851729D-02
     29 -0.870803D-03 -0.279296D-03  0.176918D-03  0.921007D-04  0.182368D-01
     30  0.619175D-03  0.150352D-03  0.829412D-04  0.357088D-04 -0.221029D-02
     31  0.163758D-03 -0.731479D-04  0.406979D-03  0.717204D-03 -0.445289D-02
     32  0.128878D-03  0.433959D-03 -0.803793D-03 -0.110119D-02  0.115077D-01
     33  0.223325D-03  0.195909D-03  0.299850D-04  0.219885D-03 -0.298840D-02
     34  0.775027D-04  0.521994D-03 -0.207370D-03 -0.693759D-03  0.132238D-01
     35 -0.479140D-03  0.642677D-03 -0.420543D-03 -0.182880D-03 -0.180981D-01
     36  0.391618D-03 -0.533364D-03  0.134956D-03  0.816458D-03  0.326517D-02
     37  0.339165D-04 -0.296947D-04  0.756833D-04  0.640649D-04  0.221152D-02
     38  0.215506D-03 -0.310175D-04  0.312265D-04 -0.368578D-05  0.272772D-03
     39 -0.782515D-04 -0.369471D-04  0.749839D-04  0.265191D-04  0.107277D-02
     40  0.193059D-01  0.646550D-02  0.808960D-03 -0.486959D-02 -0.205456D-01
     41  0.670350D-02 -0.236530D-01 -0.156071D-01  0.176166D-01  0.750123D-02
     42  0.933447D-02  0.126257D-01  0.116609D-01 -0.818497D-02  0.333452D-01
     43  0.166487D-02 -0.194668D-02 -0.349153D-02  0.369501D-02  0.523060D-03
     44 -0.211863D-02 -0.576205D-02 -0.154661D-03  0.503395D-02  0.424586D-03
     45  0.209522D-02  0.169785D-02 -0.675535D-03 -0.152759D-02 -0.188085D-03
     46 -0.479210D-03 -0.375984D-03 -0.134401D-03  0.485673D-03  0.695713D-03
     47  0.235871D-03 -0.592132D-04  0.181601D-03 -0.209772D-03 -0.452214D-03
     48 -0.328653D-03  0.141386D-02  0.241092D-03 -0.128693D-02 -0.668082D-03
               11            12            13            14            15
     11  0.412390D+00
     12  0.377524D-01  0.492513D+00
     13  0.267949D-01 -0.556407D-01  0.476693D+00
     14 -0.789305D-01  0.106632D-01 -0.244306D-01  0.541082D+00
     15  0.156604D-01 -0.178753D+00 -0.342395D-01  0.270403D-01  0.502481D+00
     16  0.177045D-01 -0.653962D-02 -0.384427D-01 -0.102717D-01  0.525034D-02
     17 -0.324491D-02  0.387027D-02 -0.115198D-01 -0.284792D+00  0.556255D-01
     18  0.262056D-01 -0.721471D-02  0.556958D-02  0.590933D-01 -0.622360D-01
     19  0.593928D-03 -0.910302D-02 -0.267177D+00 -0.570498D-01  0.263112D-01
     20  0.184819D-02 -0.736151D-03 -0.534793D-01 -0.541896D-01  0.310479D-02
     21 -0.472499D-02 -0.151410D-02  0.151285D-01  0.412692D-03 -0.439462D-01
     22 -0.102848D-01 -0.131879D-01 -0.861143D-01  0.563445D-01  0.777442D-01
     23  0.225944D-02  0.343517D-02  0.556214D-01 -0.122593D+00 -0.101883D+00
     24 -0.160021D-01 -0.215066D-01  0.758019D-01 -0.101325D+00 -0.191479D+00
     25  0.746942D-01 -0.192600D-01 -0.170887D-02  0.199854D-01 -0.550011D-02
     26 -0.150223D+00  0.556123D-02  0.278812D-02 -0.158624D-02  0.445973D-02
     27 -0.138929D-02 -0.950578D-01 -0.119964D-01  0.247023D-01 -0.430210D-02
     28  0.125021D-02 -0.137187D-01 -0.455875D-03  0.198788D-02  0.111642D-02
     29  0.323312D-04  0.223860D-01  0.213787D-02 -0.410515D-02 -0.316232D-03
     30  0.205123D-02 -0.294186D-02 -0.948009D-03  0.184686D-03  0.720888D-03
     31  0.791018D-02  0.144039D-01  0.266463D-03 -0.322159D-03  0.144892D-02
     32 -0.118566D-01 -0.239955D-01 -0.884186D-03  0.351821D-03 -0.129918D-02
     33  0.290853D-03  0.292505D-02 -0.743916D-03  0.592479D-03  0.103301D-02
     34 -0.630795D-02 -0.180660D-02 -0.493554D-03 -0.769459D-03 -0.373501D-03
     35 -0.463282D-01  0.132251D-01  0.257005D-02  0.193884D-02 -0.293182D-02
     36  0.165883D-01  0.200986D-02 -0.781800D-03 -0.133192D-02  0.879016D-03
     37  0.102840D-04  0.115956D-02  0.910763D-04 -0.518568D-03 -0.186592D-03
     38  0.475014D-03 -0.181805D-02 -0.525030D-03  0.120829D-05  0.657356D-03
     39 -0.316301D-03  0.597989D-03 -0.649903D-03 -0.292648D-03  0.587119D-03
     40  0.410866D-02  0.294008D-01 -0.952084D-03  0.965939D-03 -0.127450D-02
     41  0.144871D-01  0.328801D-02 -0.124604D-02  0.262282D-03  0.330742D-03
     42  0.316490D-02 -0.274109D-01 -0.924541D-03 -0.477334D-03  0.202311D-02
     43  0.509048D-03  0.264380D-03 -0.283888D-03 -0.307652D-03 -0.521484D-05
     44  0.196933D-02 -0.292146D-02 -0.428408D-03  0.275555D-03  0.181316D-03
     45  0.785593D-03  0.532718D-03 -0.272443D-03  0.215564D-03 -0.138846D-04
     46 -0.270153D-03  0.411026D-03 -0.148915D-03  0.330413D-03  0.135053D-03
     47  0.272479D-03  0.980014D-03  0.279897D-03 -0.396995D-03 -0.226429D-03
     48 -0.841102D-03  0.537933D-04  0.481723D-03 -0.397481D-03 -0.436199D-03
               16            17            18            19            20
     16  0.461402D-01
     17  0.113604D-01  0.310581D+00
     18  0.341999D-04 -0.658131D-01  0.652302D-01
     19 -0.297558D-02 -0.141180D-02  0.120107D-02  0.297770D+00
     20 -0.319040D-01 -0.927285D-02  0.340760D-02  0.607561D-01  0.588580D-01
     21  0.738835D-02  0.175363D-02 -0.250485D-03 -0.190740D-01 -0.596822D-02
     22 -0.907245D-04 -0.150159D-02 -0.254035D-02 -0.117591D-01  0.177876D-01
     23  0.127846D-01 -0.147304D-01 -0.233368D-01 -0.300160D-02  0.413648D-02
     24 -0.403077D-02  0.371301D-02  0.670648D-02  0.156918D-02 -0.815619D-03
     25 -0.207828D-02 -0.766540D-03 -0.119443D-02 -0.129608D-02 -0.384374D-03
     26 -0.231033D-03  0.317336D-03 -0.148672D-02 -0.253874D-02 -0.620188D-03
     27 -0.315104D-02  0.130850D-02 -0.388718D-02 -0.631054D-03  0.603305D-03
     28 -0.329313D-03  0.646961D-04 -0.511647D-03 -0.109447D-04  0.175623D-04
     29  0.661658D-03 -0.107331D-03  0.825786D-03  0.524428D-03 -0.332981D-04
     30 -0.264619D-03  0.118809D-03  0.949717D-04 -0.394580D-03  0.223041D-03
     31  0.215534D-03 -0.267320D-03 -0.123387D-03  0.735685D-04 -0.972561D-04
     32 -0.147993D-03  0.136851D-03  0.125656D-03 -0.103342D-03  0.212443D-03
     33 -0.825123D-04  0.745583D-04  0.253156D-03  0.000000D+00  0.134092D-03
     34  0.497623D-03 -0.179211D-03  0.371219D-03  0.813133D-03 -0.557987D-03
     35  0.161270D-03 -0.291578D-03  0.714453D-03  0.942636D-03 -0.421226D-03
     36  0.532578D-04  0.131608D-03  0.129829D-03 -0.159207D-03 -0.129937D-03
     37 -0.111644D-03  0.118996D-04  0.122935D-03 -0.135553D-03  0.502468D-03
     38  0.239109D-03  0.178260D-03 -0.389401D-04  0.604014D-03 -0.543228D-03
     39  0.504646D-04 -0.163285D-03 -0.192948D-03 -0.412494D-04  0.350326D-03
     40  0.518953D-04 -0.536233D-03  0.358335D-03  0.116605D-02 -0.604912D-04
     41  0.159814D-03 -0.117791D-03 -0.294259D-03  0.241740D-04 -0.293959D-03
     42  0.336978D-03  0.302508D-03 -0.113000D-03 -0.431670D-03 -0.138077D-03
     43  0.357118D-04  0.173567D-04  0.475394D-04  0.187729D-03  0.114419D-03
     44  0.153039D-04  0.148648D-03 -0.326913D-03  0.743002D-04 -0.160247D-03
     45 -0.126741D-04 -0.961410D-04 -0.157089D-04 -0.340908D-04  0.554204D-04
[...]
    Y7        1.45311   0.00000   0.00000  -0.00055  -0.00051   1.45260
    Z7        4.57295  -0.00001   0.00000  -0.00650  -0.00544   4.56751
    X8       -2.15591   0.00003   0.00000   0.00593   0.00473  -2.15118
    Y8        2.07009   0.00001   0.00000   0.00289   0.00283   2.07292
    Z8        6.27046   0.00000   0.00000  -0.00153  -0.00126   6.26920
    X9       -4.06123   0.00000   0.00000  -0.00203  -0.00212  -4.06335
    Y9        3.89959   0.00000   0.00000  -0.00036  -0.00067   3.89892
    Z9        1.88364   0.00001   0.00000   0.00071   0.00039   1.88403
   X10       -5.45679  -0.00001   0.00000  -0.00299  -0.00266  -5.45945
   Y10        3.75651   0.00000   0.00000  -0.00027  -0.00070   3.75581
   Z10        0.37368   0.00002   0.00000   0.00160   0.00090   0.37458
   X11       -5.02091   0.00001   0.00000  -0.00094  -0.00154  -5.02244
   Y11        4.50829   0.00000   0.00000  -0.00044  -0.00075   4.50754
   Z11        3.61393   0.00001   0.00000   0.00135   0.00075   3.61468
   X12       -2.37394   0.00000   0.00000  -0.00237  -0.00234  -2.37629
   Y12        5.92239   0.00000   0.00000  -0.00036  -0.00061   5.92178
   Z12        1.04530   0.00000   0.00000  -0.00011  -0.00003   1.04527
   X13       -1.16888   0.00001   0.00000  -0.00283  -0.00319  -1.17206
   Y13        6.23060   0.00000   0.00000   0.00080   0.00067   6.23126
   Z13        2.37555  -0.00001   0.00000   0.00004   0.00044   2.37599
   X14        0.12553  -0.00001   0.00000   0.00078   0.00175   0.12728
   Y14        0.94002   0.00000   0.00000  -0.00175  -0.00193   0.93809
   Z14       -1.34795  -0.00001   0.00000   0.00245   0.00338  -1.34457
   X15       -0.80152  -0.00003   0.00000   0.00529   0.00659  -0.79492
   Y15        2.92656  -0.00001   0.00000  -0.00016  -0.00045   2.92611
   Z15       -2.98315  -0.00001   0.00000   0.00186   0.00247  -2.98068
   X16       -0.95084  -0.00002   0.00000   0.00209   0.00300  -0.94784
   Y16        4.34407   0.00000   0.00000  -0.00103  -0.00128   4.34279
   Z16       -1.80479  -0.00001   0.00000   0.00252   0.00304  -1.80175
         Item               Value     Threshold  Converged?
 Maximum Force            0.000027     0.000450     YES
 RMS     Force            0.000010     0.000300     YES
 Maximum Displacement     0.006592     0.001800     NO 
 RMS     Displacement     0.002248     0.001200     NO 
 Predicted change in Energy=-1.138243D-07
 GradGradGradGradGradGradGradGradGradGradGradGradGradGradGradGradGradGrad


 Test job not archived.
 1\1\GINC-NODE28\Freq\UB3LYP\CBSB7\C4H9O3(2)\SHAMEL\18-Jun-2013\0\\# fr
 eq nosymm b3lyp/cbsb7 iop(7/33=1)\\Title Card Required\\0,2\C,-1.05966
 4,-0.054797,0.007264\H,-1.889184,-0.166267,-0.697832\H,-0.706663,-1.04
 5962,0.307438\C,-1.429109,0.771085,1.200624\C,-0.718205,0.516003,2.492
 575\H,-0.755866,-0.544092,2.767432\H,0.351187,0.768953,2.419899\H,-1.1
 40857,1.095443,3.318184\C,-2.149112,2.063576,0.99678\H,-2.887609,1.987
 861,0.197743\H,-2.65695,2.385682,1.91241\O,-1.256236,3.133994,0.553149
 \H,-0.618544,3.297089,1.257086\O,0.066428,0.497437,-0.713307\O,-0.4241
 44,1.548668,-1.578614\H,-0.503162,2.298784,-0.955054\\Version=AM64L-G0
 3RevD.01\HF=-383.4663728\S2=0.75437\S2-1=0.\S2A=0.750015\RMSD=6.347e-0
 9\RMSF=1.018e-05\ZeroPoint=0.1320865\Thermal=0.1407107\Dipole=-0.49052
 87,0.0037845,1.5543869\DipoleDeriv=0.3742598,0.0994656,-0.1713667,0.06
 13174,0.348845,0.1095026,-0.093979,0.0743162,0.4299624,-0.0658819,-0.0
 608056,-0.0418885,0.0133076,0.0733014,-0.0047931,-0.0869992,-0.0472952
 ,-0.0682329,0.0255426,0.0677993,0.0319699,0.0468445,-0.1049558,0.04037
 06,0.0155868,0.0834633,0.0259798,-0.1681106,-0.1266482,0.1387144,-0.11
 89152,-0.1594076,-0.0391275,0.1093029,-0.0174954,0.1274009,0.0500886,0
 .081166,-0.1424262,0.0515828,0.0535685,0.0063209,-0.0596331,-0.0094626
 ,0.0119364,0.0783172,-0.0134576,0.0019926,0.0018333,-0.1206852,0.06976
 93,-0.0215117,0.0267396,0.0361875,-0.1122773,-0.0269539,-0.0277147,-0.
 0603712,0.0644253,-0.0025842,0.0279151,0.034098,0.0249256,0.0324986,0.
 0509593,0.0788832,0.0546618,0.0024473,-0.1123399,0.0354158,-0.0662032,
 -0.07748,0.4985653,0.1176412,-0.1756192,0.0943644,0.6371264,-0.110145,
 -0.0897074,-0.0629232,0.2511393,-0.0127433,-0.0229624,-0.0698527,-0.01
 69387,0.0232497,0.0141543,-0.1205879,0.025691,-0.0352216,-0.0103905,0.
 0024464,0.082114,0.0193023,-0.0216067,-0.0436029,0.1400474,-0.0572472,
 -0.1196544,-0.5382749,-0.1281629,0.2048467,-0.0350823,-0.9132081,0.025
 1516,0.143672,-0.0059724,-0.3868006,0.221647,-0.0118283,-0.0411728,-0.
 0036171,0.3471991,0.0533035,-0.0592669,0.0232428,0.1507781,-0.3468155,
 -0.0433574,0.2288057,-0.0256105,-0.1591208,-0.2028706,0.0173253,-0.079
 6306,-0.4453238,-0.3294117,0.0311454,0.049352,-0.0598321,-0.4192467,0.
 1175032,0.1723289,-0.0276221,-0.2655067,0.3029868,-0.016447,-0.1466378
 ,-0.0228472,0.3480681,0.0793872,-0.129909,0.1063011,0.33991\Polar=51.2
 151443,-2.6335518,60.7387173,-0.2852223,-3.1439682,63.7471999\PG=C01 [
 X(C4H9O3)]\NImag=0\\0.45922399,-0.08750499,0.54391754,0.13373966,-0.00
 780212,0.47694716,-0.18134334,-0.01382732,-0.12552057,0.21300664,-0.00
 780398,-0.05426700,-0.01636624,0.01990718,0.05086801,-0.13376064,-0.01
 730891,-0.15933848,0.13245730,0.01769299,0.17281255,-0.08091933,0.0838
 6916,-0.03087297,-0.00506103,0.02101924,-0.00470912,0.08281473,0.07749
 026,-0.25492748,0.05938796,-0.00017018,0.00525014,-0.00095907,-0.08294
 365,0.28087925,-0.02548018,0.05933573,-0.06624623,-0.00550106,0.016750
 65,-0.00377392,0.02017727,-0.07124993,0.07741173,-0.06313077,0.0268433
 1,-0.00390513,0.00697430,-0.01219690,-0.01576758,-0.00248380,0.0091554
 0,0.00992091,0.28783887,0.02571868,-0.12760635,-0.05300185,0.00209006,
 0.00102176,-0.00170348,0.00731406,-0.01656608,-0.02452013,-0.15183581,
 0.41239011,-0.00284319,-0.06202577,-0.15126985,0.00479209,-0.01377186,
 -0.01905033,-0.00190662,0.00410742,0.00608683,0.07357468,0.03775240,0.
 49251284,0.01087243,0.00154196,0.00741063,-0.00039429,0.00121471,0.001
 55986,-0.00000117,-0.00043561,0.00024492,-0.09175044,0.02679495,-0.055
 64070,0.47669322,-0.01012254,0.00371701,-0.01440531,0.00055488,-0.0020
 1146,-0.00377057,-0.00047449,0.00097574,-0.00090456,0.02409797,-0.0789
 3047,0.01066321,-0.02443058,0.54108179,-0.01400175,-0.00058913,-0.0257
 3154,0.00148687,-0.00136929,-0.00216799,-0.00041165,0.00155529,0.00134
 238,-0.05750028,0.01566035,-0.17875288,-0.03423946,0.02704029,0.502480
 66,-0.00016894,-0.00043935,0.00079819,-0.00000204,0.00007023,0.0001035
 6,0.00027719,-0.00016389,0.00006195,-0.00292370,0.01770452,-0.00653962
 ,-0.03844273,-0.01027168,0.00525034,0.04614020,0.00083705,0.00046703,-
 0.00113062,-0.00010022,0.00029558,0.00000096,-0.00029129,0.00052227,0.
 00048664,0.00420056,-0.00324491,0.00387027,-0.01151985,-0.28479153,0.0
 5562546,0.01136039,0.31058139,-0.00091124,0.00197067,0.00139354,0.0001
 2831,-0.00006301,0.00017823,0.00040302,-0.00101380,-0.00030648,-0.0028
 2726,0.02620562,-0.00721471,0.00556958,0.05909332,-0.06223601,0.000034
 20,-0.06581308,0.06523021,-0.00093448,0.00085660,0.00115925,0.00003798
 ,-0.00002239,-0.00022433,0.00006628,-0.00021317,-0.00014043,-0.0156497
 2,0.00059393,-0.00910302,-0.26717704,-0.05704982,0.02631121,-0.0029755
 8,-0.00141180,0.00120107,0.29777015,0.00020733,0.00074589,-0.00036879,
 0.00000268,-0.00011829,0.00008390,-0.00014311,-0.00023782,-0.00002635,
 0.00724674,0.00184819,-0.00073615,-0.05347927,-0.05418965,0.00310479,-
 0.03190400,-0.00927285,0.00340760,0.06075610,0.05885805,0.00085259,0.0
 0165408,0.00177627,-0.00007385,-0.00003132,0.00016501,0.00012011,-0.00
 031046,-0.00021652,-0.02924010,-0.00472499,-0.00151410,0.01512850,0.00
 041269,-0.04394624,0.00738835,0.00175363,-0.00025048,-0.01907395,-0.00
 596822,0.04766627,-0.00153521,0.00094311,-0.00265082,0.00007489,-0.000
 43965,-0.00057374,-0.00005601,0.00004317,0.00002312,0.00612240,-0.0102
 8484,-0.01318793,-0.08611433,0.05634447,0.07774425,-0.00009072,-0.0015
 0159,-0.00254035,-0.01175912,0.01778763,0.02302407,0.09216536,0.001483
 30,0.00059751,0.00085455,-0.00018795,0.00040385,0.00011210,-0.00010946
 ,0.00048242,0.00021089,-0.00367703,0.00225944,0.00343517,0.05562143,-0
 .12259275,-0.10188324,0.01278457,-0.01473036,-0.02333679,-0.00300160,0
 .00413648,0.00665453,-0.06215603,0.12859740,-0.00431299,0.00216814,-0.
 00280517,0.00040967,-0.00076266,-0.00109930,0.00004088,0.00014536,0.00
 029863,0.01072993,-0.01600213,-0.02150660,0.07580194,-0.10132473,-0.19
 147935,-0.00403077,0.00371301,0.00670648,0.00156918,-0.00081562,-0.001
 85120,-0.08187982,0.11321069,0.21021237,-0.00118490,0.01578960,0.00080
 435,0.00064620,-0.00132953,-0.00065801,0.00044455,-0.00015836,0.001226
 89,-0.10813548,0.07469418,-0.01926001,-0.00170887,0.01998540,-0.005500
 11,-0.00207828,-0.00076654,-0.00119443,-0.00129608,-0.00038437,0.00061
 459,0.00089768,-0.00070770,0.00188448,0.49550556,0.01176536,-0.0181196
 9,-0.00501817,-0.00041615,0.00112694,0.00203690,0.00046752,0.00021795,
 -0.00132810,0.07677301,-0.15022315,0.00556123,0.00278812,-0.00158624,0
 .00445973,-0.00023103,0.00031734,-0.00148672,-0.00253874,-0.00062019,-
 0.00185814,-0.00022765,0.00039020,-0.00234417,-0.07303076,0.38764876,0
 .00944028,-0.02678859,0.01045482,0.00061398,-0.00067310,0.00001730,0.0
 0164575,-0.00321211,-0.00469550,-0.01661345,-0.00138929,-0.09505784,-0
 .01199637,0.02470232,-0.00430210,-0.00315104,0.00130850,-0.00388718,-0
 .00063105,0.00060330,-0.00057734,-0.00056373,0.00120480,0.00094521,0.0
 5601827,0.06788103,0.61447243,0.00046956,-0.00117525,-0.00099733,0.000
 10151,0.00053635,0.00080595,0.00035659,-0.00006229,0.00006801,-0.00851
 729,0.00125021,-0.01371872,-0.00045588,0.00198788,0.00111642,-0.000329
 31,0.00006470,-0.00051165,-0.00001094,0.00001756,-0.00020816,0.0001450
 7,-0.00015351,-0.00007743,-0.16249111,-0.00538756,-0.12447613,0.183046
 48,0.00009218,0.00157931,0.00154423,-0.00048530,-0.00021415,-0.0008708
 0,-0.00027930,0.00017692,0.00009210,0.01823679,0.00003233,0.02238599,0
 .00213787,-0.00410515,-0.00031623,0.00066166,-0.00010733,0.00082579,0.
 00052443,-0.00003330,0.00038972,-0.00015232,0.00004648,-0.00010828,-0.
 00131737,-0.04627473,-0.01086810,0.01672947,0.06105297,0.00132639,-0.0
 0020961,0.00018893,-0.00022666,0.00029560,0.00061918,0.00015035,0.0000
 8294,0.00003571,-0.00221029,0.00205123,-0.00294186,-0.00094801,0.00018
 469,0.00072089,-0.00026462,0.00011881,0.00009497,-0.00039458,0.0002230
 4,-0.00020464,0.00004958,0.00008897,0.00054963,-0.13428468,-0.01770410
 ,-0.20180287,0.14115947,0.01121558,0.20933695,-0.00097835,0.00180588,-
 0.00209700,0.00016075,0.00006524,0.00016376,-0.00007315,0.00040698,0.0
 0071720,-0.00445289,0.00791018,0.01440390,0.00026646,-0.00032216,0.001
 44892,0.00021553,-0.00026732,-0.00012339,0.00007357,-0.00009726,-0.000
 10761,-0.00005675,-0.00011053,-0.00095116,-0.09891111,0.03928526,0.084
 37612,0.01206040,-0.00610914,-0.01670852,0.10787499,0.00243949,-0.0036
 3446,0.00303079,-0.00001663,0.00016113,0.00012888,0.00043396,-0.000803
 79,-0.00110119,0.01150770,-0.01185664,-0.02399553,-0.00088419,0.000351
 82,-0.00129918,-0.00014799,0.00013685,0.00012566,-0.00010334,0.0002124
 4,0.00022700,0.00010931,0.00039382,0.00112339,0.04015840,-0.07095184,-
 0.07221204,0.00135957,0.00051808,-0.00124733,-0.03508080,0.08441743,0.
 00027625,0.00133918,0.00058986,0.00001380,0.00021253,0.00022333,0.0001
 9591,0.00002999,0.00021988,-0.00298840,0.00029085,0.00292505,-0.000743
 92,0.00059248,0.00103301,-0.00008251,0.00007456,0.00025316,0.00000041,
 0.00013409,-0.00000869,0.00034604,-0.00010082,0.00064321,0.08820211,-0
 .06847676,-0.22838617,0.00989120,-0.00792432,-0.01733524,-0.10460734,0
 .06844647,0.24472267,-0.00204584,-0.00171843,0.00271948,0.00014173,0.0
 0011632,0.00007750,0.00052199,-0.00020737,-0.00069376,0.01322383,-0.00
 630795,-0.00180660,-0.00049355,-0.00076946,-0.00037350,0.00049762,-0.0
 0017921,0.00037122,0.00081313,-0.00055799,0.00083735,-0.00037040,0.000
 17905,-0.00009325,-0.10310843,-0.04189367,0.02172836,-0.02177502,-0.02
 597913,0.00926607,-0.01666439,-0.02148047,0.00978631,0.35906659,-0.000
 55207,0.00475939,0.00483377,-0.00001478,-0.00013045,-0.00047914,0.0006
 4268,-0.00042054,-0.00018288,-0.01809811,-0.04632818,0.01322511,0.0025
 7005,0.00193884,-0.00293182,0.00016127,-0.00029158,0.00071445,0.000942
 64,-0.00042123,0.00152083,-0.00048922,0.00007440,0.00084140,-0.0482646
 0,-0.09663382,0.03643786,-0.01163258,-0.00904090,0.00294113,-0.0075315
 4,-0.00018221,0.00498031,0.14874806,0.19009962,0.00210589,0.00013671,-
 0.00377451,-0.00019500,0.00031244,0.00039162,-0.00053336,0.00013496,0.
 00081646,0.00326517,0.01658832,0.00200986,-0.00078180,-0.00133192,0.00
 087902,0.00005326,0.00013161,0.00012983,-0.00015921,-0.00012994,-0.000
 42452,0.00011081,0.00004116,0.00034360,-0.00315920,0.00409959,-0.09309
 018,-0.01489166,-0.01769217,0.00996717,0.02316693,0.02767234,-0.005766
 58,0.21122942,0.00590198,0.39816965,0.00008380,0.00012177,-0.00030896,
 -0.00011320,0.00000767,0.00003392,-0.00002969,0.00007568,0.00006406,0.
 00221152,0.00001028,0.00115956,0.00009108,-0.00051857,-0.00018659,-0.0
 0011164,0.00001190,0.00012293,-0.00013555,0.00050247,-0.00033429,0.000
 02005,-0.00005700,0.00021147,-0.01698965,-0.00247209,-0.02047405,-0.00
 245405,-0.00396371,0.00289542,0.00013602,0.00105117,-0.00022321,-0.227
 43573,-0.07122113,-0.22061456,0.24342862,-0.00019364,-0.00084780,-0.00
 044310,0.00009272,0.00005450,0.00021551,-0.00003102,0.00003123,-0.0000
 0369,0.00027277,0.00047501,-0.00181805,-0.00052503,0.00000121,0.000657
 36,0.00023911,0.00017826,-0.00003894,0.00060401,-0.00054323,0.00038831
 ,-0.00005032,-0.00015756,0.00020523,-0.02170720,-0.00743812,-0.0216273
 9,-0.00321028,-0.00334191,0.00209237,0.00073830,0.00132755,0.00037434,
 -0.05215499,-0.03426749,-0.02777293,0.07617099,0.04470328,-0.00043345,
 -0.00035097,-0.00003980,0.00005061,-0.00002901,-0.00007825,-0.00003695
 ,0.00007498,0.00002652,0.00107277,-0.00031630,0.00059799,-0.00064990,-
 0.00029265,0.00058712,0.00005046,-0.00016329,-0.00019295,-0.00004125,0
 .00035033,-0.00006096,0.00036169,0.00002336,-0.00059317,0.01285274,0.0
 0691125,0.00884962,0.00204544,0.00190486,0.00083441,0.00113236,0.00039
 524,0.00051639,-0.25149833,-0.05746637,-0.30288463,0.23702562,0.049025
 79,0.29404212,-0.15610166,-0.00607962,0.00869757,-0.03858206,-0.020261
 48,0.01930591,0.00646550,0.00080896,-0.00486959,-0.02054560,0.00410866
 ,0.02940077,-0.00095208,0.00096594,-0.00127450,0.00005190,-0.00053623,
 0.00035833,0.00116605,-0.00006049,0.00117408,0.00049155,0.00006742,0.0
 0061779,0.00143916,-0.00424417,0.00161285,-0.00024126,0.00003046,-0.00
 029778,0.00012740,0.00048356,0.00005609,0.00238157,0.00288296,-0.00247
 159,-0.00040570,0.00000913,0.00031381,0.28226713,-0.02080681,-0.061589
 12,0.00771584,-0.01095478,-0.00476353,0.00670350,-0.02365303,-0.015607
 14,0.01761663,0.00750123,0.01448713,0.00328801,-0.00124604,0.00026228,
 0.00033074,0.00015981,-0.00011779,-0.00029426,0.00002417,-0.00029396,-
 0.00023003,0.00013172,-0.00006580,-0.00001664,-0.00151484,0.00074897,0
 .00070477,0.00021213,-0.00038354,-0.00023447,0.00002203,0.00020455,-0.
 00022073,-0.00091540,-0.00039687,0.00112982,0.00005189,0.00042803,0.00
 003156,-0.02832403,0.22878502,0.04392108,0.02112742,-0.06648605,-0.007
 62907,0.00090066,0.00933447,0.01262567,0.01166092,-0.00818497,0.033345
 18,0.00316490,-0.02741093,-0.00092454,-0.00047733,0.00202311,0.0003369
 8,0.00030251,-0.00011300,-0.00043167,-0.00013808,-0.00062101,-0.000285
 42,-0.00040891,-0.00019354,-0.00377868,0.00340612,0.00001765,0.0004051
 0,-0.00036998,0.00024685,0.00025474,-0.00031635,-0.00017178,-0.0003667
 3,-0.00390808,0.00185223,0.00010631,0.00057138,0.00041331,-0.02829043,
 -0.12541845,0.18321866,0.01511808,-0.01853436,0.01279195,0.00472379,-0
 .00080045,0.00166487,-0.00194668,-0.00349153,0.00369501,0.00052306,0.0
 0050905,0.00026438,-0.00028389,-0.00030765,-0.00000521,0.00003571,0.00
 001736,0.00004754,0.00018773,0.00011442,0.00021538,0.00009509,0.000050
 66,-0.00002066,-0.00038541,0.00099062,-0.00203595,0.00080890,-0.000089
 35,0.00044767,0.00018696,0.00001644,0.00043598,0.00215374,0.00226995,0
 .00424513,-0.00123470,0.00036658,0.00100375,-0.07143534,0.06169601,-0.
 05593430,0.06600743,0.00921598,-0.03153669,0.01983703,0.00323031,0.002
 57812,-0.00211863,-0.00576205,-0.00015466,0.00503395,0.00042459,0.0019
 6933,-0.00292146,-0.00042841,0.00027555,0.00018132,0.00001530,0.000148
 65,-0.00032691,0.00007430,-0.00016025,-0.00002803,-0.00004722,0.000189
 42,0.00030795,-0.00253173,-0.00436995,0.00163391,0.00012117,0.00011789
 ,0.00022501,0.00061628,0.00122474,-0.00025412,0.00485343,-0.00130664,-
 0.00981626,0.00121376,-0.00018999,-0.00018823,0.04188519,-0.13495865,0
 .09908545,-0.07233900,0.43002059,-0.00532697,0.02323448,-0.02033436,-0
 .00137951,-0.00311124,0.00209522,0.00169785,-0.00067553,-0.00152759,-0
 .00018809,0.00078559,0.00053272,-0.00027244,0.00021556,-0.00001388,-0.
 00001267,-0.00009614,-0.00001571,-0.00003409,0.00005542,-0.00001395,0.
 00004249,-0.00010211,0.00010003,-0.00081098,-0.00273689,0.00056726,0.0
 0005081,0.00023934,-0.00027497,0.00012209,0.00043017,-0.00035773,0.004
 61691,-0.00655691,-0.01047686,0.00157225,-0.00058158,-0.00076439,-0.01
 887027,0.04972727,-0.09965301,0.01851161,0.12125364,0.36389708,0.00257
 497,-0.00249207,-0.00176828,-0.00037182,-0.00008256,-0.00047921,-0.000
 37598,-0.00013440,0.00048567,0.00069571,-0.00027015,0.00041103,-0.0001
 4892,0.00033041,0.00013505,-0.00009520,0.00008210,-0.00012790,-0.00017
 637,-0.00000844,-0.00031704,-0.00002954,-0.00002563,0.00010074,-0.0026
 4384,-0.00162806,0.00450617,-0.00071367,-0.00003723,0.00004018,0.00003
 454,0.00015381,-0.00055873,-0.00690684,-0.00041358,-0.00137021,0.00293
 883,-0.00062112,-0.00324940,-0.00612657,0.01761592,0.00664577,-0.01455
 449,0.01945810,0.00028101,0.02589918,-0.00226560,-0.00325508,0.0013320
 2,0.00029548,-0.00025513,0.00023587,-0.00005921,0.00018160,-0.00020977
 ,-0.00045221,0.00027248,0.00098001,0.00027990,-0.00039699,-0.00022643,
 0.00000108,-0.00009101,0.00003039,-0.00003532,0.00008972,0.00015040,-0
 .00001057,-0.00002495,-0.00034095,0.00108543,0.00576758,0.00229411,-0.
 00065755,-0.00002296,-0.00012385,-0.00133142,-0.00151947,0.00050195,-0
 .00173280,-0.00745235,0.00059430,-0.00098510,-0.00041297,0.00008944,0.
 00826375,-0.02673958,-0.00918218,0.02953126,-0.26384747,-0.18208107,-0
 .03192710,0.29770660,-0.00459175,0.00410868,0.00467541,0.00057310,0.00
 001287,-0.00032865,0.00141386,0.00024109,-0.00128693,-0.00066808,-0.00
 084110,0.00005379,0.00048172,-0.00039748,-0.00043620,0.00000394,-0.000
 18284,0.00023011,-0.00000755,0.00022068,0.00008210,-0.00002025,-0.0000
 0437,-0.00027083,0.00704267,0.00659719,-0.00352512,-0.00066131,-0.0004
 4772,-0.00003510,-0.00119099,-0.00140831,0.00089963,-0.00580044,0.0001
 2836,0.00185784,-0.00104987,-0.00124462,-0.00125333,-0.00546303,0.0391
 6644,0.00572800,0.01467284,-0.23190462,-0.23375984,-0.00473485,0.18595
 575,0.22736911\\0.00001111,0.00000014,-0.00000089,0.00001642,0.0000031
 4,-0.00001096,0.00000553,0.00000116,-0.00000076,-0.00000218,0.00000187
 ,-0.00000474,-0.00001743,-0.00000439,0.00000318,-0.00002036,-0.0000038
 8,0.00000024,-0.00001852,-0.00000321,0.00001375,-0.00002587,-0.0000059
 2,-0.00000098,-0.00000309,0.00000094,-0.00000760,0.00000667,0.00000179
 ,-0.00001615,-0.00001072,-0.00000218,-0.00001385,0.00000394,-0.0000004
 9,0.00000332,-0.00000517,-0.00000065,0.00000938,0.00001447,0.00000207,
 0.00001037,0.00002658,0.00000633,0.00000771,0.00001862,0.00000328,0.00
 000799\\\@


 SUCCESS IS NEVER CERTAIN,
 FAILURE IS NEVER FINAL.
 Job cpu time:  0 days  2 hours 13 minutes 51.1 seconds.
 File lengths (MBytes):  RWF=    125 Int=      0 D2E=      0 Chk=      8 Scr=      1
 Normal termination of Gaussian 03 at Tue Jun 18 12:08:02 2013.
