 Entering Gaussian System, Link 0=g03
 Input=p08freq.gjf
 Output=p08freq.log
 Initial command:
 /opt/g03/l1.exe /scratch/nyee/Gau-17970.inp -scrdir=/scratch/nyee/
 Entering Link 1 = /opt/g03/l1.exe PID=     17972.
  
 Copyright (c) 1988,1990,1992,1993,1995,1998,2003,2004, Gaussian, Inc.
                  All Rights Reserved.
  
 This is the Gaussian(R) 03 program.  It is based on the
 the Gaussian(R) 98 system (copyright 1998, Gaussian, Inc.),
 the Gaussian(R) 94 system (copyright 1995, Gaussian, Inc.),
 the Gaussian 92(TM) system (copyright 1992, Gaussian, Inc.),
 the Gaussian 90(TM) system (copyright 1990, Gaussian, Inc.),
 the Gaussian 88(TM) system (copyright 1988, Gaussian, Inc.),
 the Gaussian 86(TM) system (copyright 1986, Carnegie Mellon
 University), and the Gaussian 82(TM) system (copyright 1983,
 Carnegie Mellon University). Gaussian is a federally registered
 trademark of Gaussian, Inc.
  
 This software contains proprietary and confidential information,
 including trade secrets, belonging to Gaussian, Inc.
  
 This software is provided under written license and may be
 used, copied, transmitted, or stored only in accord with that
 written license.
  
 The following legend is applicable only to US Government
 contracts under FAR:
  
                    RESTRICTED RIGHTS LEGEND
  
 Use, reproduction and disclosure by the US Government is
 subject to restrictions as set forth in subparagraphs (a)
 and (c) of the Commercial Computer Software - Restricted
 Rights clause in FAR 52.227-19.
  
 Gaussian, Inc.
 340 Quinnipiac St., Bldg. 40, Wallingford CT 06492
  
  
 ---------------------------------------------------------------
 Warning -- This program may not be used in any manner that
 competes with the business of Gaussian, Inc. or will provide
 assistance to any competitor of Gaussian, Inc.  The licensee
 of this program is prohibited from giving any competitor of
 Gaussian, Inc. access to this program.  By using this program,
 the user acknowledges that Gaussian, Inc. is engaged in the
 business of creating and licensing software in the field of
 computational chemistry and represents and warrants to the
 licensee that it is not a competitor of Gaussian, Inc. and that
 it will not use this program in any manner prohibited above.
 ---------------------------------------------------------------
  

 Cite this work as:
 Gaussian 03, Revision D.01,
 M. J. Frisch, G. W. Trucks, H. B. Schlegel, G. E. Scuseria, 
 M. A. Robb, J. R. Cheeseman, J. A. Montgomery, Jr., T. Vreven, 
 K. N. Kudin, J. C. Burant, J. M. Millam, S. S. Iyengar, J. Tomasi, 
 V. Barone, B. Mennucci, M. Cossi, G. Scalmani, N. Rega, 
 G. A. Petersson, H. Nakatsuji, M. Hada, M. Ehara, K. Toyota, 
 R. Fukuda, J. Hasegawa, M. Ishida, T. Nakajima, Y. Honda, O. Kitao, 
 H. Nakai, M. Klene, X. Li, J. E. Knox, H. P. Hratchian, J. B. Cross, 
 V. Bakken, C. Adamo, J. Jaramillo, R. Gomperts, R. E. Stratmann, 
 O. Yazyev, A. J. Austin, R. Cammi, C. Pomelli, J. W. Ochterski, 
 P. Y. Ayala, K. Morokuma, G. A. Voth, P. Salvador, J. J. Dannenberg, 
 V. G. Zakrzewski, S. Dapprich, A. D. Daniels, M. C. Strain, 
 O. Farkas, D. K. Malick, A. D. Rabuck, K. Raghavachari, 
 J. B. Foresman, J. V. Ortiz, Q. Cui, A. G. Baboul, S. Clifford, 
 J. Cioslowski, B. B. Stefanov, G. Liu, A. Liashenko, P. Piskorz, 
 I. Komaromi, R. L. Martin, D. J. Fox, T. Keith, M. A. Al-Laham, 
 C. Y. Peng, A. Nanayakkara, M. Challacombe, P. M. W. Gill, 
 B. Johnson, W. Chen, M. W. Wong, C. Gonzalez, and J. A. Pople, 
 Gaussian, Inc., Wallingford CT, 2004.
 
 ******************************************
 Gaussian 03:  AM64L-G03RevD.01 13-Oct-2005
                20-Jun-2014 
 ******************************************
 %chk=p08.chk
 %mem=1000mb
 %nproc=8
 Will use up to    8 processors via shared memory.
 -------------------------------------
 # freq nosymm b3lyp/cbsb7 iop(7/33=1)
 -------------------------------------
 1/10=4,30=1,38=1/1,3;
 2/15=1,17=6,18=5,40=1/2;
 3/5=4,6=6,7=700,11=2,16=1,25=1,30=1,74=-5/1,2,3;
 4//1;
 5/5=2,38=5/2;
 8/6=4,10=90,11=11/1;
 11/6=1,8=1,9=11,15=111,16=1,31=1/1,2,10;
 10/6=1,31=1/2;
 6/7=2,8=2,9=2,10=2,18=1,28=1/1;
 7/8=1,10=1,25=1,30=1,33=1/1,2,3,16;
 1/10=4,30=1/3;
 99//99;
 -------------------
 Title Card Required
 -------------------
 Symbolic Z-matrix:
 Charge =  0 Multiplicity = 2
 O
 H                    1    B1
 C                    1    B2       2    A1
 H                    3    B3       1    A2       2    D1       0
 C                    3    B4       1    A3       2    D2       0
 H                    5    B5       3    A4       1    D3       0
 C                    5    B6       3    A5       1    D4       0
 H                    7    B7       5    A6       3    D5       0
 H                    7    B8       5    A7       3    D6       0
 H                    7    B9       5    A8       3    D7       0
 C                    5    B10      3    A9       1    D8       0
 H                    11   B11      5    A10      3    D9       0
 H                    11   B12      5    A11      3    D10      0
 H                    11   B13      5    A12      3    D11      0
       Variables:
  B1                    0.96864                  
  B2                    1.37879                  
  B3                    1.09339                  
  B4                    1.49656                  
  B5                    1.10082                  
  B6                    1.54665                  
  B7                    1.09732                  
  B8                    1.09448                  
  B9                    1.09745                  
  B10                   1.5361                   
  B11                   1.09546                  
  B12                   1.09578                  
  B13                   1.09798                  
  A1                  108.82209                  
  A2                  116.2702                   
  A3                  114.39721                  
  A4                  107.1618                   
  A5                  112.0756                   
  A6                  111.00839                  
  A7                  110.64053                  
  A8                  110.73596                  
  A9                  110.3565                   
  A10                 111.32417                  
  A11                 110.90792                  
  A12                 110.90278                  
  D1                  -27.45486                  
  D2                 -173.26405                  
  D3                  -50.95483                  
  D4                   66.49304                  
  D5                 -175.65353                  
  D6                  -55.32652                  
  D7                   64.50135                  
  D8                 -168.8541                   
  D9                   57.90124                  
  D10                 178.4896                   
  D11                 -62.1611                   
 

 GradGradGradGradGradGradGradGradGradGradGradGradGradGradGradGradGradGrad
 Berny optimization.
 Initialization pass.
                       ----------------------------
                       !    Initial Parameters    !
                       ! (Angstroms and Degrees)  !
 ----------------------                            ----------------------
 !      Name          Value   Derivative information (Atomic Units)     !
 ------------------------------------------------------------------------
 !       B1          0.9686   calculate D2E/DX2 analytically            !
 !       B2          1.3788   calculate D2E/DX2 analytically            !
 !       B3          1.0934   calculate D2E/DX2 analytically            !
 !       B4          1.4966   calculate D2E/DX2 analytically            !
 !       B5          1.1008   calculate D2E/DX2 analytically            !
 !       B6          1.5467   calculate D2E/DX2 analytically            !
 !       B7          1.0973   calculate D2E/DX2 analytically            !
 !       B8          1.0945   calculate D2E/DX2 analytically            !
 !       B9          1.0975   calculate D2E/DX2 analytically            !
 !       B10         1.5361   calculate D2E/DX2 analytically            !
 !       B11         1.0955   calculate D2E/DX2 analytically            !
 !       B12         1.0958   calculate D2E/DX2 analytically            !
 !       B13         1.098    calculate D2E/DX2 analytically            !
 !       A1        108.8221   calculate D2E/DX2 analytically            !
 !       A2        116.2702   calculate D2E/DX2 analytically            !
 !       A3        114.3972   calculate D2E/DX2 analytically            !
 !       A4        107.1618   calculate D2E/DX2 analytically            !
 !       A5        112.0756   calculate D2E/DX2 analytically            !
 !       A6        111.0084   calculate D2E/DX2 analytically            !
 !       A7        110.6405   calculate D2E/DX2 analytically            !
 !       A8        110.736    calculate D2E/DX2 analytically            !
 !       A9        110.3565   calculate D2E/DX2 analytically            !
 !       A10       111.3242   calculate D2E/DX2 analytically            !
 !       A11       110.9079   calculate D2E/DX2 analytically            !
 !       A12       110.9028   calculate D2E/DX2 analytically            !
 !       D1        -27.4549   calculate D2E/DX2 analytically            !
 !       D2       -173.264    calculate D2E/DX2 analytically            !
 !       D3        -50.9548   calculate D2E/DX2 analytically            !
 !       D4         66.493    calculate D2E/DX2 analytically            !
 !       D5       -175.6535   calculate D2E/DX2 analytically            !
 !       D6        -55.3265   calculate D2E/DX2 analytically            !
 !       D7         64.5013   calculate D2E/DX2 analytically            !
 !       D8       -168.8541   calculate D2E/DX2 analytically            !
 !       D9         57.9012   calculate D2E/DX2 analytically            !
 !       D10       178.4896   calculate D2E/DX2 analytically            !
 !       D11       -62.1611   calculate D2E/DX2 analytically            !
 ------------------------------------------------------------------------
 Trust Radius=3.00D-01 FncErr=1.00D-07 GrdErr=1.00D-07
 Number of steps in this run=   2 maximum allowed number of steps=   2.
 GradGradGradGradGradGradGradGradGradGradGradGradGradGradGradGradGradGrad

                          Input orientation:                          
 ---------------------------------------------------------------------
 Center     Atomic     Atomic              Coordinates (Angstroms)
 Number     Number      Type              X           Y           Z
 ---------------------------------------------------------------------
    1          8             0        0.000000    0.000000    0.000000
    2          1             0        0.000000    0.000000    0.968644
    3          6             0        1.305062    0.000000   -0.444841
    4          1             0        2.043820    0.452039    0.222533
    5          6             0        1.453489    0.159863   -1.925418
    6          1             0        0.795966   -0.584588   -2.400043
    7          6             0        0.992434    1.554901   -2.408565
    8          1             0        1.036009    1.626524   -3.502675
    9          1             0       -0.036162    1.752643   -2.091100
   10          1             0        1.634591    2.341865   -1.992962
   11          6             0        2.900966   -0.127991   -2.351506
   12          1             0        3.210303   -1.136332   -2.055563
   13          1             0        3.013749   -0.039573   -3.437870
   14          1             0        3.594926    0.585985   -1.888657
 ---------------------------------------------------------------------
                    Distance matrix (angstroms):
                    1          2          3          4          5
     1  O    0.000000
     2  H    0.968644   0.000000
     3  C    1.378793   1.923831   0.000000
     4  H    2.105009   2.222211   1.093386   0.000000
     5  C    2.417730   3.242496   1.496561   2.246676   0.000000
     6  H    2.595286   3.510464   2.103268   3.083771   1.100823
     7  C    3.033781   3.848140   2.524216   3.040460   1.546653
     8  H    3.998453   4.869455   3.473949   4.033891   2.193884
     9  H    2.728692   3.526343   2.753326   3.372060   2.187112
    10  H    3.482545   4.114284   2.826588   2.940634   2.190546
    11  C    3.736518   4.410826   2.489712   2.774313   1.536099
    12  H    3.977768   4.554462   2.741463   3.012197   2.187111
    13  H    4.572002   5.338690   3.446651   3.818507   2.182131
    14  H    4.102913   4.629367   2.769740   2.623165   2.183732
                    6          7          8          9         10
     6  H    0.000000
     7  C    2.148507   0.000000
     8  H    2.482425   1.097317   0.000000
     9  H    2.500105   1.094484   1.777077   0.000000
    10  H    3.071340   1.097453   1.774611   1.774325   0.000000
    11  C    2.154499   2.545168   2.807415   3.497330   2.798651
    12  H    2.500423   3.505180   3.801981   4.345914   3.818984
    13  H    2.508523   2.772640   2.586800   3.785206   3.108228
    14  H    3.076676   2.825255   3.199349   3.819276   2.633801
                   11         12         13         14
    11  C    0.000000
    12  H    1.095455   0.000000
    13  H    1.095775   1.775467   0.000000
    14  H    1.097985   1.772616   1.768940   0.000000
 Symmetry turned off by external request.
 Stoichiometry    C4H9O(2)
 Framework group  C1[X(C4H9O)]
 Deg. of freedom    36
 Full point group                 C1
 Rotational constants (GHZ):      7.7880920      3.5150874      2.6730429
 Standard basis: CBSB7 (5D, 7F)
 Integral buffers will be    131072 words long.
 Raffenetti 2 integral format.
 Two-electron integral symmetry is turned off.
   144 basis functions,   232 primitive gaussians,   149 cartesian basis functions
    21 alpha electrons       20 beta electrons
       nuclear repulsion energy       182.6276667126 Hartrees.
 NAtoms=   14 NActive=   14 NUniq=   14 SFac= 7.50D-01 NAtFMM=   80 NAOKFM=F Big=F
 One-electron integrals computed using PRISM.
 NBasis=   144 RedAO= T  NBF=   144
 NBsUse=   144 1.00D-06 NBFU=   144
 Harris functional with IExCor=  402 diagonalized for initial guess.
 ExpMin= 1.03D-01 ExpMax= 8.59D+03 ExpMxC= 1.30D+03 IAcc=1 IRadAn=         1 AccDes= 1.00D-06
 HarFok:  IExCor= 402 AccDes= 1.00D-06 IRadAn=         1 IDoV=1
 ScaDFX=  1.000000  1.000000  1.000000  1.000000
 <S**2> of initial guess= 0.7500
 Requested convergence on RMS density matrix=1.00D-08 within 128 cycles.
 Requested convergence on MAX density matrix=1.00D-06.
 Requested convergence on             energy=1.00D-06.
 No special actions if energy rises.
 Keep R1 and R2 integrals in memory in canonical form, NReq=   127613997.
 PrsmSu:  requested number of processors reduced to:   6 ShMem   1 Linda.
 Integral accuracy reduced to 1.0D-05 until final iterations.
 CalDSu:  requested number of processors reduced to:   5 ShMem   1 Linda.
 CalDSu:  requested number of processors reduced to:   5 ShMem   1 Linda.
 CalDSu:  requested number of processors reduced to:   5 ShMem   1 Linda.
 CalDSu:  requested number of processors reduced to:   5 ShMem   1 Linda.
 CalDSu:  requested number of processors reduced to:   5 ShMem   1 Linda.
 CalDSu:  requested number of processors reduced to:   5 ShMem   1 Linda.
 CalDSu:  requested number of processors reduced to:   5 ShMem   1 Linda.
 Initial convergence to 1.0D-05 achieved.  Increase integral accuracy.
 CalDSu:  requested number of processors reduced to:   5 ShMem   1 Linda.
 CalDSu:  requested number of processors reduced to:   5 ShMem   1 Linda.
 CalDSu:  requested number of processors reduced to:   5 ShMem   1 Linda.
 CalDSu:  requested number of processors reduced to:   5 ShMem   1 Linda.
 CalDSu:  requested number of processors reduced to:   5 ShMem   1 Linda.
 CalDSu:  requested number of processors reduced to:   5 ShMem   1 Linda.
 CalDSu:  requested number of processors reduced to:   5 ShMem   1 Linda.
 SCF Done:  E(UB+HF-LYP) =  -233.078526173     A.U. after   14 cycles
             Convg  =    0.7854D-08             -V/T =  2.0043
             S**2   =   0.7532
 Annihilation of the first spin contaminant:
 S**2 before annihilation     0.7532,   after     0.7500
 Range of M.O.s used for correlation:     1   144
 NBasis=   144 NAE=    21 NBE=    20 NFC=     0 NFV=     0
 NROrb=    144 NOA=    21 NOB=    20 NVA=   123 NVB=   124
 Symmetrizing basis deriv contribution to polar:
 IMax=3 JMax=2 DiffMx= 0.00D+00
 G2DrvN: will do   15 centers at a time, making    1 passes doing MaxLOS=2.
 FoFDir/FoFCou used for L=0 through L=2.
 DoAtom=TTTTTTTTTTTTTT
          Differentiating once with respect to electric field.
                with respect to dipole field.
          Differentiating once with respect to nuclear coordinates.
          Store integrals in memory, NReq=   125716039.
 PrsmSu:  requested number of processors reduced to:   7 ShMem   1 Linda.
 CalDSu:  requested number of processors reduced to:   2 ShMem   1 Linda.
          There are  45 degrees of freedom in the 1st order CPHF.
    42 vectors were produced by pass  0.
 AX will form  42 AO Fock derivatives at one time.
 CalDSu:  requested number of processors reduced to:   2 ShMem   1 Linda.
    42 vectors were produced by pass  1.
 CalDSu:  requested number of processors reduced to:   2 ShMem   1 Linda.
    42 vectors were produced by pass  2.
 CalDSu:  requested number of processors reduced to:   2 ShMem   1 Linda.
    42 vectors were produced by pass  3.
 CalDSu:  requested number of processors reduced to:   2 ShMem   1 Linda.
    42 vectors were produced by pass  4.
 CalDSu:  requested number of processors reduced to:   2 ShMem   1 Linda.
    42 vectors were produced by pass  5.
 CalDSu:  requested number of processors reduced to:   2 ShMem   1 Linda.
    18 vectors were produced by pass  6.
 CalDSu:  requested number of processors reduced to:   3 ShMem   1 Linda.
     3 vectors were produced by pass  7.
 CalDSu:  requested number of processors reduced to:   3 ShMem   1 Linda.
     1 vectors were produced by pass  8.
 CalDSu:  requested number of processors reduced to:   4 ShMem   1 Linda.
 Inv2:  IOpt= 1 Iter= 1 AM= 2.88D-15 Conv= 1.00D-12.
 Inverted reduced A of dimension  274 with in-core refinement.
 CalDSu:  requested number of processors reduced to:   2 ShMem   1 Linda.
 Isotropic polarizability for W=    0.000000       51.32 Bohr**3.
 End of Minotr Frequency-dependent properties file   721 does not exist.

 **********************************************************************

            Population analysis using the SCF density.

 **********************************************************************

 Alpha  occ. eigenvalues --  -19.14508 -10.20866 -10.17415 -10.15751 -10.15474
 Alpha  occ. eigenvalues --   -1.05168  -0.79939  -0.68170  -0.66590  -0.56128
 Alpha  occ. eigenvalues --   -0.53296  -0.45610  -0.43837  -0.41452  -0.38538
 Alpha  occ. eigenvalues --   -0.38286  -0.37099  -0.34023  -0.33520  -0.32785
 Alpha  occ. eigenvalues --   -0.16791
 Alpha virt. eigenvalues --    0.03028   0.05208   0.07639   0.09334   0.11008
 Alpha virt. eigenvalues --    0.11904   0.12905   0.14316   0.15078   0.19866
 Alpha virt. eigenvalues --    0.22030   0.22629   0.24924   0.29263   0.31382
 Alpha virt. eigenvalues --    0.32849   0.37453   0.38258   0.39996   0.43840
 Alpha virt. eigenvalues --    0.44345   0.47323   0.50249   0.52431   0.56062
 Alpha virt. eigenvalues --    0.57375   0.58213   0.58957   0.59526   0.60767
 Alpha virt. eigenvalues --    0.61434   0.62753   0.64361   0.64813   0.68717
 Alpha virt. eigenvalues --    0.82577   0.84356   0.86878   0.93125   0.95833
 Alpha virt. eigenvalues --    0.98093   1.04055   1.11626   1.18815   1.22092
 Alpha virt. eigenvalues --    1.23866   1.32598   1.33894   1.36747   1.40682
 Alpha virt. eigenvalues --    1.42843   1.46149   1.46466   1.49705   1.50878
 Alpha virt. eigenvalues --    1.51766   1.54358   1.54936   1.57060   1.60769
 Alpha virt. eigenvalues --    1.63242   1.65650   1.67095   1.68976   1.74715
 Alpha virt. eigenvalues --    1.76620   1.78371   1.81008   1.89279   1.92160
 Alpha virt. eigenvalues --    1.95093   2.01211   2.03806   2.06870   2.07587
 Alpha virt. eigenvalues --    2.08816   2.14611   2.21672   2.25785   2.33474
 Alpha virt. eigenvalues --    2.36473   2.41569   2.43243   2.44041   2.46085
 Alpha virt. eigenvalues --    2.47774   2.50027   2.50906   2.51957   2.54657
 Alpha virt. eigenvalues --    2.58568   2.61012   2.64328   2.67880   2.72396
 Alpha virt. eigenvalues --    2.74641   2.81329   2.84635   2.86940   2.95015
 Alpha virt. eigenvalues --    3.05482   3.08533   3.16492   3.18075   3.32785
 Alpha virt. eigenvalues --    3.44183   3.74971   3.76873   3.79684   3.81301
 Alpha virt. eigenvalues --    3.82453   3.87412   4.00912   4.21347   4.28913
 Alpha virt. eigenvalues --    4.81943   5.25561   5.62464  23.70445  23.82146
 Alpha virt. eigenvalues --   23.92439  23.93107  49.86742
  Beta  occ. eigenvalues --  -19.14004 -10.19523 -10.17470 -10.15734 -10.15364
  Beta  occ. eigenvalues --   -1.04023  -0.79420  -0.68025  -0.64976  -0.55556
  Beta  occ. eigenvalues --   -0.52477  -0.45010  -0.43462  -0.40334  -0.38284
  Beta  occ. eigenvalues --   -0.37272  -0.35546  -0.33819  -0.32490  -0.32278
  Beta virt. eigenvalues --   -0.02622   0.03222   0.05272   0.07859   0.09570
  Beta virt. eigenvalues --    0.11120   0.12197   0.13074   0.14432   0.15196
  Beta virt. eigenvalues --    0.20178   0.22523   0.23195   0.25879   0.29716
  Beta virt. eigenvalues --    0.31718   0.33247   0.37685   0.38972   0.41522
  Beta virt. eigenvalues --    0.43962   0.45412   0.49044   0.51653   0.53469
  Beta virt. eigenvalues --    0.56531   0.57513   0.58318   0.59207   0.59805
  Beta virt. eigenvalues --    0.60950   0.61909   0.62932   0.64621   0.65107
  Beta virt. eigenvalues --    0.69481   0.83054   0.85248   0.87899   0.93669
  Beta virt. eigenvalues --    0.96299   0.98263   1.04612   1.11843   1.18936
  Beta virt. eigenvalues --    1.23421   1.24992   1.33052   1.34353   1.37120
  Beta virt. eigenvalues --    1.41479   1.43474   1.46219   1.46612   1.49964
  Beta virt. eigenvalues --    1.50972   1.52017   1.54841   1.56257   1.57771
  Beta virt. eigenvalues --    1.61388   1.63755   1.65871   1.67842   1.70136
  Beta virt. eigenvalues --    1.75400   1.77222   1.78807   1.81450   1.90598
  Beta virt. eigenvalues --    1.92538   1.95416   2.01619   2.04611   2.07674
  Beta virt. eigenvalues --    2.07811   2.09081   2.15013   2.21943   2.26060
  Beta virt. eigenvalues --    2.33608   2.36776   2.41819   2.43470   2.44368
  Beta virt. eigenvalues --    2.46260   2.47966   2.50113   2.51055   2.52167
  Beta virt. eigenvalues --    2.55309   2.58810   2.62337   2.64708   2.68083
  Beta virt. eigenvalues --    2.73012   2.76100   2.82153   2.85892   2.87063
  Beta virt. eigenvalues --    2.95817   3.06224   3.09013   3.18073   3.19755
  Beta virt. eigenvalues --    3.33358   3.44692   3.75369   3.76948   3.79956
  Beta virt. eigenvalues --    3.81384   3.82721   3.88216   4.01300   4.22085
  Beta virt. eigenvalues --    4.29016   4.84028   5.26194   5.63066  23.71820
  Beta virt. eigenvalues --   23.82161  23.92563  23.93185  49.87239
          Condensed to atoms (all electrons):
              1          2          3          4          5          6
     1  O    7.832498   0.308658   0.263674  -0.032126  -0.058664   0.005671
     2  H    0.308658   0.477815  -0.031947  -0.012644   0.009741  -0.000730
     3  C    0.263674  -0.031947   5.222153   0.369980   0.356712  -0.056081
     4  H   -0.032126  -0.012644   0.369980   0.630849  -0.053908   0.010812
     5  C   -0.058664   0.009741   0.356712  -0.053908   5.087404   0.402124
     6  H    0.005671  -0.000730  -0.056081   0.010812   0.402124   0.615930
     7  C    0.001276   0.000139  -0.084539  -0.006948   0.334704  -0.058352
     8  H   -0.000269   0.000044   0.009546  -0.000417  -0.029416  -0.006018
     9  H    0.012721  -0.000742  -0.010970   0.000379  -0.037175  -0.005856
    10  H   -0.000780  -0.000069  -0.000220   0.004037  -0.035731   0.010314
    11  C    0.002518  -0.000759  -0.057592   0.001975   0.336678  -0.033622
    12  H   -0.000207   0.000002   0.005359  -0.001742  -0.035647  -0.009034
    13  H   -0.000163   0.000043   0.008348  -0.000476  -0.033016  -0.007688
    14  H   -0.000082  -0.000013  -0.009235   0.005465  -0.033611   0.009582
              7          8          9         10         11         12
     1  O    0.001276  -0.000269   0.012721  -0.000780   0.002518  -0.000207
     2  H    0.000139   0.000044  -0.000742  -0.000069  -0.000759   0.000002
     3  C   -0.084539   0.009546  -0.010970  -0.000220  -0.057592   0.005359
     4  H   -0.006948  -0.000417   0.000379   0.004037   0.001975  -0.001742
     5  C    0.334704  -0.029416  -0.037175  -0.035731   0.336678  -0.035647
     6  H   -0.058352  -0.006018  -0.005856   0.010314  -0.033622  -0.009034
     7  C    4.957859   0.394447   0.406294   0.388690  -0.060888   0.010588
     8  H    0.394447   0.593093  -0.029190  -0.030134  -0.005713  -0.000320
     9  H    0.406294  -0.029190   0.568880  -0.030578   0.008865  -0.000368
    10  H    0.388690  -0.030134  -0.030578   0.604022  -0.006656  -0.000443
    11  C   -0.060888  -0.005713   0.008865  -0.006656   4.896610   0.399415
    12  H    0.010588  -0.000320  -0.000368  -0.000443   0.399415   0.580944
    13  H   -0.003459   0.003462   0.000054  -0.000891   0.403280  -0.026143
    14  H   -0.008612  -0.000383  -0.000274   0.005866   0.398262  -0.032135
             13         14
     1  O   -0.000163  -0.000082
     2  H    0.000043  -0.000013
     3  C    0.008348  -0.009235
     4  H   -0.000476   0.005465
     5  C   -0.033016  -0.033611
     6  H   -0.007688   0.009582
     7  C   -0.003459  -0.008612
     8  H    0.003462  -0.000383
     9  H    0.000054  -0.000274
    10  H   -0.000891   0.005866
    11  C    0.403280   0.398262
    12  H   -0.026143  -0.032135
    13  H    0.582265  -0.031531
    14  H   -0.031531   0.598641
 Mulliken atomic charges:
              1
     1  O   -0.334723
     2  H    0.250462
     3  C    0.014811
     4  H    0.084764
     5  C   -0.210195
     6  H    0.122948
     7  C   -0.271199
     8  H    0.101265
     9  H    0.117960
    10  H    0.092573
    11  C   -0.282373
    12  H    0.109733
    13  H    0.105916
    14  H    0.098058
 Sum of Mulliken charges=   0.00000
 Atomic charges with hydrogens summed into heavy atoms:
              1
     1  O   -0.084261
     2  H    0.000000
     3  C    0.099576
     4  H    0.000000
     5  C   -0.087247
     6  H    0.000000
     7  C    0.040600
     8  H    0.000000
     9  H    0.000000
    10  H    0.000000
    11  C    0.031333
    12  H    0.000000
    13  H    0.000000
    14  H    0.000000
 Sum of Mulliken charges=   0.00000
          Atomic-Atomic Spin Densities.
              1          2          3          4          5          6
     1  O    0.261818   0.001726  -0.143551   0.000118   0.000276   0.001834
     2  H    0.001726  -0.004579  -0.000431  -0.000235  -0.000475  -0.000166
     3  C   -0.143551  -0.000431   1.109115  -0.022328  -0.008017  -0.018310
     4  H    0.000118  -0.000235  -0.022328  -0.007436   0.009993   0.002285
     5  C    0.000276  -0.000475  -0.008017   0.009993  -0.034216   0.006589
     6  H    0.001834  -0.000166  -0.018310   0.002285   0.006589   0.044019
     7  C    0.005250   0.000280  -0.040159  -0.007477  -0.024807  -0.022980
     8  H   -0.000260  -0.000012   0.002256   0.000335   0.002595   0.003782
     9  H    0.002139   0.000081  -0.006422  -0.000788   0.000167  -0.002730
    10  H   -0.000866  -0.000038   0.006114   0.001450   0.003933   0.001446
    11  C    0.000330   0.000001  -0.012497  -0.001011   0.003543   0.002923
    12  H   -0.000280   0.000028   0.011196  -0.001631  -0.004498  -0.003687
    13  H    0.000000   0.000000   0.000385  -0.000181  -0.000854  -0.001007
    14  H   -0.000006  -0.000010  -0.001310   0.001248   0.003638   0.000804
              7          8          9         10         11         12
     1  O    0.005250  -0.000260   0.002139  -0.000866   0.000330  -0.000280
     2  H    0.000280  -0.000012   0.000081  -0.000038   0.000001   0.000028
     3  C   -0.040159   0.002256  -0.006422   0.006114  -0.012497   0.011196
     4  H   -0.007477   0.000335  -0.000788   0.001450  -0.001011  -0.001631
     5  C   -0.024807   0.002595   0.000167   0.003933   0.003543  -0.004498
     6  H   -0.022980   0.003782  -0.002730   0.001446   0.002923  -0.003687
     7  C    0.135600  -0.011082   0.007370  -0.012391   0.005985   0.003021
     8  H   -0.011082   0.012438  -0.002953   0.003213  -0.000917  -0.000372
     9  H    0.007370  -0.002953   0.000847  -0.001732   0.000186   0.000142
    10  H   -0.012391   0.003213  -0.001732   0.002101  -0.001052  -0.000326
    11  C    0.005985  -0.000917   0.000186  -0.001052   0.011387  -0.003147
    12  H    0.003021  -0.000372   0.000142  -0.000326  -0.003147   0.004305
    13  H    0.002033  -0.000708   0.000088  -0.000200  -0.000559   0.001459
    14  H   -0.003208   0.000420  -0.000129   0.000583  -0.001299  -0.001499
             13         14
     1  O    0.000000  -0.000006
     2  H    0.000000  -0.000010
     3  C    0.000385  -0.001310
     4  H   -0.000181   0.001248
     5  C   -0.000854   0.003638
     6  H   -0.001007   0.000804
     7  C    0.002033  -0.003208
     8  H   -0.000708   0.000420
     9  H    0.000088  -0.000129
    10  H   -0.000200   0.000583
    11  C   -0.000559  -0.001299
    12  H    0.001459  -0.001499
    13  H   -0.000513  -0.000404
    14  H   -0.000404   0.000627
 Mulliken atomic spin densities:
              1
     1  O    0.128527
     2  H   -0.003830
     3  C    0.876041
     4  H   -0.025658
     5  C   -0.042132
     6  H    0.014802
     7  C    0.037435
     8  H    0.008733
     9  H   -0.003734
    10  H    0.002236
    11  C    0.003872
    12  H    0.004711
    13  H   -0.000461
    14  H   -0.000545
 Sum of Mulliken spin densities=   1.00000
 APT atomic charges:
              1
     1  O   -0.602574
     2  H    0.272642
     3  C    0.316956
     4  H   -0.023927
     5  C    0.113374
     6  H   -0.055972
     7  C    0.047545
     8  H   -0.039360
     9  H   -0.010042
    10  H   -0.025883
    11  C    0.076440
    12  H   -0.020338
    13  H   -0.023171
    14  H   -0.025690
 Sum of APT charges=   0.00000
 APT Atomic charges with hydrogens summed into heavy atoms:
              1
     1  O   -0.329933
     2  H    0.000000
     3  C    0.293030
     4  H    0.000000
     5  C    0.057403
     6  H    0.000000
     7  C   -0.027740
     8  H    0.000000
     9  H    0.000000
    10  H    0.000000
    11  C    0.007241
    12  H    0.000000
    13  H    0.000000
    14  H    0.000000
 Sum of APT charges=   0.00000
 Electronic spatial extent (au):  <R**2>=  1096.3157
 Charge=     0.0000 electrons
 Dipole moment (field-independent basis, Debye):
    X=     0.4658    Y=     0.3597    Z=     1.1888  Tot=     1.3265
 Quadrupole moment (field-independent basis, Debye-Ang):
   XX=   -33.3288   YY=   -34.1447   ZZ=   -30.0422
   XY=     0.7759   XZ=    -0.2418   YZ=     0.4058
 Traceless Quadrupole moment (field-independent basis, Debye-Ang):
   XX=    -0.8236   YY=    -1.6395   ZZ=     2.4630
   XY=     0.7759   XZ=    -0.2418   YZ=     0.4058
 Octapole moment (field-independent basis, Debye-Ang**2):
  XXX=  -142.9505  YYY=   -38.2020  ZZZ=   148.8158  XYY=   -47.5763
  XXY=   -10.1699  XXZ=    51.6341  XZZ=   -46.1920  YZZ=   -13.3200
  YYZ=    51.5756  XYZ=     0.4426
 Hexadecapole moment (field-independent basis, Debye-Ang**3):
 XXXX=  -658.2843 YYYY=  -181.7661 ZZZZ=  -710.7503 XXXY=   -26.8788
 XXXZ=   282.4652 YYYX=   -33.0655 YYYZ=    91.1671 ZZZX=   268.0395
 ZZZY=    87.8125 XXYY=  -136.3016 XXZZ=  -232.9563 YYZZ=  -156.6965
 XXYZ=    29.1820 YYXZ=    92.6836 ZZXY=   -11.1259
 N-N= 1.826276667126D+02 E-N=-9.086911797433D+02  KE= 2.320782344046D+02
  Exact polarizability:  52.430  -1.448  46.260  -3.580  -2.082  55.267
 Approx polarizability:  70.067   0.979  61.983  -1.577  -0.725  71.803
                          Isotropic Fermi Contact Couplings
        Atom                 a.u.       MegaHertz       Gauss      10(-4) cm-1
     1  O(17)              0.02433     -14.74853      -5.26264      -4.91958
     2  H(1)              -0.00217      -9.70247      -3.46208      -3.23640
     3  C(13)              0.15435     173.51673      61.91508      57.87895
     4  H(1)              -0.00428     -19.14952      -6.83302      -6.38759
     5  C(13)             -0.01449     -16.28428      -5.81064      -5.43185
     6  H(1)               0.00660      29.48876      10.52232       9.83639
     7  C(13)              0.04751      53.40770      19.05719      17.81489
     8  H(1)               0.00283      12.64359       4.51155       4.21745
     9  H(1)              -0.00074      -3.29758      -1.17666      -1.09995
    10  H(1)              -0.00061      -2.70441      -0.96500      -0.90209
    11  C(13)              0.00682       7.67145       2.73736       2.55892
    12  H(1)              -0.00019      -0.86358      -0.30815      -0.28806
    13  H(1)              -0.00017      -0.75494      -0.26938      -0.25182
    14  H(1)              -0.00030      -1.34138      -0.47864      -0.44744
 --------------------------------------------------------
       Center         ----  Spin Dipole Couplings  ----
                      3XX-RR        3YY-RR        3ZZ-RR
 --------------------------------------------------------
     1   Atom       -0.387292      0.796537     -0.409244
     2   Atom       -0.018905     -0.018424      0.037330
     3   Atom       -0.468293      0.969291     -0.500998
     4   Atom        0.000016      0.010156     -0.010172
     5   Atom       -0.015165     -0.008113      0.023277
     6   Atom       -0.008129     -0.008726      0.016856
     7   Atom       -0.018433      0.029525     -0.011092
     8   Atom       -0.005143     -0.001805      0.006949
     9   Atom        0.001105     -0.000356     -0.000749
    10   Atom       -0.006930      0.009077     -0.002147
    11   Atom        0.002737     -0.006531      0.003794
    12   Atom        0.002849     -0.004380      0.001531
    13   Atom       -0.000967     -0.002946      0.003914
    14   Atom        0.005141     -0.003941     -0.001200
 --------------------------------------------------------
                        XY            XZ            YZ
 --------------------------------------------------------
     1   Atom       -0.265037      0.009415     -0.064311
     2   Atom       -0.004904     -0.014835      0.006540
     3   Atom       -0.306131      0.040281     -0.180586
     4   Atom        0.021304      0.057893      0.020632
     5   Atom       -0.000360     -0.001349     -0.013906
     6   Atom        0.000275      0.006700      0.004244
     7   Atom       -0.029033      0.015984     -0.036645
     8   Atom       -0.001372      0.000254     -0.003751
     9   Atom       -0.006734      0.002661     -0.006447
    10   Atom        0.003939      0.000060     -0.004923
    11   Atom        0.004867     -0.013412     -0.004059
    12   Atom       -0.005106     -0.008894      0.002924
    13   Atom       -0.000060     -0.004104     -0.000145
    14   Atom        0.003244     -0.006526     -0.002118
 --------------------------------------------------------


 ---------------------------------------------------------------------------------
              Anisotropic Spin Dipole Couplings in Principal Axis System
 ---------------------------------------------------------------------------------

       Atom             a.u.   MegaHertz   Gauss  10(-4) cm-1        Axes

              Baa    -0.4445    32.162    11.476    10.728  0.9681  0.2135  0.1311
     1 O(17)  Bbb    -0.4120    29.813    10.638     9.944 -0.1389  0.0222  0.9901
              Bcc     0.8565   -61.975   -22.114   -20.673 -0.2085  0.9767 -0.0512
 
              Baa    -0.0245   -13.084    -4.669    -4.364  0.8418  0.5194  0.1470
     2 H(1)   Bbb    -0.0174    -9.296    -3.317    -3.101 -0.4813  0.8455 -0.2314
              Bcc     0.0419    22.379     7.986     7.465 -0.2445  0.1240  0.9617
 
              Baa    -0.5320   -71.390   -25.474   -23.813  0.9269  0.1475 -0.3452
     3 C(13)  Bbb    -0.5218   -70.017   -24.984   -23.355  0.3184  0.1781  0.9311
              Bcc     1.0538   141.407    50.457    47.168 -0.1988  0.9729 -0.1182
 
              Baa    -0.0632   -33.723   -12.033   -11.249 -0.6730 -0.0125  0.7395
     4 H(1)   Bbb    -0.0050    -2.657    -0.948    -0.886 -0.3440  0.8904 -0.2980
              Bcc     0.0682    36.380    12.981    12.135  0.6548  0.4550  0.6036
 
              Baa    -0.0155    -2.081    -0.743    -0.694  0.9332  0.3269  0.1496
     5 C(13)  Bbb    -0.0131    -1.754    -0.626    -0.585 -0.3585  0.8763  0.3219
              Bcc     0.0286     3.835     1.369     1.279 -0.0259 -0.3540  0.9349
 
              Baa    -0.0104    -5.536    -1.976    -1.847  0.7580  0.5898 -0.2784
     6 H(1)   Bbb    -0.0088    -4.690    -1.674    -1.564 -0.6076  0.7938  0.0274
              Bcc     0.0192    10.226     3.649     3.411  0.2372  0.1484  0.9601
 
              Baa    -0.0332    -4.456    -1.590    -1.486  0.4721  0.5972  0.6484
     7 C(13)  Bbb    -0.0312    -4.181    -1.492    -1.395  0.7995  0.0199 -0.6004
              Bcc     0.0644     8.638     3.082     2.881 -0.3715  0.8018 -0.4681
 
              Baa    -0.0057    -3.064    -1.093    -1.022  0.9041  0.4144  0.1044
     8 H(1)   Bbb    -0.0026    -1.404    -0.501    -0.468 -0.4240  0.8394  0.3400
              Bcc     0.0084     4.468     1.594     1.490  0.0533 -0.3516  0.9346
 
              Baa    -0.0082    -4.401    -1.570    -1.468  0.4018  0.7600  0.5108
     9 H(1)   Bbb    -0.0025    -1.335    -0.476    -0.445  0.7045  0.0998 -0.7026
              Bcc     0.0108     5.736     2.047     1.913 -0.5850  0.6422 -0.4954
 
              Baa    -0.0081    -4.342    -1.549    -1.448  0.9290 -0.2813 -0.2405
    10 H(1)   Bbb    -0.0035    -1.878    -0.670    -0.626  0.3147  0.2585  0.9133
              Bcc     0.0117     6.220     2.220     2.075  0.1948  0.9241 -0.3287
 
              Baa    -0.0104    -1.390    -0.496    -0.464  0.7355 -0.2818  0.6161
    11 C(13)  Bbb    -0.0079    -1.064    -0.379    -0.355  0.0440  0.9274  0.3716
              Bcc     0.0183     2.454     0.876     0.819 -0.6761 -0.2462  0.6945
 
              Baa    -0.0078    -4.156    -1.483    -1.386  0.6590  0.6124  0.4367
    12 H(1)   Bbb    -0.0052    -2.784    -0.993    -0.929 -0.2487  0.7253 -0.6420
              Bcc     0.0130     6.940     2.476     2.315  0.7099 -0.3145 -0.6302
 
              Baa    -0.0033    -1.782    -0.636    -0.594  0.8276  0.3003  0.4742
    13 H(1)   Bbb    -0.0029    -1.552    -0.554    -0.518 -0.2660  0.9538 -0.1397
              Bcc     0.0062     3.334     1.190     1.112 -0.4942 -0.0105  0.8693
 
              Baa    -0.0053    -2.828    -1.009    -0.943  0.4670  0.2198  0.8565
    14 H(1)   Bbb    -0.0050    -2.657    -0.948    -0.886 -0.3379  0.9395 -0.0569
              Bcc     0.0103     5.485     1.957     1.830  0.8172  0.2628 -0.5130
 

 ---------------------------------------------------------------------------------

 Use density number 0.
 Entering OneElI...
 Calculate overlap and kinetic energy integrals
    NBasis = 149  MinDer = 2  MaxDer = 2
 Requested accuracy = 0.1000D-12
 PrsmSu:  NPrtUS=   1 ThrOK=F
 PRISM was handed   130858204 working-precision words and  1891 shell-pairs
 Entering OneElI...
 Calculate potential energy integrals
    NBasis = 149  MinDer = 2  MaxDer = 2
 Requested accuracy = 0.1000D-12
 PrsmSu:  NPrtUS=   8 ThrOK=T
 PRISM was handed    16323725 working-precision words and  1818 shell-pairs
 PRISM was handed    16323725 working-precision words and  1818 shell-pairs
 PRISM was handed    16323725 working-precision words and  1818 shell-pairs
 PRISM was handed    16323725 working-precision words and  1818 shell-pairs
 PRISM was handed    16323725 working-precision words and  1818 shell-pairs
 PRISM was handed    16323725 working-precision words and  1818 shell-pairs
 PRISM was handed    16323725 working-precision words and  1818 shell-pairs
 PRISM was handed    16323725 working-precision words and  1818 shell-pairs
 Polarizability after L701:
                1             2             3
      1  0.524300D+02
      2 -0.144751D+01  0.462602D+02
      3 -0.357978D+01 -0.208172D+01  0.552667D+02
 Dipole Derivatives after L701:
               1            2            3            4            5
      1-0.960217D+00 0.151558D-01 0.324547D+00 0.274981D+00-0.325097D-02
      2-0.958186D-01-0.342444D+00 0.248468D-01 0.106358D-01 0.336712D+00
      3 0.529445D+00-0.571349D-01-0.505062D+00-0.772770D-01 0.385385D-02
               6            7            8            9           10
      1-0.378721D-01 0.711374D+00 0.184600D+00-0.277087D+00-0.731568D-01
      2-0.832679D-02 0.188548D+00-0.173250D+00 0.770984D-01-0.712430D-01
      3 0.206232D+00-0.339486D+00 0.179042D+00 0.412745D+00-0.281999D-01
              11           12           13           14           15
      1-0.121032D+00-0.391932D-01 0.104612D+00-0.721709D-01 0.379325D-01
      2 0.812861D-01-0.502785D-01-0.278033D-01 0.169518D+00-0.298451D-01
      3-0.146935D+00-0.799093D-01-0.421833D-01 0.374090D-01 0.659920D-01
              16           17           18           19           20
      1-0.672367D-01-0.695973D-01-0.430460D-01 0.468936D-01 0.618868D-01
      2-0.735346D-01-0.775229D-01-0.483209D-01 0.713387D-01 0.377979D-01
      3-0.554736D-01-0.480660D-01-0.231551D-01 0.301615D-01 0.106465D-01
              21           22           23           24           25
      1 0.366626D-01 0.705328D-01 0.277097D-02 0.533468D-02-0.124255D+00
      2 0.561782D-01 0.957970D-02 0.178073D-01 0.577360D-01 0.701876D-01
      3 0.579447D-01 0.819191D-02 0.279972D-01-0.206420D+00 0.378536D-01
              26           27           28           29           30
      1 0.382779D-01 0.628845D-01-0.261715D-01-0.581890D-01-0.712689D-01
      2 0.301843D-01-0.192487D-01-0.120700D+00-0.695345D-01-0.744072D-01
      3-0.872579D-02 0.639433D-01-0.539276D-01-0.275873D-01 0.180564D-01
              31           32           33           34           35
      1 0.508188D-01 0.545635D-01 0.523532D-01 0.101547D-01 0.891756D-01
      2 0.351547D-01 0.958556D-01 0.106778D-01 0.545883D-01-0.130552D+00
      3 0.149609D-01 0.234025D-01 0.826441D-01-0.487974D-02 0.422663D-01
              36           37           38           39           40
      1-0.303570D-01 0.278634D-01-0.764997D-02 0.570876D-01-0.461938D-01
      2 0.723681D-01 0.499396D-02 0.697807D-01 0.903960D-02-0.559275D-01
      3 0.593836D-01 0.107013D-01 0.332297D-01-0.167157D+00-0.298863D-01
              41           42
      1-0.114540D+00-0.779770D-01
      2-0.456392D-01-0.775178D-01
      3-0.693977D-01 0.147631D-01
 Hessian after L701:
                1             2             3             4             5
      1  0.488620D+01
      2 -0.134792D+00  0.130182D+02
      3  0.422817D+01  0.520964D+00  0.652937D+01
      4 -0.534144D+01 -0.124811D-02 -0.542670D+00  0.538969D+01
      5  0.551842D-02 -0.544915D+01 -0.812344D-02  0.103929D-01  0.545713D+01
      6 -0.373480D+00  0.162718D-01 -0.828886D+00  0.576032D+00  0.246048D-01
      7  0.861855D+00 -0.186792D+00 -0.302529D+01  0.496929D-01  0.203908D-02
      8 -0.227200D+00 -0.725302D+01 -0.595429D-01  0.564443D-02  0.356373D-01
      9 -0.305302D+01 -0.934904D-01 -0.653249D+01  0.614441D-01 -0.989132D-02
     10 -0.378245D-02  0.103401D+00  0.973548D-01 -0.887585D-01 -0.246961D-01
     11  0.103097D+00  0.115567D+00  0.509199D-01 -0.260751D-01  0.269178D-01
     12  0.106870D+00  0.538761D-01  0.115993D+00  0.411009D-01  0.100311D-01
     13 -0.301246D+00  0.869064D-01 -0.184310D+00  0.349231D-02  0.173748D-02
     14  0.132820D+00 -0.655308D-01 -0.110964D+00  0.516443D-02 -0.538932D-01
     15 -0.222796D+00 -0.597665D-01  0.304018D+00 -0.117690D+00 -0.376180D-02
     16 -0.515528D-01  0.424729D-02 -0.490762D-01 -0.154993D-02  0.403713D-03
     17 -0.287455D-01 -0.771514D-01  0.440329D-01 -0.691341D-03 -0.554028D-04
     18 -0.102587D+00 -0.798889D-02  0.127393D+00 -0.420098D-04  0.842659D-03
     19 -0.165551D+00  0.148105D+00 -0.260198D+00 -0.962093D-02  0.488756D-02
     20  0.106886D+00 -0.142902D+00 -0.258044D+00  0.430811D-02 -0.710815D-02
     21 -0.224641D+00 -0.286590D+00  0.204780D+00 -0.103497D-01 -0.156864D-01
     22 -0.117204D-01  0.423185D-02 -0.107433D-01 -0.614205D-03  0.258004D-03
     23  0.457472D-02 -0.711447D-02 -0.164430D-01  0.525811D-03 -0.535257D-03
     24 -0.209191D-01 -0.263368D-01  0.377291D-01 -0.202261D-02 -0.160765D-02
     25 -0.987252D-01 -0.371595D-01  0.363843D-01 -0.721447D-03 -0.148523D-02
     26  0.201640D-01  0.187530D-01 -0.145873D+00 -0.469163D-03 -0.147120D-02
     27 -0.221505D-01 -0.119202D+00  0.627061D-01  0.673539D-03  0.299583D-02
     28  0.531841D-02  0.395366D-01 -0.234568D-01  0.535146D-03  0.162775D-02
     29  0.395861D-01  0.298174D-01 -0.327724D-01  0.226278D-02  0.808931D-03
     30 -0.102663D-01 -0.174592D-01 -0.124813D-01 -0.620165D-03 -0.949488D-03
     31  0.152370D+00 -0.197085D-01 -0.215673D+00 -0.448199D-02 -0.115034D-03
     32 -0.883768D-02 -0.164615D+00  0.822909D-02  0.919752D-03 -0.637553D-02
     33 -0.251741D+00  0.141734D-01 -0.260741D-02 -0.140605D-02  0.117009D-02
     34  0.251309D-01 -0.171799D-01 -0.196318D-01  0.141938D-02 -0.791297D-03
     35 -0.404251D-01 -0.131052D-02  0.159818D-01 -0.259318D-02 -0.207805D-03
     36 -0.144558D-01  0.696286D-02 -0.954522D-02 -0.104352D-02  0.377636D-03
     37  0.402658D-02  0.222288D-05 -0.114195D-01  0.543537D-04 -0.149858D-03
     38  0.114496D-02 -0.105458D-01 -0.121639D-02  0.189080D-03 -0.772924D-03
     39 -0.320064D-01  0.154232D-03  0.156267D-01 -0.286991D-02  0.129586D-03
     40  0.391227D-01  0.104492D-01 -0.194348D-01  0.231078D-02  0.372577D-03
     41  0.262080D-01 -0.110138D-01 -0.714909D-02  0.166962D-02 -0.925493D-03
     42 -0.697035D-02 -0.156906D-02 -0.116108D-01 -0.537653D-03 -0.131595D-03
                6             7             8             9            10
      6  0.454919D+00
      7 -0.631473D-01  0.703289D+01
      8 -0.545979D-02 -0.465178D+00  0.161503D+02
      9  0.740586D-01  0.308799D+01  0.498932D+00  0.898670D+01
     10  0.370929D-01 -0.222286D+01  0.713157D+00  0.117981D+01  0.224234D+01
     11  0.519483D-02  0.706931D+00 -0.344731D+01  0.524856D+00 -0.772375D+00
     12  0.125448D-01  0.129020D+01  0.573520D+00 -0.280010D+01 -0.134612D+01
     13 -0.136899D+00 -0.570925D+01 -0.116227D-01 -0.981518D+00  0.125739D+00
     14 -0.187364D-01  0.965014D-04 -0.595807D+01 -0.607006D+00 -0.346821D-01
     15  0.201871D+00 -0.879130D+00 -0.624484D+00 -0.285384D+00 -0.672543D-01
     16  0.711725D-02  0.917763D-01  0.325281D-01 -0.857025D-01  0.212665D-02
     17  0.874329D-02  0.614883D-02  0.214528D+00  0.766162D-01  0.349605D-01
     18  0.709057D-02 -0.124747D+00  0.906822D-01 -0.934493D-01  0.724364D-01
     19 -0.223995D-01  0.712324D-02 -0.495697D-01  0.403468D-01 -0.402337D-02
     20 -0.162629D-01 -0.619655D-01  0.382352D+00 -0.250404D+00  0.253062D-02
     21  0.472480D-01  0.535194D-01 -0.346468D+00  0.204375D+00  0.166466D-01
     22 -0.158744D-02 -0.500438D-01 -0.469792D-02  0.153093D-01 -0.530287D-03
     23 -0.299771D-02 -0.231884D-02 -0.106615D-01 -0.883221D-01 -0.960580D-03
     24  0.137576D-01  0.107164D-01 -0.927708D-01  0.150943D+00  0.750521D-02
     25  0.117349D-01  0.168693D-01 -0.302334D-01  0.939567D-02  0.130433D-01
     26 -0.876422D-03 -0.617123D-02  0.129878D-01  0.505182D-02 -0.709104D-02
     27 -0.505157D-02 -0.632508D-02  0.551288D-02 -0.158080D-01  0.661445D-02
     28 -0.866691D-02 -0.217805D-01  0.344173D-01 -0.223340D-01 -0.181178D-01
     29 -0.111779D-01  0.253958D-01 -0.337950D-02 -0.322879D-01 -0.166388D-01
     30  0.156785D-03 -0.107406D-01 -0.100074D-01 -0.782504D-02  0.903038D-02
     31 -0.648111D-02 -0.684584D-01  0.107049D-01 -0.998730D-01 -0.363810D-01
     32 -0.227962D-02  0.109619D-01 -0.354408D-01 -0.601919D-01 -0.489370D-02
     33  0.119544D-01 -0.201135D+00 -0.382680D-01  0.190237D+00 -0.223604D-04
     34 -0.653346D-02  0.577618D-02 -0.126505D-02 -0.615058D-01 -0.390119D-02
     35  0.990327D-02 -0.437800D-01 -0.400525D-01  0.378908D-01  0.683072D-02
     36  0.313409D-03 -0.438911D-01  0.348810D-02  0.865199D-02  0.271325D-02
     37 -0.346575D-02  0.313834D-02  0.419017D-02 -0.961732D-01 -0.226042D-02
     38 -0.645644D-03  0.135656D-02 -0.442881D-01 -0.892448D-03  0.112006D-03
     39  0.114567D-01 -0.101644D+00 -0.823020D-02  0.136739D+00  0.707841D-02
     40 -0.931732D-02  0.327628D-02 -0.108750D-01  0.583459D-02 -0.263399D-02
     41 -0.628173D-02  0.132755D-01 -0.356879D-02 -0.861416D-03  0.345466D-03
     42 -0.143373D-02  0.136274D-01  0.130961D-01 -0.166575D-01 -0.228869D-01
               11            12            13            14            15
     11  0.325799D+01
     12 -0.576426D+00  0.257117D+01
     13 -0.174330D-01 -0.100131D+00  0.140961D+02
     14  0.111608D+00 -0.128679D+00  0.108978D+01  0.144563D+02
     15 -0.834051D-01 -0.112053D+00  0.135528D+01  0.115326D+01  0.123917D+02
     16  0.252319D-01  0.690229D-01 -0.302018D+01  0.109815D+01  0.680206D+00
     17 -0.912235D-02  0.647663D-01  0.114144D+01 -0.275821D+01  0.760034D+00
     18  0.496696D-01  0.930577D-01  0.760135D+00  0.820504D+00 -0.353551D+01
     19  0.112348D-02 -0.974518D-03 -0.454294D+01 -0.136553D+01  0.522342D+00
     20 -0.112288D-01  0.147724D-01 -0.141027D+01 -0.112143D+01 -0.142420D+01
     21  0.451028D-02 -0.101374D-01  0.548595D+00 -0.144830D+01 -0.459248D+01
     22 -0.596371D-04  0.608689D-05  0.260289D-01  0.175560D-02 -0.130996D-01
     23 -0.118587D-02  0.358958D-04 -0.123965D-01  0.116053D-01  0.319501D-01
     24  0.208733D-02  0.714593D-02  0.258125D-01 -0.161403D-01  0.818358D-01
     25 -0.219458D-02  0.169168D-01  0.855749D-01 -0.211329D-02 -0.518055D-02
     26 -0.275020D-02 -0.669393D-02  0.482977D-01  0.114907D-01 -0.737718D-02
     27 -0.282808D-02  0.272963D-02 -0.525857D-01  0.312040D-01  0.532066D-01
     28 -0.264530D-02 -0.949877D-03  0.717757D-01  0.474709D-01  0.943081D-02
     29  0.994240D-02 -0.436259D-01 -0.849629D-02  0.265664D-01 -0.821132D-02
     30 -0.240257D-01  0.195249D-01  0.137364D-01  0.361252D-01  0.607808D-01
     31 -0.120540D-01 -0.271855D-01 -0.916692D+00 -0.976736D+00 -0.126805D+01
     32 -0.323797D-01  0.428531D-01 -0.947875D+00 -0.485709D+01  0.274863D+00
     33  0.476535D-01  0.735888D-01 -0.127725D+01  0.290277D+00 -0.475052D+01
     34 -0.120499D-02 -0.105103D-02  0.213752D-01  0.156324D-01 -0.130733D-01
     35  0.472616D-02  0.827659D-02 -0.254033D-01  0.100538D+00  0.289639D-03
     36 -0.147962D-02 -0.381419D-02  0.188265D-01 -0.322937D-01  0.432749D-01
     37 -0.226457D-03 -0.687347D-03  0.188449D-01 -0.760250D-02  0.363447D-01
     38 -0.136382D-02 -0.942507D-04  0.855113D-02  0.288078D-01 -0.192223D-01
     39  0.367600D-02  0.848881D-02 -0.212786D-01  0.133309D-01  0.854972D-01
     40 -0.211614D-02 -0.470173D-01  0.414050D-01 -0.420526D-02 -0.173290D-01
     41 -0.214065D-01 -0.126117D-01  0.567844D-01  0.672728D-01  0.100353D-01
     42 -0.402659D-03  0.218597D-01  0.315880D-01  0.174179D-01  0.537630D-01
               16            17            18            19            20
     16  0.281100D+01
     17 -0.129579D+01  0.256507D+01
     18 -0.715104D+00 -0.105438D+01  0.321120D+01
     19  0.151025D+00 -0.445881D-02  0.159994D-01  0.120759D+02
     20  0.276875D-02 -0.108181D+00  0.925586D-02  0.103598D+01  0.101981D+02
     21  0.172675D-01  0.251210D-01  0.146071D+00 -0.140003D+00  0.136749D+01
     22  0.111683D-01 -0.212610D-02  0.208240D-02 -0.349353D+01  0.113563D-01
     23 -0.286345D-02 -0.262488D-01  0.196921D-01  0.212354D-01 -0.347799D+01
     24 -0.496775D-02  0.113367D-01 -0.190307D-02 -0.107061D+00 -0.164877D+00
     25  0.122733D-02  0.515069D-02 -0.320600D-02 -0.142215D+01 -0.411526D+00
     26  0.159944D-01 -0.261919D-01 -0.507584D-02 -0.555323D+00 -0.357235D+01
     27  0.307138D-02  0.498432D-03  0.121983D-01 -0.587882D+00  0.129883D+00
     28 -0.141538D-01  0.520100D-01  0.109712D-01 -0.277434D+01  0.986310D+00
     29  0.583924D-01  0.125866D+00  0.362581D-01  0.110723D+01 -0.226527D+01
     30  0.820538D-02  0.247517D-01 -0.271519D-01  0.510220D+00  0.620937D+00
     31 -0.818053D-02  0.198739D-01  0.342171D-01  0.144860D+00 -0.132558D+00
     32  0.866783D-03  0.756039D-01  0.220662D-01 -0.211847D+00  0.345706D-01
     33  0.291015D-01  0.231551D-01  0.642774D-01  0.303744D-01 -0.330910D-01
     34 -0.415879D-01  0.141716D-01 -0.963751D-02  0.391690D-01 -0.118735D+00
     35  0.821091D-02  0.932985D-02 -0.206217D-02 -0.120615D+00  0.102646D+00
     36 -0.350887D-02  0.345541D-02  0.179597D-01  0.166043D-01 -0.174489D-01
     37 -0.326632D-01 -0.118450D-01  0.226392D-01 -0.164752D-02 -0.226490D-01
     38 -0.866480D-02  0.134005D-01  0.517474D-02 -0.253277D-01 -0.374955D-02
     39  0.162516D-01 -0.161333D-02  0.147345D-02 -0.414942D-01  0.268794D-01
     40  0.101551D+00  0.698923D-01  0.368424D-01 -0.432007D-02  0.757119D-02
     41  0.605165D-01  0.136791D-02  0.153580D-01  0.141186D-01 -0.744883D-02
     42  0.281157D-01  0.134790D-01 -0.227081D-01  0.241270D-01 -0.488961D-02
               21            22            23            24            25
     21  0.119797D+02
     22 -0.443082D-01  0.342487D+01
     23 -0.267711D+00  0.461104D-01  0.340649D+01
     24 -0.112053D+01  0.214210D-01  0.401334D+00  0.880194D+00
     25 -0.733331D+00  0.254153D-01 -0.275396D-02  0.491356D-01  0.129787D+01
     26  0.203753D+00  0.563766D-02  0.586643D-01 -0.140289D-01  0.635205D+00
     27 -0.348380D+01  0.794044D-01 -0.686989D-02 -0.924164D-02  0.632653D+00
     28  0.546764D+00  0.524167D-01 -0.936528D-02 -0.319537D-01 -0.563917D-01
     29  0.745998D+00 -0.204067D-01  0.500767D-01 -0.546006D-01 -0.443967D-01
     30 -0.324984D+01 -0.611284D-01 -0.614486D-01 -0.342618D-01  0.770762D-02
     31 -0.336059D-01 -0.147103D-02 -0.110089D-01  0.231050D-01  0.120122D+00
     32  0.224843D-01 -0.169964D-01 -0.883428D-02 -0.298399D-01 -0.102794D+00
     33 -0.764696D-01  0.143439D-01 -0.121482D-01  0.104070D-01 -0.157679D-01
     34  0.194238D-01 -0.863693D-04 -0.259546D-02  0.512690D-02  0.665137D-03
     35 -0.197750D-01 -0.288671D-02  0.327615D-02 -0.110937D-01 -0.643308D-02
     36 -0.500333D-01  0.142645D-02 -0.219754D-02  0.305256D-02  0.249303D-02
     37 -0.198235D-01  0.145883D-01 -0.255796D-01  0.108816D-01  0.679646D-02
     38  0.157690D-01 -0.230288D-01  0.583018D-02 -0.770344D-02 -0.383563D-02
     39  0.596389D-02 -0.766510D-02  0.715068D-02 -0.256328D-01 -0.133622D-01
     40  0.384584D-02  0.351140D-02 -0.260378D-02  0.132198D-01  0.104003D-01
     41 -0.597474D-03  0.852501D-03 -0.337385D-02  0.424135D-02  0.456966D-02
     42 -0.488307D-02  0.453853D-02 -0.202467D-02  0.650428D-02  0.442723D-02
               26            27            28            29            30
     26  0.343054D+01
     27 -0.532826D-01  0.335955D+01
     28 -0.536646D-01 -0.306230D-01  0.275818D+01
     29  0.619749D-01 -0.352309D-02 -0.107944D+01  0.192853D+01
     30  0.939231D-02  0.699175D-01 -0.451761D+00 -0.606016D+00  0.321401D+01
     31 -0.990275D-01 -0.155596D-01 -0.135269D-01 -0.508859D-02 -0.902250D-02
     32  0.111408D-01  0.122227D-01  0.614029D-02  0.167808D-01  0.245891D-01
     33  0.122262D-01 -0.467427D-01 -0.262396D-02  0.771297D-02 -0.142970D-01
     34  0.307335D-02 -0.185551D-02 -0.264764D-02 -0.326671D-02 -0.105167D-02
     35  0.370728D-03  0.260110D-02  0.376577D-02  0.981805D-02  0.356021D-02
     36 -0.126698D-02 -0.383520D-03 -0.585150D-03 -0.193013D-02 -0.196372D-02
     37 -0.424178D-02 -0.368882D-02 -0.329375D-02 -0.229503D-02 -0.191033D-02
     38 -0.551449D-03  0.161005D-02  0.136157D-02  0.124181D-02  0.237499D-02
     39  0.490030D-02  0.301014D-02  0.364305D-02  0.121334D-01  0.548373D-02
     40 -0.238398D-02 -0.174577D-02  0.160280D-01 -0.528400D-01 -0.239897D-02
     41 -0.260686D-02 -0.822631D-03 -0.275286D-01  0.723364D-02 -0.182448D-02
     42 -0.849297D-03 -0.229488D-02  0.214489D-02 -0.795673D-02 -0.220529D-01
               31            32            33            34            35
     31  0.991000D+01
     32  0.846230D+00  0.124595D+02
     33  0.107956D+01 -0.206875D+00  0.121589D+02
     34 -0.328961D+01 -0.725579D+00  0.239664D+00  0.312080D+01
     35 -0.615236D+00 -0.147407D+01 -0.631876D+00  0.870532D+00  0.133237D+01
     36  0.177736D+00 -0.541404D+00 -0.333768D+01 -0.143407D+00  0.544400D+00
     37 -0.346350D+01  0.431068D-01 -0.374152D+00  0.508843D-01 -0.352825D-03
     38  0.261025D-01 -0.348151D+01 -0.137911D+00  0.515299D-02  0.192418D-01
     39 -0.251840D+00 -0.201805D+00 -0.114128D+01 -0.139183D-01  0.395394D-01
     40 -0.252505D+01  0.111060D+01  0.731052D+00  0.726201D-01 -0.316140D-01
     41  0.968622D+00 -0.253729D+01  0.663801D+00 -0.379452D-01 -0.666797D-01
     42  0.612670D+00  0.635088D+00 -0.313975D+01  0.745090D-02  0.236361D-02
               36            37            38            39            40
     36  0.326441D+01
     37 -0.129588D-01  0.334656D+01
     38  0.729783D-01  0.325266D-01  0.342143D+01
     39 -0.447224D-02  0.503068D+00  0.134483D+00  0.933651D+00
     40  0.508095D-04  0.584777D-01 -0.156404D-01 -0.439623D-01  0.218330D+01
     41 -0.336417D-01 -0.488376D-02  0.528262D-01 -0.307283D-01 -0.107660D+01
     42  0.702352D-01 -0.486543D-01 -0.647045D-01 -0.360089D-01 -0.649640D+00
               41            42
     41  0.252562D+01
     42 -0.598917D+00  0.310504D+01
 ReadGW:  IGet=0 IStart=         102 Next=        6311 LGW=        6209.
 ICntrl=12127.
 Symmetry not used in FoFDir.
 MinBra= 0 MaxBra= 2 Meth= 1.
 IRaf=       0 NMat=   1 IRICut=       1 DoRegI=T DoRafI=F ISym2E= 0 JSym2E=0.
 PrsmSu:  NPrtUS=   8 ThrOK=T
 PRISM was handed    16314800 working-precision words and  1858 shell-pairs
 PRISM was handed    16314800 working-precision words and  1858 shell-pairs
 PRISM was handed    16314800 working-precision words and  1858 shell-pairs
 PRISM was handed    16314800 working-precision words and  1858 shell-pairs
 PRISM was handed    16314800 working-precision words and  1858 shell-pairs
 PRISM was handed    16314800 working-precision words and  1858 shell-pairs
 PRISM was handed    16314800 working-precision words and  1858 shell-pairs
 PRISM was handed    16314800 working-precision words and  1858 shell-pairs
 Pruned (  75, 302) grid will be used in CalDFT.
 CkSvGd:  ISavGI=        -1 IRadAn=       4 IRASav=       4 ISavGd=        -1.
 CalDSu:  NPrtUS=   8 ThrOK=T
 IPart= 0 IRanGd=          0 ScrnBf=T ScrnGd=T RCrit=4.00D+00 DoMicB=T.
 IPart= 6 IRanGd=          0 ScrnBf=T ScrnGd=T RCrit=4.00D+00 DoMicB=T.
 IPart= 4 IRanGd=          0 ScrnBf=T ScrnGd=T RCrit=4.00D+00 DoMicB=T.
 IPart= 1 IRanGd=          0 ScrnBf=T ScrnGd=T RCrit=4.00D+00 DoMicB=T.
 IPart= 5 IRanGd=          0 ScrnBf=T ScrnGd=T RCrit=4.00D+00 DoMicB=T.
 IPart= 2 IRanGd=          0 ScrnBf=T ScrnGd=T RCrit=4.00D+00 DoMicB=T.
 CutRad = 1000.00    CtRdIn =    0.00    XCrit =  15.00   ICut = 0
 CutRad = 1000.00    CtRdIn =    0.00    XCrit =  15.00   ICut = 0
 CutRad = 1000.00    CtRdIn =    0.00    XCrit =  15.00   ICut = 0
 CutRad = 1000.00    CtRdIn =    0.00    XCrit =  15.00   ICut = 0
 CutRad = 1000.00    CtRdIn =    0.00    XCrit =  15.00   ICut = 0
 CutRad = 1000.00    CtRdIn =    0.00    XCrit =  15.00   ICut = 0
 IPart= 7 IRanGd=          0 ScrnBf=T ScrnGd=T RCrit=4.00D+00 DoMicB=T.
 IPart= 3 IRanGd=          0 ScrnBf=T ScrnGd=T RCrit=4.00D+00 DoMicB=T.
 CutRad = 1000.00    CtRdIn =    0.00    XCrit =  15.00   ICut = 0
 CutRad = 1000.00    CtRdIn =    0.00    XCrit =  15.00   ICut = 0
 IPart= 5        11645 of        12914 points in      26 batches and       76 microbatches, Max-NSigAt=      14 Max-NSgAt2=      14
 IPart= 6        12869 of        14482 points in      30 batches and       91 microbatches, Max-NSigAt=      14 Max-NSgAt2=      14
 IPart= 7        12887 of        14762 points in      28 batches and       70 microbatches, Max-NSigAt=      14 Max-NSgAt2=      14
 IPart= 1        12385 of        14192 points in      31 batches and       95 microbatches, Max-NSigAt=      14 Max-NSgAt2=      14
 IPart= 3        12012 of        13754 points in      28 batches and       90 microbatches, Max-NSigAt=      14 Max-NSgAt2=      14
 IPart= 4        12933 of        14770 points in      30 batches and       84 microbatches, Max-NSigAt=      14 Max-NSgAt2=      14
 IPart= 0        12515 of        14218 points in      29 batches and       95 microbatches, Max-NSigAt=      14 Max-NSgAt2=      14
 IPart= 2        11163 of        12606 points in      26 batches and       88 microbatches, Max-NSigAt=      14 Max-NSgAt2=      14
 Polarizability after L703:
                1             2             3
      1  0.524300D+02
      2 -0.144751D+01  0.462602D+02
      3 -0.357978D+01 -0.208172D+01  0.552667D+02
 Dipole Derivatives after L703:
               1            2            3            4            5
      1-0.960217D+00 0.151558D-01 0.324547D+00 0.274981D+00-0.325097D-02
      2-0.958186D-01-0.342444D+00 0.248468D-01 0.106358D-01 0.336712D+00
      3 0.529445D+00-0.571349D-01-0.505062D+00-0.772770D-01 0.385385D-02
               6            7            8            9           10
      1-0.378721D-01 0.711374D+00 0.184600D+00-0.277087D+00-0.731568D-01
      2-0.832679D-02 0.188548D+00-0.173250D+00 0.770984D-01-0.712430D-01
      3 0.206232D+00-0.339486D+00 0.179042D+00 0.412745D+00-0.281999D-01
              11           12           13           14           15
      1-0.121032D+00-0.391932D-01 0.104612D+00-0.721709D-01 0.379325D-01
      2 0.812861D-01-0.502785D-01-0.278033D-01 0.169518D+00-0.298451D-01
      3-0.146935D+00-0.799093D-01-0.421833D-01 0.374090D-01 0.659920D-01
              16           17           18           19           20
      1-0.672367D-01-0.695973D-01-0.430460D-01 0.468936D-01 0.618868D-01
      2-0.735346D-01-0.775229D-01-0.483209D-01 0.713387D-01 0.377979D-01
      3-0.554736D-01-0.480660D-01-0.231551D-01 0.301615D-01 0.106465D-01
              21           22           23           24           25
      1 0.366626D-01 0.705328D-01 0.277097D-02 0.533468D-02-0.124255D+00
      2 0.561782D-01 0.957970D-02 0.178073D-01 0.577360D-01 0.701876D-01
      3 0.579447D-01 0.819191D-02 0.279972D-01-0.206420D+00 0.378536D-01
              26           27           28           29           30
      1 0.382779D-01 0.628845D-01-0.261715D-01-0.581890D-01-0.712689D-01
      2 0.301843D-01-0.192487D-01-0.120700D+00-0.695345D-01-0.744072D-01
      3-0.872579D-02 0.639433D-01-0.539276D-01-0.275873D-01 0.180564D-01
              31           32           33           34           35
      1 0.508188D-01 0.545635D-01 0.523532D-01 0.101547D-01 0.891756D-01
      2 0.351547D-01 0.958556D-01 0.106778D-01 0.545883D-01-0.130552D+00
      3 0.149609D-01 0.234025D-01 0.826441D-01-0.487974D-02 0.422663D-01
              36           37           38           39           40
      1-0.303570D-01 0.278634D-01-0.764997D-02 0.570876D-01-0.461938D-01
      2 0.723681D-01 0.499396D-02 0.697807D-01 0.903960D-02-0.559275D-01
      3 0.593836D-01 0.107013D-01 0.332297D-01-0.167157D+00-0.298863D-01
              41           42
      1-0.114540D+00-0.779770D-01
      2-0.456392D-01-0.775178D-01
      3-0.693977D-01 0.147631D-01
 Hessian after L703:
                1             2             3             4             5
      1  0.378825D+00
      2  0.105840D-01  0.201609D-01
      3 -0.735476D-01  0.411756D-02  0.618220D+00
      4 -0.434257D-01 -0.109464D-02 -0.409338D-01  0.553477D-01
      5 -0.199593D-03 -0.867447D-02 -0.189383D-02  0.804947D-03  0.855776D-02
      6  0.115640D-01  0.138708D-03 -0.495136D+00 -0.778244D-02  0.587774D-03
      7 -0.300618D+00  0.989374D-02  0.816812D-01 -0.622329D-02 -0.915556D-03
      8 -0.682106D-02 -0.168935D-01 -0.813591D-02  0.118490D-02 -0.226636D-02
      9  0.342870D-01 -0.106279D-01 -0.114379D+00  0.478147D-01 -0.119310D-02
     10 -0.306901D-01 -0.161680D-01 -0.125646D-01  0.960272D-03  0.118119D-02
     11  0.308199D-03  0.470602D-02  0.477755D-02 -0.100764D-02 -0.507935D-03
     12  0.157498D-01  0.416883D-02  0.916613D-02 -0.218265D-03  0.136887D-02
     13 -0.819002D-02 -0.349173D-02  0.426674D-01 -0.681553D-02 -0.106708D-02
     14 -0.378352D-02 -0.471400D-03  0.813776D-03  0.208646D-04  0.219986D-02
     15  0.517763D-02  0.357291D-02 -0.114707D-01 -0.215931D-03  0.533868D-03
     16  0.918022D-03  0.307403D-03  0.616108D-04  0.114597D-03  0.411630D-04
     17  0.801974D-03 -0.166755D-03 -0.465208D-03  0.322186D-03  0.517145D-04
     18  0.145544D-02  0.499697D-03  0.256403D-02 -0.276658D-03  0.710680D-03
     19 -0.189275D-02  0.896770D-03  0.100674D-02 -0.194006D-04  0.113652D-04
     20  0.214861D-02 -0.390459D-03 -0.131794D-02  0.251702D-03  0.267513D-03
     21  0.276774D-02 -0.625839D-03  0.341165D-04 -0.292002D-03 -0.439190D-03
     22  0.132234D-02 -0.544701D-03 -0.160676D-03  0.705487D-04 -0.181622D-04
     23 -0.157219D-02  0.779997D-03  0.337033D-03  0.336535D-04 -0.123023D-04
     24  0.592968D-03 -0.495183D-03 -0.139505D-05 -0.935056D-04 -0.447673D-04
     25  0.146003D-02 -0.928065D-03 -0.494776D-04  0.161950D-03  0.225800D-04
     26 -0.635701D-03 -0.204287D-03  0.465234D-04 -0.411324D-03  0.217632D-03
     27  0.142719D-03  0.000000D+00 -0.243707D-03  0.144315D-03 -0.412248D-04
     28 -0.195578D-03  0.368839D-05  0.380635D-03  0.713737D-04 -0.165898D-03
     29  0.147310D-03 -0.405506D-05  0.363119D-03 -0.314938D-04 -0.106429D-03
     30 -0.262187D-03 -0.614735D-04 -0.160557D-03  0.227204D-04  0.601997D-04
     31  0.215729D-02  0.261726D-03 -0.120925D-02  0.275932D-03  0.362274D-03
     32 -0.849489D-03  0.157417D-03  0.166609D-02 -0.966437D-04  0.391568D-03
     33  0.263617D-02 -0.548903D-03 -0.798079D-02  0.172061D-02  0.451970D-03
     34  0.522457D-03 -0.368475D-03 -0.221767D-03  0.240959D-04  0.458181D-04
     35 -0.211141D-03  0.334382D-03 -0.281224D-03  0.487473D-04 -0.626842D-04
     36 -0.681917D-03  0.816728D-04  0.214369D-03  0.199225D-04 -0.464712D-04
     37 -0.766295D-03  0.309035D-03  0.257593D-02 -0.539051D-03 -0.116552D-03
     38 -0.969320D-04  0.551852D-03 -0.342298D-03  0.927114D-04  0.152046D-04
     39  0.585410D-03 -0.261500D-03 -0.824625D-03  0.106226D-03 -0.147169D-04
     40  0.572704D-03  0.339327D-03  0.313650D-03 -0.353686D-05  0.135002D-04
     41  0.179565D-03  0.114365D-03  0.314754D-03 -0.117975D-03 -0.710608D-04
     42 -0.467276D-03  0.410831D-04 -0.254144D-05 -0.158907D-04 -0.400606D-04
                6             7             8             9            10
      6  0.505906D+00
      7 -0.601502D-02  0.557774D+00
      8 -0.160594D-03  0.790194D-01  0.145073D+00
      9 -0.156931D-01  0.248572D-01  0.651492D-01  0.549206D+00
     10 -0.197826D-02 -0.158216D+00 -0.691497D-01 -0.100455D+00  0.182201D+00
     11  0.263197D-03 -0.858375D-01 -0.679865D-01 -0.864185D-01  0.840852D-01
     12  0.327308D-02 -0.108810D+00 -0.683952D-01 -0.160295D+00  0.110943D+00
     13  0.432008D-02 -0.794861D-01 -0.700226D-02 -0.720434D-02  0.340814D-02
     14 -0.109811D-02 -0.485938D-02 -0.542276D-01  0.198729D-01 -0.819210D-03
     15  0.991452D-03  0.706447D-02 -0.197478D-02 -0.208924D+00  0.294099D-02
     16 -0.105860D-03  0.347623D-03  0.200696D-02 -0.186862D-02  0.605804D-03
     17  0.132494D-03  0.139249D-02  0.318094D-02  0.477223D-03  0.305194D-03
     18  0.701850D-03 -0.242351D-01 -0.196351D-01 -0.212001D-01  0.138032D-02
     19 -0.158288D-03  0.349287D-02 -0.134126D-02 -0.463206D-02 -0.129733D-03
     20 -0.103096D-03 -0.154540D-02 -0.482254D-02  0.162997D-01  0.984897D-04
     21  0.817750D-03 -0.114276D-01  0.327660D-01 -0.233793D-01  0.495305D-03
     22  0.502017D-04 -0.142039D-02  0.237636D-02 -0.292120D-03  0.111093D-03
     23 -0.225218D-03  0.371528D-02 -0.526723D-02  0.145527D-02 -0.171999D-04
     24  0.206403D-03 -0.126433D-02  0.409418D-02 -0.263467D-03  0.528890D-04
     25 -0.578944D-04 -0.159888D-02 -0.239779D-03  0.136842D-02  0.460418D-04
     26  0.483047D-05  0.109122D-02  0.129721D-02 -0.183431D-02 -0.159838D-03
     27 -0.803761D-04 -0.126672D-02 -0.348545D-03  0.913479D-03  0.570930D-04
     28  0.366384D-04  0.322142D-03 -0.225276D-03  0.439254D-03  0.455858D-04
     29  0.604216D-04 -0.392466D-03  0.179498D-02 -0.198822D-02  0.267113D-03
     30 -0.102569D-03  0.126543D-02  0.175102D-03  0.135893D-02 -0.276282D-03
     31 -0.348170D-03 -0.987604D-02 -0.221368D-03  0.103017D-01  0.123097D-02
     32  0.511096D-03 -0.213334D-02 -0.231371D-03 -0.156296D-02  0.401889D-03
     33 -0.813225D-03  0.343912D-01 -0.377407D-02 -0.991672D-02 -0.220150D-03
     34  0.161267D-04  0.558973D-03  0.135965D-03 -0.802138D-03 -0.122189D-04
     35 -0.684210D-04 -0.356415D-03  0.345599D-03  0.692536D-03  0.104321D-03
     36 -0.617674D-04  0.725069D-03 -0.556661D-03  0.291173D-03 -0.308489D-04
     37  0.299198D-03 -0.533923D-02  0.604838D-03 -0.154781D-02  0.200672D-03
     38 -0.881413D-04  0.104751D-02 -0.107599D-03  0.165432D-03  0.545142D-04
     39  0.745688D-04  0.183265D-02  0.566027D-04  0.135686D-02 -0.179631D-03
     40  0.159653D-03  0.282276D-03 -0.327660D-03 -0.226625D-02  0.237887D-03
     41  0.450646D-04 -0.119550D-03  0.111314D-03 -0.487177D-03 -0.183921D-03
     42 -0.845354D-04  0.120152D-02  0.739753D-03  0.923819D-03 -0.164423D-03
               11            12            13            14            15
     11  0.596047D-01
     12  0.772564D-01  0.161958D+00
     13  0.267600D-02 -0.184866D-01  0.507946D+00
     14  0.345182D-02 -0.161630D-01  0.566923D-01  0.459153D+00
     15  0.722217D-02 -0.107033D-01  0.171528D-01  0.454302D-01  0.492321D+00
     16 -0.407812D-03  0.543216D-03 -0.131265D+00 -0.967451D-01 -0.591549D-01
     17  0.251603D-03  0.108107D-02 -0.970949D-01 -0.154988D+00 -0.708707D-01
     18 -0.885266D-03 -0.567509D-02 -0.602997D-01 -0.724647D-01 -0.923116D-01
     19  0.309394D-03  0.138204D-03 -0.814395D-01  0.176043D-01 -0.286950D-02
     20  0.354446D-03 -0.116318D-02  0.214849D-01 -0.142892D+00  0.118916D-01
     21 -0.144561D-02  0.731882D-03 -0.826865D-02  0.249785D-01 -0.767781D-01
     22 -0.350627D-03  0.190408D-03 -0.889919D-03  0.777926D-03 -0.949494D-02
     23  0.275702D-03  0.325932D-03 -0.665905D-03 -0.297981D-02  0.306738D-01
     24 -0.457355D-03  0.262449D-03  0.814457D-03 -0.700995D-03 -0.925574D-02
     25  0.961179D-04 -0.125749D-03 -0.815203D-02  0.104405D-02  0.149083D-02
     26 -0.109928D-03  0.139376D-03  0.284431D-01 -0.521050D-02 -0.837666D-02
     27  0.110173D-03 -0.676561D-04 -0.103294D-01  0.170671D-02  0.179913D-02
     28 -0.601946D-04  0.207771D-03  0.509633D-02  0.710863D-02  0.418216D-02
     29 -0.636721D-04  0.917216D-03 -0.175913D-01 -0.232433D-01 -0.113232D-01
     30  0.414157D-04  0.562655D-04  0.641761D-02  0.757842D-02  0.325015D-02
     31 -0.375368D-03 -0.178468D-02 -0.167704D+00  0.171017D-01  0.238070D-01
     32  0.212078D-03 -0.109655D-03  0.138628D-01 -0.789882D-01 -0.500615D-02
     33 -0.318952D-03  0.116719D-02  0.256615D-01 -0.814606D-02 -0.860172D-01
     34  0.627519D-04  0.207539D-03 -0.764634D-02  0.292939D-01 -0.911894D-02
     35 -0.316791D-03 -0.162990D-03  0.240869D-03 -0.427443D-02  0.863655D-03
     36 -0.971288D-04 -0.103123D-03  0.196603D-02 -0.952253D-02  0.174134D-02
     37  0.290695D-03  0.321731D-03 -0.343280D-02 -0.183247D-02  0.327732D-01
     38 -0.672147D-04  0.210665D-03  0.138067D-03 -0.794243D-03 -0.600213D-02
     39  0.114123D-03  0.251874D-03 -0.139080D-03  0.100914D-02 -0.845192D-02
     40  0.210747D-03  0.112394D-02 -0.214293D-01 -0.216040D-01 -0.137349D-01
     41  0.195623D-03  0.525670D-03  0.337505D-02  0.326504D-02  0.336541D-02
     42 -0.162250D-03 -0.232340D-04  0.572796D-02  0.670585D-02  0.380904D-02
               16            17            18            19            20
     16  0.146682D+00
     17  0.103713D+00  0.174365D+00
     18  0.682350D-01  0.750643D-01  0.105501D+00
     19  0.559729D-02 -0.169048D-01  0.533244D-02  0.552938D+00
     20  0.791287D-02 -0.259753D-01  0.766292D-02  0.309890D-01  0.452188D+00
     21  0.336538D-02 -0.114287D-01  0.450249D-02 -0.164918D-01  0.357055D-01
     22  0.142446D-03 -0.395741D-03  0.536566D-03 -0.480740D-01 -0.120706D-02
     23 -0.673912D-03  0.124661D-02 -0.514049D-03 -0.117535D-02 -0.468814D-01
     24  0.227361D-03  0.413030D-03  0.527728D-03  0.111114D-01  0.119836D-01
     25  0.678914D-03  0.322667D-03 -0.131605D-04 -0.276721D+00  0.409264D-01
     26 -0.419241D-03  0.103532D-02 -0.658900D-03  0.391223D-01 -0.537232D-01
     27  0.391981D-03 -0.553352D-03  0.113080D-03  0.730741D-01 -0.143916D-01
     28  0.364468D-03  0.234257D-02 -0.404512D-03 -0.136365D+00 -0.105342D+00
     29  0.244477D-02 -0.500790D-02  0.245081D-02 -0.105010D+00 -0.170631D+00
     30 -0.470710D-03  0.229289D-02  0.249698D-03 -0.573935D-01 -0.687419D-01
     31 -0.210590D-01  0.417123D-02  0.687871D-02 -0.142035D-01  0.717705D-02
     32 -0.199228D-01  0.445385D-02  0.726100D-02  0.330853D-01 -0.979949D-02
     33 -0.129652D-01  0.336906D-02  0.420089D-02 -0.899262D-02  0.154665D-02
     34  0.101306D-02 -0.347070D-03 -0.729264D-03 -0.615349D-02 -0.169449D-03
     35  0.428525D-03  0.677335D-03  0.374876D-05  0.200453D-02  0.738877D-03
     36 -0.587779D-03  0.325065D-03  0.706214D-04  0.128916D-02  0.712494D-04
     37  0.125574D-02 -0.533949D-03 -0.394971D-03  0.153709D-02 -0.102350D-02
     38 -0.244455D-03  0.242841D-04  0.499705D-03 -0.117484D-03  0.190969D-03
     39  0.362859D-03  0.296396D-03  0.616153D-03 -0.924893D-03  0.357287D-03
     40 -0.539621D-02  0.190553D-02  0.253495D-02  0.143345D-02 -0.170177D-02
     41  0.155912D-02  0.850548D-03  0.515431D-05  0.525571D-03  0.137659D-02
     42  0.196567D-02 -0.133544D-03  0.139300D-03 -0.489426D-03  0.199263D-03
               21            22            23            24            25
     21  0.543757D+00
     22  0.110313D-01  0.473755D-01
     23  0.116548D-01 -0.402334D-03  0.507623D-01
     24 -0.297352D+00 -0.122898D-01 -0.149202D-01  0.324488D+00
     25  0.711850D-01  0.310748D-03 -0.538682D-03  0.137137D-03  0.299945D+00
     26 -0.132272D-01 -0.172218D-02 -0.744905D-03  0.121531D-03 -0.462837D-01
     27 -0.706948D-01  0.305496D-01 -0.536340D-02 -0.841048D-02 -0.788933D-01
     28 -0.574325D-01  0.688228D-03  0.226021D-02  0.835592D-03 -0.167578D-01
     29 -0.683988D-01  0.175859D-02  0.135623D-02  0.449707D-03  0.314759D-02
     30 -0.853404D-01 -0.196222D-01 -0.228064D-01 -0.114236D-01  0.552269D-02
     31  0.192413D-02  0.419064D-03 -0.111907D-02  0.404044D-03  0.650458D-03
     32 -0.835931D-02 -0.419929D-03  0.132592D-02 -0.721748D-03  0.259126D-02
     33  0.403101D-02 -0.946374D-03  0.223374D-03  0.310749D-03 -0.968765D-03
     34  0.289213D-02  0.127771D-03 -0.387581D-03 -0.103764D-04 -0.565506D-03
     35 -0.825423D-03 -0.204153D-03  0.996071D-04  0.308351D-04  0.154370D-03
     36 -0.563468D-03  0.224217D-03 -0.229809D-03  0.355233D-03  0.333901D-03
     37  0.529870D-03 -0.159476D-03  0.445210D-03 -0.557456D-03  0.133362D-03
     38 -0.948026D-03  0.306670D-03  0.935469D-04  0.209826D-03 -0.180200D-03
     39  0.365549D-03  0.271056D-03 -0.496484D-03  0.569182D-03  0.170821D-04
     40 -0.278261D-03 -0.239161D-04  0.978635D-04  0.395709D-04  0.409158D-03
     41  0.593261D-03  0.453390D-04 -0.543050D-04  0.375294D-04 -0.134626D-03
     42 -0.131681D-03 -0.472697D-04 -0.114695D-03 -0.126547D-04  0.533523D-04
               26            27            28            29            30
     26  0.590389D-01
     27  0.134916D-01  0.727689D-01
     28 -0.215151D-01 -0.129737D-01  0.145057D+00
     29  0.432059D-02  0.296925D-02  0.115401D+00  0.189685D+00
     30  0.781583D-02  0.358810D-02  0.643652D-01  0.744115D-01  0.884483D-01
     31  0.682269D-03 -0.485912D-03  0.140776D-02 -0.166750D-02  0.288022D-03
     32 -0.572231D-02  0.194219D-02  0.567288D-03  0.125529D-02 -0.428679D-03
     33  0.254756D-02 -0.660296D-03  0.559008D-03 -0.281638D-03  0.336705D-04
     34  0.201007D-02 -0.517429D-03  0.146851D-03  0.141396D-03  0.222035D-03
     35 -0.322382D-03  0.352350D-03 -0.176679D-03  0.486357D-03  0.574864D-04
     36 -0.307441D-03  0.611039D-03  0.381903D-05  0.238878D-03 -0.504727D-04
     37 -0.384532D-03 -0.208143D-03 -0.415022D-04  0.104992D-03 -0.164689D-03
     38  0.180111D-04  0.122107D-03  0.921553D-05 -0.533865D-04 -0.106079D-03
     39  0.558250D-05  0.383581D-03  0.529256D-04 -0.328927D-04 -0.776047D-04
     40  0.182600D-03  0.314870D-03  0.160193D-03  0.127994D-02  0.858451D-04
     41  0.109861D-03  0.339434D-05 -0.207254D-03  0.211697D-03 -0.288332D-03
     42  0.231639D-03 -0.199565D-04 -0.252197D-03  0.163837D-03  0.170172D-03
               31            32            33            34            35
     31  0.462910D+00
     32  0.129059D-01  0.557605D+00
     33  0.229250D-01 -0.105949D-01  0.555386D+00
     34 -0.656007D-01  0.618439D-01 -0.187198D-01  0.719440D-01
     35  0.636176D-01 -0.265890D+00  0.642552D-01 -0.708163D-01  0.288113D+00
     36 -0.192392D-01  0.651937D-01 -0.672231D-01  0.198342D-01 -0.714719D-01
     37 -0.484059D-01 -0.127821D-02  0.211079D-01 -0.118418D-03 -0.332713D-03
     38 -0.152212D-02 -0.492533D-01  0.214316D-01 -0.300789D-02 -0.114781D-02
     39  0.229123D-01  0.203408D-01 -0.298940D+00  0.211274D-03  0.497482D-03
     40 -0.142202D+00 -0.100558D+00 -0.661883D-01  0.575949D-02  0.549851D-02
     41 -0.101374D+00 -0.155517D+00 -0.701609D-01 -0.184370D-01 -0.187815D-01
     42 -0.663737D-01 -0.701315D-01 -0.935784D-01  0.673649D-02  0.605664D-02
               36            37            38            39            40
     36  0.684892D-01
     37 -0.859730D-02  0.540284D-01
     38  0.299541D-01  0.954100D-03  0.487752D-01
     39 -0.749448D-02 -0.259850D-01 -0.231293D-01  0.325341D+00
     40  0.474075D-02  0.164742D-02  0.256628D-02  0.876911D-03  0.158552D+00
     41 -0.136327D-01  0.279306D-02  0.175451D-02  0.125752D-02  0.112097D+00
     42  0.372339D-02 -0.201524D-01 -0.219775D-01 -0.131703D-01  0.722776D-01
               41            42
     41  0.166434D+00
     42  0.784214D-01  0.982576D-01
 FrcOut:
 IF    =   786 IFX   =   828 IFXYZ =   870
 IFFX  =   912 IFFFX =  1815 IFLen =    42
 IFFLen=   903 IFFFLn=     0 IEDerv=  1815
 LEDerv=  2069 IFroze=  3888 ICStrt= 45797
 DipoleDeriv   =-9.60216937D-01-9.58186146D-02 5.29444642D-01
                 1.51557771D-02-3.42443821D-01-5.71349476D-02
                 3.24546590D-01 2.48467840D-02-5.05061905D-01
                 2.74980797D-01 1.06357558D-02-7.72769999D-02
                -3.25096917D-03 3.36711851D-01 3.85385490D-03
                -3.78721474D-02-8.32679235D-03 2.06231927D-01
                 7.11374200D-01 1.88547865D-01-3.39486383D-01
                 1.84600038D-01-1.73250062D-01 1.79041601D-01
                -2.77087459D-01 7.70984410D-02 4.12744800D-01
                -7.31568022D-02-7.12430382D-02-2.81998890D-02
                -1.21032424D-01 8.12861393D-02-1.46934950D-01
                -3.91931866D-02-5.02785412D-02-7.99092762D-02
                 1.04612263D-01-2.78033292D-02-4.21833195D-02
                -7.21708900D-02 1.69518416D-01 3.74090117D-02
                 3.79325472D-02-2.98450738D-02 6.59919895D-02
[...]
     26  0.460194D-01
     27 -0.426923D-01  0.465141D-01
     28 -0.116262D-02  0.149726D-02  0.218164D+00
     29  0.121910D-02 -0.216427D-02 -0.108614D+00  0.259439D+00
     30 -0.137439D-02  0.160228D-02 -0.380583D-03 -0.844852D-03  0.171374D+00
     31 -0.327855D-03  0.314404D-03 -0.974254D-03  0.654834D-02 -0.815035D-01
     32  0.346371D-03  0.161947D-03 -0.124658D-02  0.426112D-02 -0.822196D-01
     33 -0.131361D-02 -0.691536D-03 -0.105973D+00 -0.149244D+00  0.540378D-03
     34 -0.441057D-03  0.656995D-03 -0.113076D-02 -0.279045D-02  0.288096D-03
     35  0.478206D-03 -0.489588D-03 -0.402065D-03  0.756635D-03 -0.122382D-02
     36  0.376899D-03 -0.571696D-03 -0.106812D-02 -0.362084D-02  0.301485D-03
               31            32            33            34            35
     31  0.176039D+00
     32 -0.833452D-01  0.171733D+00
     33 -0.352916D-02 -0.375140D-02  0.265058D+00
     34 -0.217538D-02  0.292432D-03  0.456290D-02  0.171823D+00
     35  0.678274D-04  0.459100D-03 -0.337640D-02 -0.808766D-01  0.171215D+00
     36  0.471323D-03 -0.111063D-02  0.418643D-02 -0.821274D-01 -0.840882D-01
               36
     36  0.172651D+00
 Final forces over variables, Energy=-2.33078526D+02:
 -6.81177788D-03-1.66759692D-03-1.45204004D-03-1.55786413D-03
 -1.52361297D-03-7.12477543D-04-1.69370725D-03-1.67285143D-03
 -1.53619281D-03-6.89252191D-04-1.68553744D-03-1.69019348D-03
 -1.58076232D-03 3.29885446D-04 6.25429579D-04-2.97192980D-04
 -6.42786225D-04-9.65081071D-04-4.19550931D-04-2.88291480D-04
 -1.70086674D-04 5.64422443D-05-5.37842590D-05-4.23093127D-05
 -8.65908725D-05 1.09074396D-03-1.17909618D-03-5.82574830D-05
 -3.39105249D-04 1.84075857D-04 2.22296791D-05-3.67004780D-05
  1.87089851D-04 1.11915044D-04-1.51769735D-04 9.78553976D-06

 GradGradGradGradGradGradGradGradGradGradGradGradGradGradGradGradGradGrad
 Berny optimization.
 Search for a local minimum.
 Step number   1 out of a maximum of   2
 All quantities printed in internal units (Hartrees-Bohrs-Radians)
 Second derivative matrix not updated -- analytic derivatives used.
     Eigenvalues ---    0.00275   0.00492   0.00688   0.00796   0.06147
     Eigenvalues ---    0.11306   0.11410   0.11533   0.11872   0.14469
     Eigenvalues ---    0.14898   0.15293   0.19440   0.21401   0.22236
     Eigenvalues ---    0.26292   0.28874   0.29161   0.29614   0.30257
     Eigenvalues ---    0.30444   0.31032   0.32524   0.33466   0.33972
     Eigenvalues ---    0.34079   0.34239   0.34345   0.34517   0.34752
     Eigenvalues ---    0.35257   0.41165   0.42375   0.46926   0.50728
     Eigenvalues ---    0.56541
 Angle between quadratic step and forces=  60.65 degrees.
 Linear search not attempted -- first point.
 Variable       Old X    -DE/DX   Delta X   Delta X   Delta X     New X
                                 (Linear)    (Quad)   (Total)
    B1        1.83047  -0.00681   0.00000  -0.01363  -0.01363   1.81684
    B2        2.60554  -0.00167   0.00000  -0.00534  -0.00534   2.60020
    B3        2.06620  -0.00145   0.00000  -0.00571  -0.00571   2.06049
    B4        2.82809  -0.00156   0.00000  -0.00619  -0.00619   2.82190
    B5        2.08025  -0.00152   0.00000  -0.00408  -0.00408   2.07618
    B6        2.92275  -0.00071   0.00000  -0.00080  -0.00080   2.92195
    B7        2.07363  -0.00169   0.00000  -0.00505  -0.00505   2.06858
    B8        2.06828  -0.00167   0.00000  -0.00508  -0.00508   2.06320
    B9        2.07389  -0.00154   0.00000  -0.00477  -0.00477   2.06912
   B10        2.90281  -0.00069   0.00000  -0.00271  -0.00271   2.90009
   B11        2.07011  -0.00169   0.00000  -0.00486  -0.00486   2.06525
   B12        2.07072  -0.00169   0.00000  -0.00506  -0.00506   2.06566
   B13        2.07489  -0.00158   0.00000  -0.00485  -0.00485   2.07004
    A1        1.89930   0.00033   0.00000   0.00476   0.00476   1.90406
    A2        2.02930   0.00063   0.00000   0.00773   0.00773   2.03702
    A3        1.99661  -0.00030   0.00000   0.00244   0.00244   1.99904
    A4        1.87033  -0.00064   0.00000  -0.00333  -0.00333   1.86699
    A5        1.95609  -0.00097   0.00000  -0.00038  -0.00038   1.95571
    A6        1.93746  -0.00042   0.00000  -0.00178  -0.00178   1.93568
    A7        1.93104  -0.00029   0.00000  -0.00220  -0.00220   1.92884
    A8        1.93271  -0.00017   0.00000   0.00007   0.00007   1.93277
    A9        1.92608   0.00006   0.00000   0.00247   0.00247   1.92855
   A10        1.94297  -0.00005   0.00000  -0.00050  -0.00050   1.94247
   A11        1.93571  -0.00004   0.00000  -0.00050  -0.00050   1.93521
   A12        1.93562  -0.00009   0.00000  -0.00017  -0.00017   1.93545
    D1       -0.47918   0.00109   0.00000   0.00432   0.00432  -0.47485
    D2       -3.02403  -0.00118   0.00000  -0.03535  -0.03535  -3.05938
    D3       -0.88933  -0.00006   0.00000  -0.01378  -0.01378  -0.90311
    D4        1.16052  -0.00034   0.00000  -0.01760  -0.01760   1.14292
    D5       -3.06573   0.00018   0.00000   0.01385   0.01385  -3.05188
    D6       -0.96563   0.00002   0.00000   0.01224   0.01224  -0.95339
    D7        1.12576  -0.00004   0.00000   0.01232   0.01232   1.13808
    D8       -2.94706   0.00019   0.00000  -0.01347  -0.01347  -2.96053
    D9        1.01057   0.00011   0.00000  -0.00344  -0.00344   1.00713
   D10        3.11523  -0.00015   0.00000  -0.00500  -0.00500   3.11023
   D11       -1.08492   0.00001   0.00000  -0.00420  -0.00420  -1.08912
         Item               Value     Threshold  Converged?
 Maximum Force            0.006812     0.000450     NO 
 RMS     Force            0.001475     0.000300     NO 
 Maximum Displacement     0.035349     0.001800     NO 
 RMS     Displacement     0.009232     0.001200     NO 
 Predicted change in Energy=-1.201294D-04
 GradGradGradGradGradGradGradGradGradGradGradGradGradGradGradGradGradGrad


 Test job not archived.
 1\1\GINC-NODE36\Freq\UB3LYP\CBSB7\C4H9O1(2)\NYEE\20-Jun-2014\1\\# freq
  nosymm b3lyp/cbsb7 iop(7/33=1)\\Title Card Required\\0,2\O\H,1,B1\C,1
 ,B2,2,A1\H,3,B3,1,A2,2,D1,0\C,3,B4,1,A3,2,D2,0\H,5,B5,3,A4,1,D3,0\C,5,
 B6,3,A5,1,D4,0\H,7,B7,5,A6,3,D5,0\H,7,B8,5,A7,3,D6,0\H,7,B9,5,A8,3,D7,
 0\C,5,B10,3,A9,1,D8,0\H,11,B11,5,A10,3,D9,0\H,11,B12,5,A11,3,D10,0\H,1
 1,B13,5,A12,3,D11,0\\B1=0.96864413\B2=1.37879305\B3=1.09338557\B4=1.49
 656088\B5=1.10082341\B6=1.54665298\B7=1.09731734\B8=1.094484\B9=1.0974
 5298\B10=1.53609946\B11=1.09545534\B12=1.09577546\B13=1.09798472\A1=10
 8.8220932\A2=116.27019635\A3=114.39720956\A4=107.16179847\A5=112.07560
 126\A6=111.0083864\A7=110.64053428\A8=110.73595707\A9=110.35650182\A10
 =111.32416555\A11=110.90791786\A12=110.90278015\D1=-27.45485989\D2=-17
 3.26404893\D3=-50.954834\D4=66.49303806\D5=-175.65352917\D6=-55.326523
 28\D7=64.50134775\D8=-168.85410238\D9=57.9012351\D10=178.48960042\D11=
 -62.16110106\\Version=AM64L-G03RevD.01\HF=-233.0785262\S2=0.753159\S2-
 1=0.\S2A=0.750007\RMSD=7.854e-09\RMSF=1.685e-03\ZeroPoint=0.1227585\Th
 ermal=0.1292856\Dipole=0.183279,0.1415276,0.4677065\DipoleDeriv=-0.960
 2169,-0.0958186,0.5294446,0.0151558,-0.3424438,-0.0571349,0.3245466,0.
 0248468,-0.5050619,0.2749808,0.0106358,-0.077277,-0.003251,0.3367119,0
 .0038539,-0.0378721,-0.0083268,0.2062319,0.7113742,0.1885479,-0.339486
 4,0.1846,-0.1732501,0.1790416,-0.2770875,0.0770984,0.4127448,-0.073156
 8,-0.071243,-0.0281999,-0.1210324,0.0812861,-0.1469349,-0.0391932,-0.0
 502785,-0.0799093,0.1046123,-0.0278033,-0.0421833,-0.0721709,0.1695184
 ,0.037409,0.0379325,-0.0298451,0.065992,-0.0672367,-0.0735346,-0.05547
 36,-0.0695973,-0.0775229,-0.048066,-0.043046,-0.0483209,-0.0231551,0.0
 468936,0.0713387,0.0301615,0.0618868,0.0377979,0.0106465,0.0366626,0.0
 561782,0.0579447,0.0705328,0.0095797,0.0081919,0.002771,0.0178073,0.02
 79972,0.0053347,0.057736,-0.2064205,-0.1242548,0.0701876,0.0378536,0.0
 382779,0.0301843,-0.0087258,0.0628845,-0.0192487,0.0639433,-0.0261715,
 -0.1206995,-0.0539276,-0.058189,-0.0695345,-0.0275873,-0.0712689,-0.07
 44072,0.0180564,0.0508188,0.0351547,0.0149609,0.0545635,0.0958556,0.02
 34025,0.0523532,0.0106778,0.0826441,0.0101547,0.0545883,-0.0048797,0.0
 891756,-0.1305517,0.0422663,-0.030357,0.0723681,0.0593836,0.0278634,0.
 004994,0.0107013,-0.00765,0.0697807,0.0332297,0.0570876,0.0090396,-0.1
 671571,-0.0461938,-0.0559275,-0.0298863,-0.11454,-0.0456392,-0.0693977
 ,-0.077977,-0.0775178,0.0147631\Polar=52.4299621,-1.4475056,46.2602177
 ,-3.5797806,-2.0817188,55.2666513\PG=C01 [X(C4H9O1)]\NImag=0\\0.378825
 43,0.01058396,0.02016093,-0.07354760,0.00411756,0.61822007,-0.04342565
 ,-0.00109464,-0.04093381,0.05534770,-0.00019959,-0.00867447,-0.0018938
 3,0.00080495,0.00855776,0.01156404,0.00013871,-0.49513574,-0.00778244,
 0.00058777,0.50590618,-0.30061791,0.00989374,0.08168121,-0.00622329,-0
 .00091556,-0.00601502,0.55777363,-0.00682106,-0.01689353,-0.00813591,0
 .00118490,-0.00226636,-0.00016059,0.07901935,0.14507272,0.03428700,-0.
 01062792,-0.11437870,0.04781472,-0.00119310,-0.01569306,0.02485723,0.0
 6514919,0.54920561,-0.03069007,-0.01616804,-0.01256459,0.00096027,0.00
 118119,-0.00197826,-0.15821570,-0.06914971,-0.10045503,0.18220126,0.00
 030820,0.00470602,0.00477755,-0.00100764,-0.00050793,0.00026320,-0.085
 83748,-0.06798649,-0.08641850,0.08408521,0.05960475,0.01574984,0.00416
 883,0.00916613,-0.00021827,0.00136887,0.00327308,-0.10881002,-0.068395
 22,-0.16029480,0.11094263,0.07725643,0.16195835,-0.00819002,-0.0034917
 3,0.04266740,-0.00681553,-0.00106708,0.00432008,-0.07948607,-0.0070022
 6,-0.00720434,0.00340814,0.00267600,-0.01848657,0.50794572,-0.00378352
 ,-0.00047140,0.00081378,0.00002086,0.00219986,-0.00109811,-0.00485938,
 -0.05422764,0.01987285,-0.00081921,0.00345182,-0.01616301,0.05669230,0
 .45915261,0.00517763,0.00357291,-0.01147066,-0.00021593,0.00053387,0.0
 0099145,0.00706447,-0.00197478,-0.20892371,0.00294099,0.00722217,-0.01
 070331,0.01715276,0.04543024,0.49232107,0.00091802,0.00030740,0.000061
 61,0.00011460,0.00004116,-0.00010586,0.00034762,0.00200696,-0.00186862
 ,0.00060580,-0.00040781,0.00054322,-0.13126452,-0.09674513,-0.05915486
 ,0.14668173,0.00080197,-0.00016675,-0.00046521,0.00032219,0.00005171,0
 .00013249,0.00139249,0.00318094,0.00047722,0.00030519,0.00025160,0.001
 08107,-0.09709487,-0.15498766,-0.07087075,0.10371256,0.17436545,0.0014
 5544,0.00049970,0.00256403,-0.00027666,0.00071068,0.00070185,-0.024235
 11,-0.01963507,-0.02120013,0.00138032,-0.00088527,-0.00567509,-0.06029
 971,-0.07246473,-0.09231162,0.06823498,0.07506430,0.10550099,-0.001892
 75,0.00089677,0.00100674,-0.00001940,0.00001137,-0.00015829,0.00349287
 ,-0.00134126,-0.00463206,-0.00012973,0.00030939,0.00013820,-0.08143949
 ,0.01760430,-0.00286950,0.00559729,-0.01690477,0.00533244,0.55293761,0
 .00214861,-0.00039046,-0.00131794,0.00025170,0.00026751,-0.00010310,-0
 .00154540,-0.00482254,0.01629969,0.00009849,0.00035445,-0.00116318,0.0
 2148494,-0.14289223,0.01189162,0.00791287,-0.02597534,0.00766292,0.030
 98900,0.45218768,0.00276774,-0.00062584,0.00003412,-0.00029200,-0.0004
 3919,0.00081775,-0.01142758,0.03276603,-0.02337928,0.00049531,-0.00144
 561,0.00073188,-0.00826865,0.02497845,-0.07677806,0.00336538,-0.011428
 68,0.00450249,-0.01649180,0.03570550,0.54375746,0.00132234,-0.00054470
 ,-0.00016068,0.00007055,-0.00001816,0.00005020,-0.00142039,0.00237636,
 -0.00029212,0.00011109,-0.00035063,0.00019041,-0.00088992,0.00077793,-
 0.00949494,0.00014245,-0.00039574,0.00053657,-0.04807404,-0.00120706,0
 .01103130,0.04737551,-0.00157219,0.00078000,0.00033703,0.00003365,-0.0
 0001230,-0.00022522,0.00371528,-0.00526723,0.00145527,-0.00001720,0.00
 027570,0.00032593,-0.00066590,-0.00297981,0.03067380,-0.00067391,0.001
 24661,-0.00051405,-0.00117535,-0.04688136,0.01165481,-0.00040233,0.050
 76230,0.00059297,-0.00049518,-0.00000140,-0.00009351,-0.00004477,0.000
 20640,-0.00126433,0.00409418,-0.00026347,0.00005289,-0.00045736,0.0002
 6245,0.00081446,-0.00070100,-0.00925574,0.00022736,0.00041303,0.000527
 73,0.01111142,0.01198361,-0.29735247,-0.01228978,-0.01492021,0.3244880
 8,0.00146003,-0.00092806,-0.00004948,0.00016195,0.00002258,-0.00005789
 ,-0.00159888,-0.00023978,0.00136842,0.00004604,0.00009612,-0.00012575,
 -0.00815203,0.00104405,0.00149083,0.00067891,0.00032267,-0.00001316,-0
 .27672133,0.04092637,0.07118497,0.00031075,-0.00053868,0.00013714,0.29
 994490,-0.00063570,-0.00020429,0.00004652,-0.00041132,0.00021763,0.000
 00483,0.00109122,0.00129721,-0.00183431,-0.00015984,-0.00010993,0.0001
 3938,0.02844312,-0.00521050,-0.00837666,-0.00041924,0.00103532,-0.0006
 5890,0.03912227,-0.05372322,-0.01322719,-0.00172218,-0.00074490,0.0001
 2153,-0.04628366,0.05903891,0.00014272,0.00000037,-0.00024371,0.000144
 31,-0.00004122,-0.00008038,-0.00126672,-0.00034855,0.00091348,0.000057
 09,0.00011017,-0.00006766,-0.01032941,0.00170671,0.00179913,0.00039198
 ,-0.00055335,0.00011308,0.07307409,-0.01439164,-0.07069485,0.03054959,
 -0.00536340,-0.00841048,-0.07889333,0.01349163,0.07276890,-0.00019558,
 0.00000369,0.00038064,0.00007137,-0.00016590,0.00003664,0.00032214,-0.
 00022528,0.00043925,0.00004559,-0.00006019,0.00020777,0.00509633,0.007
 10863,0.00418216,0.00036447,0.00234257,-0.00040451,-0.13636455,-0.1053
 4186,-0.05743253,0.00068823,0.00226021,0.00083559,-0.01675781,-0.02151
 508,-0.01297372,0.14505652,0.00014731,-0.00000406,0.00036312,-0.000031
 49,-0.00010643,0.00006042,-0.00039247,0.00179498,-0.00198822,0.0002671
 1,-0.00006367,0.00091722,-0.01759127,-0.02324327,-0.01132320,0.0024447
 7,-0.00500790,0.00245081,-0.10500962,-0.17063145,-0.06839879,0.0017585
 9,0.00135623,0.00044971,0.00314759,0.00432059,0.00296925,0.11540063,0.
 18968502,-0.00026219,-0.00006147,-0.00016056,0.00002272,0.00006020,-0.
 00010257,0.00126543,0.00017510,0.00135893,-0.00027628,0.00004142,0.000
 05627,0.00641761,0.00757842,0.00325015,-0.00047071,0.00229289,0.000249
 70,-0.05739346,-0.06874193,-0.08534045,-0.01962218,-0.02280635,-0.0114
 2361,0.00552269,0.00781583,0.00358810,0.06436515,0.07441149,0.08844826
 ,0.00215729,0.00026173,-0.00120925,0.00027593,0.00036227,-0.00034817,-
 0.00987604,-0.00022137,0.01030173,0.00123097,-0.00037537,-0.00178468,-
 0.16770412,0.01710172,0.02380705,-0.02105896,0.00417123,0.00687871,-0.
 01420352,0.00717705,0.00192413,0.00041906,-0.00111907,0.00040404,0.000
 65046,0.00068227,-0.00048591,0.00140776,-0.00166750,0.00028802,0.46290
 981,-0.00084949,0.00015742,0.00166609,-0.00009664,0.00039157,0.0005111
 0,-0.00213334,-0.00023137,-0.00156296,0.00040189,0.00021208,-0.0001096
 6,0.01386275,-0.07898816,-0.00500615,-0.01992283,0.00445385,0.00726100
 ,0.03308529,-0.00979949,-0.00835931,-0.00041993,0.00132592,-0.00072175
 ,0.00259126,-0.00572231,0.00194219,0.00056729,0.00125529,-0.00042868,0
 .01290590,0.55760508,0.00263617,-0.00054890,-0.00798079,0.00172061,0.0
 0045197,-0.00081322,0.03439119,-0.00377407,-0.00991672,-0.00022015,-0.
 00031895,0.00116719,0.02566147,-0.00814606,-0.08601717,-0.01296523,0.0
 0336906,0.00420089,-0.00899262,0.00154665,0.00403101,-0.00094637,0.000
 22337,0.00031075,-0.00096877,0.00254756,-0.00066030,0.00055901,-0.0002
 8164,0.00003367,0.02292497,-0.01059486,0.55538585,0.00052246,-0.000368
 48,-0.00022177,0.00002410,0.00004582,0.00001613,0.00055897,0.00013597,
 -0.00080214,-0.00001222,0.00006275,0.00020754,-0.00764634,0.02929394,-
 0.00911894,0.00101306,-0.00034707,-0.00072926,-0.00615349,-0.00016945,
 0.00289213,0.00012777,-0.00038758,-0.00001038,-0.00056551,0.00201007,-
 0.00051743,0.00014685,0.00014140,0.00022203,-0.06560068,0.06184388,-0.
 01871984,0.07194396,-0.00021114,0.00033438,-0.00028122,0.00004875,-0.0
 0006268,-0.00006842,-0.00035641,0.00034560,0.00069254,0.00010432,-0.00
 031679,-0.00016299,0.00024087,-0.00427443,0.00086365,0.00042852,0.0006
 7734,0.00000375,0.00200453,0.00073888,-0.00082542,-0.00020415,0.000099
 61,0.00003084,0.00015437,-0.00032238,0.00035235,-0.00017668,0.00048636
 ,0.00005749,0.06361758,-0.26588964,0.06425521,-0.07081635,0.28811305,-
 0.00068192,0.00008167,0.00021437,0.00001992,-0.00004647,-0.00006177,0.
 00072507,-0.00055666,0.00029117,-0.00003085,-0.00009713,-0.00010312,0.
 00196603,-0.00952253,0.00174134,-0.00058778,0.00032506,0.00007062,0.00
 128916,0.00007125,-0.00056347,0.00022422,-0.00022981,0.00035523,0.0003
 3390,-0.00030744,0.00061104,0.00000382,0.00023888,-0.00005047,-0.01923
 917,0.06519367,-0.06722305,0.01983415,-0.07147189,0.06848920,-0.000766
 30,0.00030904,0.00257593,-0.00053905,-0.00011655,0.00029920,-0.0053392
 3,0.00060484,-0.00154781,0.00020067,0.00029069,0.00032173,-0.00343280,
 -0.00183247,0.03277318,0.00125574,-0.00053395,-0.00039497,0.00153709,-
 0.00102350,0.00052987,-0.00015948,0.00044521,-0.00055746,0.00013336,-0
 .00038453,-0.00020814,-0.00004150,0.00010499,-0.00016469,-0.04840595,-
 0.00127821,0.02110789,-0.00011842,-0.00033271,-0.00859730,0.05402844,-
 0.00009693,0.00055185,-0.00034230,0.00009271,0.00001520,-0.00008814,0.
 00104751,-0.00010760,0.00016543,0.00005451,-0.00006721,0.00021067,0.00
 013807,-0.00079424,-0.00600213,-0.00024445,0.00002428,0.00049970,-0.00
 011748,0.00019097,-0.00094803,0.00030667,0.00009355,0.00020983,-0.0001
 8020,0.00001801,0.00012211,0.00000922,-0.00005339,-0.00010608,-0.00152
 212,-0.04925334,0.02143158,-0.00300789,-0.00114781,0.02995414,0.000954
 10,0.04877522,0.00058541,-0.00026150,-0.00082463,0.00010623,-0.0000147
 2,0.00007457,0.00183265,0.00005660,0.00135686,-0.00017963,0.00011412,0
 .00025187,-0.00013908,0.00100914,-0.00845192,0.00036286,0.00029640,0.0
 0061615,-0.00092489,0.00035729,0.00036555,0.00027106,-0.00049648,0.000
 56918,0.00001708,0.00000558,0.00038358,0.00005293,-0.00003289,-0.00007
 760,0.02291225,0.02034078,-0.29893968,0.00021127,0.00049748,-0.0074944
 8,-0.02598505,-0.02312932,0.32534087,0.00057270,0.00033933,0.00031365,
 -0.00000354,0.00001350,0.00015965,0.00028228,-0.00032766,-0.00226625,0
 .00023789,0.00021075,0.00112394,-0.02142935,-0.02160402,-0.01373489,-0
 .00539621,0.00190553,0.00253495,0.00143345,-0.00170177,-0.00027826,-0.
 00002392,0.00009786,0.00003957,0.00040916,0.00018260,0.00031487,0.0001
 6019,0.00127994,0.00008585,-0.14220201,-0.10055781,-0.06618833,0.00575
 949,0.00549851,0.00474075,0.00164742,0.00256628,0.00087691,0.15855245,
 0.00017957,0.00011436,0.00031475,-0.00011797,-0.00007106,0.00004506,-0
 .00011955,0.00011131,-0.00048718,-0.00018392,0.00019562,0.00052567,0.0
 0337505,0.00326504,0.00336541,0.00155912,0.00085055,0.00000515,0.00052
 557,0.00137659,0.00059326,0.00004534,-0.00005430,0.00003753,-0.0001346
 3,0.00010986,0.00000339,-0.00020725,0.00021170,-0.00028833,-0.10137432
 ,-0.15551689,-0.07016092,-0.01843701,-0.01878147,-0.01363275,0.0027930
 6,0.00175451,0.00125752,0.11209696,0.16643417,-0.00046728,0.00004108,-
 0.00000254,-0.00001589,-0.00004006,-0.00008454,0.00120152,0.00073975,0
 .00092382,-0.00016442,-0.00016225,-0.00002323,0.00572796,0.00670585,0.
 00380904,0.00196567,-0.00013354,0.00013930,-0.00048943,0.00019926,-0.0
 0013168,-0.00004727,-0.00011470,-0.00001265,0.00005335,0.00023164,-0.0
 0001996,-0.00025220,0.00016384,0.00017017,-0.06637373,-0.07013147,-0.0
 9357843,0.00673649,0.00605664,0.00372339,-0.02015239,-0.02197746,-0.01
 317032,0.07227760,0.07842141,0.09825763\\-0.00175176,0.00026399,-0.006
 16199,0.00021144,0.00005360,0.00681178,0.00099072,-0.00215962,0.000036
 98,0.00067496,0.00118449,0.00082948,0.00009774,0.00107305,0.00015959,-
 0.00084292,-0.00091185,-0.00093581,0.00056960,-0.00133563,0.00015955,0
 .00008910,0.00033251,-0.00167336,-0.00157111,0.00042243,0.00041373,0.0
 0086601,0.00115699,0.00052760,-0.00109403,0.00022670,0.00035953,0.0005
 1844,-0.00152665,0.00049562,0.00021125,0.00020772,-0.00166600,0.001030
 56,0.00101227,0.00064330\\\@


 WE HAVE LEFT UNDONE THOSE THINGS WHICH WE OUGHT TO HAVE DONE,
 AND WE HAVE DONE THOSE THINGS WHICH WE OUGHT NOT TO HAVE DONE.
                   BOOK OF COMMON PRAYER                      
 Job cpu time:  0 days  0 hours 36 minutes  8.9 seconds.
 File lengths (MBytes):  RWF=     70 Int=      0 D2E=      0 Chk=     11 Scr=      1
 Normal termination of Gaussian 03 at Fri Jun 20 10:59:44 2014.
