 Entering Gaussian System, Link 0=g03
 Input=ts2-freq.gjf
 Output=ts2-freq.log
 Initial command:
 /opt/g03/l1.exe /scratch/shamel/Gau-32081.inp -scrdir=/scratch/shamel/
 Entering Link 1 = /opt/g03/l1.exe PID=     32083.
  
 Copyright (c) 1988,1990,1992,1993,1995,1998,2003,2004, Gaussian, Inc.
                  All Rights Reserved.
  
 This is the Gaussian(R) 03 program.  It is based on the
 the Gaussian(R) 98 system (copyright 1998, Gaussian, Inc.),
 the Gaussian(R) 94 system (copyright 1995, Gaussian, Inc.),
 the Gaussian 92(TM) system (copyright 1992, Gaussian, Inc.),
 the Gaussian 90(TM) system (copyright 1990, Gaussian, Inc.),
 the Gaussian 88(TM) system (copyright 1988, Gaussian, Inc.),
 the Gaussian 86(TM) system (copyright 1986, Carnegie Mellon
 University), and the Gaussian 82(TM) system (copyright 1983,
 Carnegie Mellon University). Gaussian is a federally registered
 trademark of Gaussian, Inc.
  
 This software contains proprietary and confidential information,
 including trade secrets, belonging to Gaussian, Inc.
  
 This software is provided under written license and may be
 used, copied, transmitted, or stored only in accord with that
 written license.
  
 The following legend is applicable only to US Government
 contracts under FAR:
  
                    RESTRICTED RIGHTS LEGEND
  
 Use, reproduction and disclosure by the US Government is
 subject to restrictions as set forth in subparagraphs (a)
 and (c) of the Commercial Computer Software - Restricted
 Rights clause in FAR 52.227-19.
  
 Gaussian, Inc.
 340 Quinnipiac St., Bldg. 40, Wallingford CT 06492
  
  
 ---------------------------------------------------------------
 Warning -- This program may not be used in any manner that
 competes with the business of Gaussian, Inc. or will provide
 assistance to any competitor of Gaussian, Inc.  The licensee
 of this program is prohibited from giving any competitor of
 Gaussian, Inc. access to this program.  By using this program,
 the user acknowledges that Gaussian, Inc. is engaged in the
 business of creating and licensing software in the field of
 computational chemistry and represents and warrants to the
 licensee that it is not a competitor of Gaussian, Inc. and that
 it will not use this program in any manner prohibited above.
 ---------------------------------------------------------------
  

 Cite this work as:
 Gaussian 03, Revision D.01,
 M. J. Frisch, G. W. Trucks, H. B. Schlegel, G. E. Scuseria, 
 M. A. Robb, J. R. Cheeseman, J. A. Montgomery, Jr., T. Vreven, 
 K. N. Kudin, J. C. Burant, J. M. Millam, S. S. Iyengar, J. Tomasi, 
 V. Barone, B. Mennucci, M. Cossi, G. Scalmani, N. Rega, 
 G. A. Petersson, H. Nakatsuji, M. Hada, M. Ehara, K. Toyota, 
 R. Fukuda, J. Hasegawa, M. Ishida, T. Nakajima, Y. Honda, O. Kitao, 
 H. Nakai, M. Klene, X. Li, J. E. Knox, H. P. Hratchian, J. B. Cross, 
 V. Bakken, C. Adamo, J. Jaramillo, R. Gomperts, R. E. Stratmann, 
 O. Yazyev, A. J. Austin, R. Cammi, C. Pomelli, J. W. Ochterski, 
 P. Y. Ayala, K. Morokuma, G. A. Voth, P. Salvador, J. J. Dannenberg, 
 V. G. Zakrzewski, S. Dapprich, A. D. Daniels, M. C. Strain, 
 O. Farkas, D. K. Malick, A. D. Rabuck, K. Raghavachari, 
 J. B. Foresman, J. V. Ortiz, Q. Cui, A. G. Baboul, S. Clifford, 
 J. Cioslowski, B. B. Stefanov, G. Liu, A. Liashenko, P. Piskorz, 
 I. Komaromi, R. L. Martin, D. J. Fox, T. Keith, M. A. Al-Laham, 
 C. Y. Peng, A. Nanayakkara, M. Challacombe, P. M. W. Gill, 
 B. Johnson, W. Chen, M. W. Wong, C. Gonzalez, and J. A. Pople, 
 Gaussian, Inc., Wallingford CT, 2004.
 
 ******************************************
 Gaussian 03:  AM64L-G03RevD.01 13-Oct-2005
                18-Jun-2013 
 ******************************************
 %chk=ts2-freq.chk
 %mem=1000mb
 %nproc=8
 Will use up to    8 processors via shared memory.
 -------------------------------------
 # freq nosymm b3lyp/cbsb7 iop(7/33=1)
 -------------------------------------
 1/10=4,30=1,38=1/1,3;
 2/15=1,17=6,18=5,40=1/2;
 3/5=4,6=6,7=700,11=2,16=1,25=1,30=1,74=-5/1,2,3;
 4//1;
 5/5=2,38=5/2;
 8/6=4,10=90,11=11/1;
 11/6=1,8=1,9=11,15=111,16=1,31=1/1,2,10;
 10/6=1,31=1/2;
 6/7=2,8=2,9=2,10=2,18=1,28=1/1;
 7/8=1,10=1,25=1,30=1,33=1/1,2,3,16;
 1/10=4,30=1/3;
 99//99;
 -------------------
 Title Card Required
 -------------------
 Symbolic Z-matrix:
 Charge =  0 Multiplicity = 2
 C                    -0.41831   1.25771  -0.0547 
 H                     0.16223   2.16785  -0.20426 
 H                    -1.25807   1.23032  -0.75803 
 C                    -0.92078   1.15145   1.41069 
 H                    -0.03936   1.26515   2.0529 
 C                    -1.53689  -0.20049   1.66111 
 H                    -0.86991  -0.92172   0.6483 
 H                    -1.29047  -0.70251   2.59319 
 H                    -2.57411  -0.32673   1.35047 
 C                    -1.89716   2.30806   1.71506 
 H                    -2.76808   2.23498   1.05835 
 H                    -2.25328   2.225     2.74928 
 O                    -1.32829   3.58727   1.46399 
 H                    -0.65169   3.7499    2.12896 
 O                     0.46614   0.18022  -0.31587 
 O                    -0.30537  -1.00292  -0.34867 
 

 GradGradGradGradGradGradGradGradGradGradGradGradGradGradGradGradGradGrad
 Berny optimization.
 Initialization pass.
 Trust Radius=3.00D-01 FncErr=1.00D-07 GrdErr=1.00D-07
 Number of steps in this run=   2 maximum allowed number of steps=   2.
 GradGradGradGradGradGradGradGradGradGradGradGradGradGradGradGradGradGrad

                          Input orientation:                          
 ---------------------------------------------------------------------
 Center     Atomic     Atomic              Coordinates (Angstroms)
 Number     Number      Type              X           Y           Z
 ---------------------------------------------------------------------
    1          6             0       -0.418307    1.257709   -0.054695
    2          1             0        0.162228    2.167849   -0.204259
    3          1             0       -1.258074    1.230323   -0.758029
    4          6             0       -0.920779    1.151453    1.410689
    5          1             0       -0.039360    1.265152    2.052905
    6          6             0       -1.536887   -0.200494    1.661111
    7          1             0       -0.869910   -0.921723    0.648295
    8          1             0       -1.290467   -0.702506    2.593193
    9          1             0       -2.574105   -0.326731    1.350466
   10          6             0       -1.897156    2.308061    1.715061
   11          1             0       -2.768084    2.234977    1.058352
   12          1             0       -2.253283    2.225003    2.749279
   13          8             0       -1.328288    3.587265    1.463986
   14          1             0       -0.651685    3.749899    2.128957
   15          8             0        0.466138    0.180221   -0.315867
   16          8             0       -0.305365   -1.002920   -0.348672
 ---------------------------------------------------------------------
                    Distance matrix (angstroms):
                    1          2          3          4          5
     1  C    0.000000
     2  H    1.089837   0.000000
     3  H    1.095736   1.789658   0.000000
     4  C    1.552778   2.194088   2.196207   0.000000
     5  H    2.141409   2.439321   3.063956   1.096480   0.000000
     6  C    2.514273   3.460585   2.824396   1.506672   2.131715
     7  H    2.334109   3.367137   2.599946   2.209500   2.728583
     8  H    3.407993   4.263215   3.868794   2.229832   2.393503
     9  H    3.021985   4.015921   2.932935   2.218590   3.074483
    10  C    2.534220   2.818601   2.772385   1.543922   2.157129
    11  H    2.777657   3.191461   2.566846   2.170415   3.061965
    12  H    3.487845   3.815933   3.779026   2.172533   2.511515
    13  O    2.925968   2.649419   3.239978   2.470240   2.720362
    14  H    3.321718   2.934150   3.879518   2.709288   2.560214
    15  O    1.418250   2.013823   2.066671   2.418228   2.653994
    16  O    2.282460   3.208313   2.462235   2.848756   3.313983
                    6          7          8          9         10
     6  C    0.000000
     7  H    1.410966   0.000000
     8  H    1.086975   2.001887   0.000000
     9  H    1.090072   1.936838   1.825734   0.000000
    10  C    2.534867   3.553129   3.194167   2.744689   0.000000
    11  H    2.794760   3.706206   3.628759   2.585596   1.093217
    12  H    2.753247   4.028615   3.085723   2.927619   1.096965
    13  O    3.798617   4.605045   4.436065   4.109052   1.422326
    14  H    4.075300   4.905511   4.521888   4.573911   1.949719
    15  O    2.839982   1.982149   3.511054   3.503818   3.773265
    16  O    2.489932   1.148585   3.116929   2.914015   4.213714
                   11         12         13         14         15
    11  H    0.000000
    12  H    1.767584   0.000000
    13  O    2.016491   2.088864   0.000000
    14  H    2.814308   2.296785   0.962511   0.000000
    15  O    4.070711   4.579465   4.242145   4.468702   0.000000
    16  O    4.304495   4.879669   5.040030   5.371021   1.412840
                   16
    16  O    0.000000
 Symmetry turned off by external request.
 Stoichiometry    C4H9O3(2)
 Framework group  C1[X(C4H9O3)]
 Deg. of freedom    42
 Full point group                 C1
 Rotational constants (GHZ):      5.1409454      1.5843793      1.2951029
 Standard basis: CBSB7 (5D, 7F)
 Integral buffers will be    131072 words long.
 Raffenetti 2 integral format.
 Two-electron integral symmetry is turned off.
   180 basis functions,   296 primitive gaussians,   187 cartesian basis functions
    29 alpha electrons       28 beta electrons
       nuclear repulsion energy       328.3036364322 Hartrees.
 NAtoms=   16 NActive=   16 NUniq=   16 SFac= 7.50D-01 NAtFMM=   80 NAOKFM=F Big=F
 One-electron integrals computed using PRISM.
 NBasis=   180 RedAO= T  NBF=   180
 NBsUse=   180 1.00D-06 NBFU=   180
 Harris functional with IExCor=  402 diagonalized for initial guess.
 ExpMin= 1.03D-01 ExpMax= 8.59D+03 ExpMxC= 1.30D+03 IAcc=1 IRadAn=         1 AccDes= 1.00D-06
 HarFok:  IExCor= 402 AccDes= 1.00D-06 IRadAn=         1 IDoV=1
 ScaDFX=  1.000000  1.000000  1.000000  1.000000
 <S**2> of initial guess= 0.7500
 Requested convergence on RMS density matrix=1.00D-08 within 128 cycles.
 Requested convergence on MAX density matrix=1.00D-06.
 Requested convergence on             energy=1.00D-06.
 No special actions if energy rises.
 Integral accuracy reduced to 1.0D-05 until final iterations.
 Initial convergence to 1.0D-05 achieved.  Increase integral accuracy.
 SCF Done:  E(UB+HF-LYP) =  -383.439707449     A.U. after   19 cycles
             Convg  =    0.9407D-08             -V/T =  2.0032
             S**2   =   0.7565
 Annihilation of the first spin contaminant:
 S**2 before annihilation     0.7565,   after     0.7500
 Range of M.O.s used for correlation:     1   180
 NBasis=   180 NAE=    29 NBE=    28 NFC=     0 NFV=     0
 NROrb=    180 NOA=    29 NOB=    28 NVA=   151 NVB=   152
 Symmetrizing basis deriv contribution to polar:
 IMax=3 JMax=2 DiffMx= 0.00D+00
 G2DrvN: will do   17 centers at a time, making    1 passes doing MaxLOS=2.
 FoFDir/FoFCou used for L=0 through L=2.
 DoAtom=TTTTTTTTTTTTTTTT
          Differentiating once with respect to electric field.
                with respect to dipole field.
          Differentiating once with respect to nuclear coordinates.
 Symmetry not used in FoFDir.
 MinBra= 0 MaxBra= 2 Meth= 1.
 IRaf=       0 NMat=  51 IRICut=      51 DoRegI=T DoRafI=T ISym2E= 0 JSym2E=0.
          There are  51 degrees of freedom in the 1st order CPHF.
    48 vectors were produced by pass  0.
 AX will form  48 AO Fock derivatives at one time.
    48 vectors were produced by pass  1.
    48 vectors were produced by pass  2.
    48 vectors were produced by pass  3.
    48 vectors were produced by pass  4.
    48 vectors were produced by pass  5.
    34 vectors were produced by pass  6.
     3 vectors were produced by pass  7.
     3 vectors were produced by pass  8.
 Inv2:  IOpt= 1 Iter= 1 AM= 2.44D-15 Conv= 1.00D-12.
 Inverted reduced A of dimension  328 with in-core refinement.
 Isotropic polarizability for W=    0.000000       63.57 Bohr**3.
 End of Minotr Frequency-dependent properties file   721 does not exist.

 **********************************************************************

            Population analysis using the SCF density.

 **********************************************************************

 Alpha  occ. eigenvalues --  -19.18823 -19.17171 -19.13243 -10.23711 -10.23091
 Alpha  occ. eigenvalues --  -10.20025 -10.19536  -1.13686  -1.04006  -0.89650
 Alpha  occ. eigenvalues --   -0.82110  -0.69824  -0.67802  -0.60542  -0.53878
 Alpha  occ. eigenvalues --   -0.52614  -0.50836  -0.47342  -0.45188  -0.44611
 Alpha  occ. eigenvalues --   -0.42070  -0.40943  -0.38524  -0.36609  -0.35568
 Alpha  occ. eigenvalues --   -0.33309  -0.29924  -0.27046  -0.22900
 Alpha virt. eigenvalues --    0.01926   0.03956   0.04532   0.05925   0.07524
 Alpha virt. eigenvalues --    0.09960   0.11169   0.12020   0.12378   0.15000
 Alpha virt. eigenvalues --    0.18197   0.19586   0.20624   0.20982   0.22052
 Alpha virt. eigenvalues --    0.29610   0.31206   0.32820   0.36011   0.38339
 Alpha virt. eigenvalues --    0.42098   0.43883   0.45011   0.46299   0.49567
 Alpha virt. eigenvalues --    0.50213   0.50528   0.53274   0.54539   0.55372
 Alpha virt. eigenvalues --    0.56040   0.58794   0.59608   0.61362   0.61808
 Alpha virt. eigenvalues --    0.63065   0.67190   0.74033   0.77369   0.79583
 Alpha virt. eigenvalues --    0.84858   0.85945   0.87292   0.91693   0.94262
 Alpha virt. eigenvalues --    0.95603   0.98430   1.01479   1.04341   1.09452
 Alpha virt. eigenvalues --    1.13333   1.19391   1.20375   1.26915   1.29513
 Alpha virt. eigenvalues --    1.34646   1.35539   1.39508   1.39619   1.42327
 Alpha virt. eigenvalues --    1.43306   1.45250   1.46727   1.48541   1.51262
 Alpha virt. eigenvalues --    1.53474   1.55981   1.56436   1.57554   1.59306
 Alpha virt. eigenvalues --    1.63758   1.66339   1.67670   1.69763   1.73626
 Alpha virt. eigenvalues --    1.75966   1.78198   1.82242   1.84675   1.90613
 Alpha virt. eigenvalues --    1.93180   1.96563   1.99329   1.99816   2.02404
 Alpha virt. eigenvalues --    2.06354   2.10074   2.16977   2.20400   2.21273
 Alpha virt. eigenvalues --    2.28497   2.33045   2.34747   2.36811   2.39717
 Alpha virt. eigenvalues --    2.41953   2.45168   2.49214   2.51650   2.54314
 Alpha virt. eigenvalues --    2.54931   2.56002   2.59441   2.61274   2.67440
 Alpha virt. eigenvalues --    2.67854   2.72582   2.75207   2.77513   2.81703
 Alpha virt. eigenvalues --    2.86155   2.86378   2.88077   2.98237   3.00691
 Alpha virt. eigenvalues --    3.03884   3.10275   3.15275   3.18963   3.21367
 Alpha virt. eigenvalues --    3.28255   3.31720   3.37020   3.44272   3.64205
 Alpha virt. eigenvalues --    3.66693   3.72636   3.78908   3.83807   3.86242
 Alpha virt. eigenvalues --    3.91035   3.91713   4.02936   4.19982   4.23290
 Alpha virt. eigenvalues --    4.70290   4.81080   4.88255   4.90080   5.18034
 Alpha virt. eigenvalues --    5.23027   5.28689   5.61448   5.76270  23.73423
 Alpha virt. eigenvalues --   23.80033  23.80614  23.84063  49.76917  49.83294
 Alpha virt. eigenvalues --   49.87726
  Beta  occ. eigenvalues --  -19.18563 -19.16095 -19.13208 -10.23611 -10.23032
  Beta  occ. eigenvalues --  -10.20036 -10.18622  -1.12506  -1.03917  -0.87976
  Beta  occ. eigenvalues --   -0.81233  -0.68908  -0.66756  -0.59924  -0.52723
  Beta  occ. eigenvalues --   -0.52384  -0.50084  -0.46996  -0.44260  -0.44076
  Beta  occ. eigenvalues --   -0.41214  -0.39977  -0.37339  -0.36117  -0.34787
  Beta  occ. eigenvalues --   -0.31735  -0.29387  -0.25528
  Beta virt. eigenvalues --   -0.11968   0.01962   0.04611   0.04906   0.06055
  Beta virt. eigenvalues --    0.07734   0.10182   0.11246   0.12264   0.12491
  Beta virt. eigenvalues --    0.15356   0.18743   0.20141   0.20823   0.21458
  Beta virt. eigenvalues --    0.22753   0.30025   0.31716   0.33008   0.36262
  Beta virt. eigenvalues --    0.38439   0.42286   0.44222   0.45587   0.46852
  Beta virt. eigenvalues --    0.49961   0.50618   0.51553   0.53802   0.55074
  Beta virt. eigenvalues --    0.55571   0.56626   0.59155   0.59907   0.61651
  Beta virt. eigenvalues --    0.62256   0.63493   0.67669   0.74758   0.78220
  Beta virt. eigenvalues --    0.80234   0.85104   0.86108   0.87740   0.91948
  Beta virt. eigenvalues --    0.94438   0.96134   0.99335   1.02094   1.04867
  Beta virt. eigenvalues --    1.09802   1.13730   1.19668   1.20510   1.27424
  Beta virt. eigenvalues --    1.29953   1.34866   1.35888   1.39607   1.39848
  Beta virt. eigenvalues --    1.42738   1.44237   1.45696   1.46935   1.48799
  Beta virt. eigenvalues --    1.51426   1.54449   1.56413   1.56789   1.57824
  Beta virt. eigenvalues --    1.59666   1.63848   1.66639   1.67947   1.69939
  Beta virt. eigenvalues --    1.73757   1.76135   1.78448   1.82515   1.85254
  Beta virt. eigenvalues --    1.91248   1.93346   1.97112   1.99758   2.00177
  Beta virt. eigenvalues --    2.02726   2.06995   2.10714   2.17798   2.21192
  Beta virt. eigenvalues --    2.21707   2.29042   2.33687   2.35041   2.36959
  Beta virt. eigenvalues --    2.40032   2.42290   2.45147   2.49458   2.51764
  Beta virt. eigenvalues --    2.54610   2.55184   2.56372   2.59977   2.61478
  Beta virt. eigenvalues --    2.67764   2.68225   2.72993   2.75452   2.77806
  Beta virt. eigenvalues --    2.82029   2.86460   2.86855   2.88350   2.99705
  Beta virt. eigenvalues --    3.01221   3.04753   3.10386   3.15621   3.20296
  Beta virt. eigenvalues --    3.21905   3.28979   3.32021   3.38464   3.45532
  Beta virt. eigenvalues --    3.65020   3.66799   3.73740   3.79766   3.85744
  Beta virt. eigenvalues --    3.86316   3.91126   3.92063   4.03205   4.20584
  Beta virt. eigenvalues --    4.23684   4.70829   4.81885   4.88877   4.90615
  Beta virt. eigenvalues --    5.21403   5.23205   5.29078   5.61498   5.77019
  Beta virt. eigenvalues --   23.73673  23.80106  23.80827  23.84724  49.77760
  Beta virt. eigenvalues --   49.83776  49.87761
          Condensed to atoms (all electrons):
              1          2          3          4          5          6
     1  C    4.890637   0.383118   0.393158   0.293504  -0.050709  -0.062218
     2  H    0.383118   0.549009  -0.025034  -0.039454  -0.009204   0.011579
     3  H    0.393158  -0.025034   0.594143  -0.068523   0.010266  -0.006774
     4  C    0.293504  -0.039454  -0.068523   5.383585   0.385342   0.260555
     5  H   -0.050709  -0.009204   0.010266   0.385342   0.600715  -0.036798
     6  C   -0.062218   0.011579  -0.006774   0.260555  -0.036798   5.269322
     7  H   -0.010632  -0.001906   0.000206   0.006023   0.000170   0.194205
     8  H    0.007061  -0.000188  -0.000170  -0.027227  -0.011094   0.390912
     9  H   -0.000054  -0.000254   0.002549  -0.045248   0.007854   0.397281
    10  C   -0.054277  -0.006483   0.006235   0.305929  -0.029467  -0.047322
    11  H   -0.013153  -0.001341   0.005237  -0.034877   0.009738  -0.003419
    12  H    0.010368   0.001101  -0.000544  -0.053961  -0.011584   0.004893
    13  O   -0.006193   0.022032  -0.001830  -0.043823  -0.001615   0.005526
    14  H   -0.002268  -0.000598  -0.000074   0.001682   0.006798  -0.000379
    15  O    0.235887  -0.016328  -0.033957  -0.042332   0.007292  -0.000226
    16  O   -0.048936   0.005247   0.010184  -0.025281  -0.000232  -0.064196
              7          8          9         10         11         12
     1  C   -0.010632   0.007061  -0.000054  -0.054277  -0.013153   0.010368
     2  H   -0.001906  -0.000188  -0.000254  -0.006483  -0.001341   0.001101
     3  H    0.000206  -0.000170   0.002549   0.006235   0.005237  -0.000544
     4  C    0.006023  -0.027227  -0.045248   0.305929  -0.034877  -0.053961
     5  H    0.000170  -0.011094   0.007854  -0.029467   0.009738  -0.011584
     6  C    0.194205   0.390912   0.397281  -0.047322  -0.003419   0.004893
     7  H    0.457448  -0.007651  -0.010044   0.002393  -0.000075  -0.000002
     8  H   -0.007651   0.535806  -0.027989   0.000153  -0.000762   0.002034
     9  H   -0.010044  -0.027989   0.544717  -0.005325   0.006318  -0.001230
    10  C    0.002393   0.000153  -0.005325   4.792842   0.388899   0.401049
    11  H   -0.000075  -0.000762   0.006318   0.388899   0.589625  -0.040473
    12  H   -0.000002   0.002034  -0.001230   0.401049  -0.040473   0.614931
    13  O   -0.000128  -0.000118   0.000070   0.276318  -0.029807  -0.027434
    14  H   -0.000009  -0.000016   0.000062  -0.048003   0.009671  -0.010517
    15  O   -0.038769   0.000247   0.000522   0.003547   0.000102  -0.000230
    16  O    0.168795   0.001692   0.002310  -0.000073  -0.000245   0.000017
             13         14         15         16
     1  C   -0.006193  -0.002268   0.235887  -0.048936
     2  H    0.022032  -0.000598  -0.016328   0.005247
     3  H   -0.001830  -0.000074  -0.033957   0.010184
     4  C   -0.043823   0.001682  -0.042332  -0.025281
     5  H   -0.001615   0.006798   0.007292  -0.000232
     6  C    0.005526  -0.000379  -0.000226  -0.064196
     7  H   -0.000128  -0.000009  -0.038769   0.168795
     8  H   -0.000118  -0.000016   0.000247   0.001692
     9  H    0.000070   0.000062   0.000522   0.002310
    10  C    0.276318  -0.048003   0.003547  -0.000073
    11  H   -0.029807   0.009671   0.000102  -0.000245
    12  H   -0.027434  -0.010517  -0.000230   0.000017
    13  O    7.882360   0.311170   0.000069  -0.000002
    14  H    0.311170   0.495604  -0.000049   0.000000
    15  O    0.000069  -0.000049   8.007747   0.078277
    16  O   -0.000002   0.000000   0.078277   8.098472
 Mulliken atomic charges:
              1
     1  C    0.034705
     2  H    0.128704
     3  H    0.114928
     4  C   -0.255894
     5  H    0.122525
     6  C   -0.312943
     7  H    0.239975
     8  H    0.137310
     9  H    0.128460
    10  C    0.013586
    11  H    0.114563
    12  H    0.111583
    13  O   -0.386595
    14  H    0.236923
    15  O   -0.201800
    16  O   -0.226029
 Sum of Mulliken charges=   0.00000
 Atomic charges with hydrogens summed into heavy atoms:
              1
     1  C    0.278337
     2  H    0.000000
     3  H    0.000000
     4  C   -0.133368
     5  H    0.000000
     6  C   -0.047173
     7  H    0.000000
     8  H    0.000000
     9  H    0.000000
    10  C    0.239731
    11  H    0.000000
    12  H    0.000000
    13  O   -0.149672
    14  H    0.000000
    15  O   -0.201800
    16  O    0.013945
 Sum of Mulliken charges=   0.00000
          Atomic-Atomic Spin Densities.
              1          2          3          4          5          6
     1  C    0.030053   0.001104  -0.005853   0.022078  -0.001292  -0.011467
     2  H    0.001104  -0.002293   0.000717  -0.000124   0.000115  -0.000132
     3  H   -0.005853   0.000717   0.006142  -0.001716   0.000164   0.004258
     4  C    0.022078  -0.000124  -0.001716  -0.024113   0.001015  -0.033692
     5  H   -0.001292   0.000115   0.000164   0.001015  -0.000111  -0.000540
     6  C   -0.011467  -0.000132   0.004258  -0.033692  -0.000540   0.684721
     7  H    0.000022   0.000021   0.002775  -0.002732   0.000514   0.045897
     8  H    0.000787   0.000008  -0.000266  -0.002175  -0.000048  -0.002958
     9  H    0.001486   0.000001  -0.001043  -0.000458  -0.000448  -0.003481
    10  C   -0.011374   0.000197   0.003126   0.006831   0.002211  -0.018598
    11  H    0.000245   0.000001  -0.000150   0.000920  -0.000081   0.000290
    12  H    0.000825   0.000002  -0.000294  -0.001623  -0.000386   0.006729
    13  O    0.001273  -0.000134  -0.000497   0.001442  -0.000381   0.000787
    14  H   -0.000038   0.000003   0.000041  -0.000059   0.000051  -0.000082
    15  O   -0.012407  -0.000026  -0.000700  -0.002861   0.000366   0.013923
    16  O    0.006061  -0.000055  -0.002910   0.006517  -0.000542  -0.076571
              7          8          9         10         11         12
     1  C    0.000022   0.000787   0.001486  -0.011374   0.000245   0.000825
     2  H    0.000021   0.000008   0.000001   0.000197   0.000001   0.000002
     3  H    0.002775  -0.000266  -0.001043   0.003126  -0.000150  -0.000294
     4  C   -0.002732  -0.002175  -0.000458   0.006831   0.000920  -0.001623
     5  H    0.000514  -0.000048  -0.000448   0.002211  -0.000081  -0.000386
     6  C    0.045897  -0.002958  -0.003481  -0.018598   0.000290   0.006729
     7  H   -0.060202  -0.001381  -0.000342   0.001095  -0.000050  -0.000174
     8  H   -0.001381  -0.016754   0.004031  -0.002110   0.000079   0.000705
     9  H   -0.000342   0.004031  -0.020782  -0.002029   0.000041   0.000822
    10  C    0.001095  -0.002110  -0.002029   0.077118  -0.001169  -0.009365
    11  H   -0.000050   0.000079   0.000041  -0.001169  -0.002145   0.000690
    12  H   -0.000174   0.000705   0.000822  -0.009365   0.000690   0.004828
    13  O   -0.000023   0.000053   0.000067  -0.010613   0.000219   0.001280
    14  H    0.000001  -0.000012  -0.000006   0.000128  -0.000035  -0.000118
    15  O    0.006056  -0.000704  -0.000418   0.000670  -0.000016  -0.000056
    16  O   -0.015522   0.002660   0.002526  -0.000696   0.000025   0.000068
             13         14         15         16
     1  C    0.001273  -0.000038  -0.012407   0.006061
     2  H   -0.000134   0.000003  -0.000026  -0.000055
     3  H   -0.000497   0.000041  -0.000700  -0.002910
     4  C    0.001442  -0.000059  -0.002861   0.006517
     5  H   -0.000381   0.000051   0.000366  -0.000542
     6  C    0.000787  -0.000082   0.013923  -0.076571
     7  H   -0.000023   0.000001   0.006056  -0.015522
     8  H    0.000053  -0.000012  -0.000704   0.002660
     9  H    0.000067  -0.000006  -0.000418   0.002526
    10  C   -0.010613   0.000128   0.000670  -0.000696
    11  H    0.000219  -0.000035  -0.000016   0.000025
    12  H    0.001280  -0.000118  -0.000056   0.000068
    13  O    0.016970   0.000220  -0.000018   0.000003
    14  H    0.000220  -0.000434   0.000011  -0.000002
    15  O   -0.000018   0.000011   0.116725  -0.041618
    16  O    0.000003  -0.000002  -0.041618   0.451115
 Mulliken atomic spin densities:
              1
     1  C    0.021501
     2  H   -0.000596
     3  H    0.003795
     4  C   -0.030751
     5  H    0.000606
     6  C    0.609084
     7  H   -0.024046
     8  H   -0.018083
     9  H   -0.020032
    10  C    0.035421
    11  H   -0.001135
    12  H    0.003933
    13  O    0.010648
    14  H   -0.000331
    15  O    0.078927
    16  O    0.331058
 Sum of Mulliken spin densities=   1.00000
 APT atomic charges:
              1
     1  C    0.387362
     2  H    0.026462
     3  H   -0.031120
     4  C   -0.160516
     5  H   -0.052429
     6  C    0.150861
     7  H   -0.061032
     8  H    0.003323
     9  H   -0.014364
    10  C    0.606955
    11  H   -0.029377
    12  H   -0.066293
    13  O   -0.614716
    14  H    0.253466
    15  O   -0.363359
    16  O   -0.035223
 Sum of APT charges=   0.00000
 APT Atomic charges with hydrogens summed into heavy atoms:
              1
     1  C    0.382704
     2  H    0.000000
     3  H    0.000000
     4  C   -0.212945
     5  H    0.000000
     6  C    0.139820
     7  H    0.000000
     8  H    0.000000
     9  H    0.000000
    10  C    0.511285
    11  H    0.000000
    12  H    0.000000
    13  O   -0.361250
    14  H    0.000000
    15  O   -0.363359
    16  O   -0.096255
 Sum of APT charges=   0.00000
 Electronic spatial extent (au):  <R**2>=  1409.3946
 Charge=     0.0000 electrons
 Dipole moment (field-independent basis, Debye):
    X=    -1.1475    Y=     1.3953    Z=     2.9122  Tot=     3.4270
 Quadrupole moment (field-independent basis, Debye-Ang):
   XX=   -41.9589   YY=   -46.3106   ZZ=   -36.9926
   XY=     3.6607   XZ=    -0.7646   YZ=     2.7041
 Traceless Quadrupole moment (field-independent basis, Debye-Ang):
   XX=    -0.2049   YY=    -4.5566   ZZ=     4.7615
   XY=     3.6607   XZ=    -0.7646   YZ=     2.7041
 Octapole moment (field-independent basis, Debye-Ang**2):
  XXX=   111.7191  YYY=  -153.1573  ZZZ=   -93.3706  XYY=    58.9174
  XXY=   -49.5415  XXZ=   -36.1821  XZZ=    36.5667  YZZ=   -29.6624
  YYZ=   -24.8928  XYZ=     3.8955
 Hexadecapole moment (field-independent basis, Debye-Ang**3):
 XXXX=  -411.1494 YYYY=  -968.4612 ZZZZ=  -424.8077 XXXY=   184.4834
 XXXZ=   177.1493 YYYX=   275.2679 YYYZ=  -164.4628 ZZZX=   169.5829
 ZZZY=  -152.9931 XXYY=  -246.0166 XXZZ=  -149.1995 YYZZ=  -169.2170
 XXYZ=   -72.9264 YYXZ=    77.7556 ZZXY=    58.9201
 N-N= 3.283036364322D+02 E-N=-1.556079982546D+03  KE= 3.821988465041D+02
  Exact polarizability:  57.931   0.856  68.530 -10.339   3.011  64.255
 Approx polarizability:  88.632   4.318  97.583 -15.474   4.161  93.231
                          Isotropic Fermi Contact Couplings
        Atom                 a.u.       MegaHertz       Gauss      10(-4) cm-1
     1  C(13)              0.00375       4.21761       1.50495       1.40684
     2  H(1)               0.00026       1.16252       0.41482       0.38778
     3  H(1)               0.00043       1.91136       0.68202       0.63756
     4  C(13)             -0.00779      -8.75814      -3.12512      -2.92140
     5  H(1)               0.00008       0.37282       0.13303       0.12436
     6  C(13)              0.09900     111.29186      39.71170      37.12297
     7  H(1)              -0.02566    -114.68309     -40.92178     -38.25416
     8  H(1)              -0.00367     -16.40206      -5.85266      -5.47114
     9  H(1)              -0.00533     -23.84011      -8.50674      -7.95221
    10  C(13)              0.04528      50.90188      18.16305      16.97904
    11  H(1)              -0.00064      -2.88088      -1.02797      -0.96096
    12  H(1)              -0.00033      -1.46440      -0.52253      -0.48847
    13  O(17)             -0.00044       0.26765       0.09550       0.08928
    14  H(1)              -0.00016      -0.70585      -0.25187      -0.23545
    15  O(17)              0.02290     -13.88152      -4.95327      -4.63038
    16  O(17)              0.01831     -11.10038      -3.96089      -3.70269
 --------------------------------------------------------
       Center         ----  Spin Dipole Couplings  ----
                      3XX-RR        3YY-RR        3ZZ-RR
 --------------------------------------------------------
     1   Atom       -0.014136     -0.020392      0.034527
     2   Atom       -0.003729      0.007323     -0.003594
     3   Atom       -0.002735      0.001410      0.001325
     4   Atom       -0.016712      0.009534      0.007178
     5   Atom        0.000663      0.002132     -0.002795
     6   Atom       -0.109203     -0.024587      0.133791
     7   Atom       -0.025776     -0.074477      0.100253
     8   Atom       -0.026803     -0.008784      0.035586
     9   Atom        0.044555     -0.030335     -0.014219
    10   Atom        0.005540      0.022376     -0.027916
    11   Atom        0.002022      0.001976     -0.003999
    12   Atom       -0.003451      0.003327      0.000124
    13   Atom       -0.020402      0.052933     -0.032532
    14   Atom       -0.001543      0.002690     -0.001147
    15   Atom       -0.223872     -0.232589      0.456461
    16   Atom       -0.512785     -0.794573      1.307358
 --------------------------------------------------------
                        XY            XZ            YZ
 --------------------------------------------------------
     1   Atom       -0.001876     -0.040868      0.002279
     2   Atom        0.004112     -0.002432     -0.001596
     3   Atom       -0.003719      0.002292     -0.005454
     4   Atom       -0.007042     -0.017127      0.024043
     5   Atom        0.006663      0.002939      0.005285
     6   Atom       -0.287905     -0.349521      0.406111
     7   Atom       -0.038929     -0.130759      0.064321
     8   Atom       -0.024217      0.006128     -0.022593
     9   Atom        0.000544      0.013245      0.019213
    10   Atom       -0.041627     -0.006544      0.008464
    11   Atom       -0.005381      0.002717     -0.001739
    12   Atom       -0.003133     -0.004630      0.004514
    13   Atom       -0.034513      0.000918      0.006482
    14   Atom        0.001633      0.002067      0.002319
    15   Atom       -0.013751     -0.150854     -0.080577
    16   Atom       -0.109123     -0.818295      0.314272
 --------------------------------------------------------


 ---------------------------------------------------------------------------------
              Anisotropic Spin Dipole Couplings in Principal Axis System
 ---------------------------------------------------------------------------------

       Atom             a.u.   MegaHertz   Gauss  10(-4) cm-1        Axes

              Baa    -0.0374    -5.016    -1.790    -1.673  0.8694  0.0299  0.4932
     1 C(13)  Bbb    -0.0205    -2.749    -0.981    -0.917 -0.0076  0.9989 -0.0470
              Bcc     0.0579     7.765     2.771     2.590 -0.4940  0.0371  0.8687
 
              Baa    -0.0064    -3.421    -1.221    -1.141  0.7913 -0.1687  0.5876
     2 H(1)   Bbb    -0.0027    -1.436    -0.512    -0.479 -0.5140  0.3368  0.7889
              Bcc     0.0091     4.857     1.733     1.620  0.3310  0.9263 -0.1798
 
              Baa    -0.0052    -2.754    -0.983    -0.919  0.7108  0.6416  0.2884
     3 H(1)   Bbb    -0.0033    -1.755    -0.626    -0.585 -0.6058  0.3499  0.7145
              Bcc     0.0085     4.509     1.609     1.504 -0.3575  0.6826 -0.6374
 
              Baa    -0.0267    -3.586    -1.280    -1.196  0.8027 -0.2134  0.5569
     4 C(13)  Bbb    -0.0111    -1.484    -0.529    -0.495  0.5146  0.7199 -0.4658
              Bcc     0.0378     5.070     1.809     1.691 -0.3015  0.6605  0.6876
 
              Baa    -0.0066    -3.508    -1.252    -1.170 -0.3429  0.6651 -0.6634
     5 H(1)   Bbb    -0.0041    -2.201    -0.785    -0.734  0.7348 -0.2500 -0.6305
              Bcc     0.0107     5.709     2.037     1.904  0.5852  0.7037  0.4030
 
              Baa    -0.3592   -48.196   -17.197   -16.076 -0.0158  0.7662 -0.6424
     6 C(13)  Bbb    -0.3575   -47.972   -17.118   -16.002  0.8767  0.3196  0.3595
              Bcc     0.7167    96.168    34.315    32.078 -0.4808  0.5575  0.6768
 
              Baa    -0.1080   -57.636   -20.566   -19.225  0.8311 -0.0882  0.5490
     7 H(1)   Bbb    -0.0947   -50.554   -18.039   -16.863  0.2159  0.9611 -0.1723
              Bcc     0.2028   108.190    38.605    36.088 -0.5125  0.2617  0.8178
 
              Baa    -0.0445   -23.745    -8.473    -7.921  0.7889  0.6045  0.1102
     8 H(1)   Bbb    -0.0038    -2.040    -0.728    -0.681 -0.5768  0.6668  0.4719
              Bcc     0.0483    25.786     9.201     8.601  0.2118 -0.4359  0.8747
 
              Baa    -0.0437   -23.299    -8.314    -7.772  0.0805  0.8178 -0.5698
     9 H(1)   Bbb    -0.0040    -2.146    -0.766    -0.716 -0.2217  0.5720  0.7897
              Bcc     0.0477    25.445     9.079     8.487  0.9718  0.0628  0.2274
 
              Baa    -0.0294    -3.939    -1.405    -1.314 -0.1795 -0.2978  0.9376
    10 C(13)  Bbb    -0.0284    -3.812    -1.360    -1.272  0.7573  0.5665  0.3249
              Bcc     0.0578     7.751     2.766     2.586 -0.6280  0.7683  0.1239
 
              Baa    -0.0051    -2.707    -0.966    -0.903 -0.4197 -0.0978  0.9024
    11 H(1)   Bbb    -0.0031    -1.667    -0.595    -0.556  0.5822  0.7337  0.3503
              Bcc     0.0082     4.374     1.561     1.459  0.6963 -0.6724  0.2510
 
              Baa    -0.0066    -3.536    -1.262    -1.179  0.8260  0.0044  0.5636
    12 H(1)   Bbb    -0.0022    -1.164    -0.415    -0.388  0.3964  0.7062 -0.5866
              Bcc     0.0088     4.700     1.677     1.568 -0.4006  0.7080  0.5816
 
              Baa    -0.0368     2.661     0.949     0.887  0.7032  0.3166 -0.6366
    13 O(17)  Bbb    -0.0302     2.184     0.779     0.728  0.6093  0.1931  0.7691
              Bcc     0.0669    -4.844    -1.729    -1.616 -0.3664  0.9287  0.0571
 
              Baa    -0.0034    -1.841    -0.657    -0.614 -0.6992 -0.0823  0.7102
    14 H(1)   Bbb    -0.0013    -0.668    -0.238    -0.223  0.6161 -0.5733  0.5401
              Bcc     0.0047     2.508     0.895     0.837  0.3627  0.8152  0.4515
 
              Baa    -0.2791    20.197     7.207     6.737  0.7601  0.6104  0.2228
    15 O(17)  Bbb    -0.2172    15.718     5.609     5.243 -0.6176  0.7853 -0.0444
              Bcc     0.4963   -35.915   -12.815   -11.980 -0.2020 -0.1038  0.9739
 
              Baa    -0.8454    61.173    21.828    20.405 -0.4143  0.8648 -0.2837
    16 O(17)  Bbb    -0.8207    59.384    21.190    19.808  0.8383  0.4840  0.2509
              Bcc     1.6661  -120.556   -43.018   -40.213 -0.3543  0.1339  0.9255
 

 ---------------------------------------------------------------------------------

 Use density number 0.
 Entering OneElI...
 Calculate overlap and kinetic energy integrals
    NBasis = 187  MinDer = 2  MaxDer = 2
 Requested accuracy = 0.1000D-12
 PrsmSu:  NPrtUS=   1 ThrOK=F
 PRISM was handed   130759727 working-precision words and  2540 shell-pairs
 Entering OneElI...
 Calculate potential energy integrals
    NBasis = 187  MinDer = 2  MaxDer = 2
 Requested accuracy = 0.1000D-12
 PrsmSu:  NPrtUS=   8 ThrOK=T
 PRISM was handed    16300785 working-precision words and  2386 shell-pairs
 PRISM was handed    16300785 working-precision words and  2386 shell-pairs
 PRISM was handed    16300785 working-precision words and  2386 shell-pairs
 PRISM was handed    16300785 working-precision words and  2386 shell-pairs
 PRISM was handed    16300785 working-precision words and  2386 shell-pairs
 PRISM was handed    16300785 working-precision words and  2386 shell-pairs
 PRISM was handed    16300785 working-precision words and  2386 shell-pairs
 PRISM was handed    16300785 working-precision words and  2386 shell-pairs
 Polarizability after L701:
                1             2             3
      1  0.579312D+02
      2  0.856406D+00  0.685300D+02
      3 -0.103389D+02  0.301128D+01  0.642547D+02
 Dipole Derivatives after L701:
               1            2            3            4            5
      1 0.344219D+00-0.185922D-01-0.119240D+00 0.272191D-01-0.624902D-01
      2-0.166454D+00 0.351534D+00 0.332324D-02-0.609061D-01-0.264612D-01
      3 0.397458D-01-0.628243D-01 0.466334D+00 0.145635D-01 0.443464D-01
               6            7            8            9           10
      1-0.234129D-02-0.620157D-01-0.244469D-01-0.493799D-01-0.533642D-01
      2 0.224749D-01 0.673530D-01 0.280381D-01 0.124850D-01 0.196975D+00
      3 0.786266D-01-0.107880D+00-0.219718D-01-0.593829D-01 0.170619D+00
              11           12           13           14           15
      1-0.451748D-01 0.177736D+00-0.973465D-01-0.244833D-01-0.689415D-01
      2-0.292492D+00 0.457077D-01-0.290615D-01-0.538060D-02-0.299212D-01
      3 0.473216D-01-0.135692D+00-0.823454D-01-0.300763D-01-0.545601D-01
              16           17           18           19           20
      1 0.201038D+00-0.160061D+00-0.686999D-01-0.759021D-01 0.623741D-01
      2 0.102508D+00-0.355648D-02-0.100861D+00-0.350465D-01 0.207652D+00
      3-0.129869D+00 0.234160D+00 0.255101D+00 0.312067D+00-0.134913D+00
              21           22           23           24           25
      1 0.310110D+00 0.311750D-01 0.117321D-01-0.521616D-02-0.102906D+00
      2 0.262382D-01-0.307863D-01 0.567401D-01 0.123495D+00-0.602238D-01
      3-0.314844D+00 0.985190D-02-0.113102D-01-0.779451D-01-0.226081D-01
              26           27           28           29           30
      1 0.495168D-01-0.124587D-01 0.453761D+00 0.816158D-01-0.848810D-01
      2 0.653357D-01 0.261343D-01-0.273122D-01 0.982094D+00-0.517002D-02
      3-0.186898D-01-0.552213D-02-0.172713D+00 0.477867D-01 0.385010D+00
              31           32           33           34           35
      1-0.679495D-01-0.305081D-01-0.111684D+00 0.697235D-02-0.360616D-01
      2-0.811457D-02-0.304553D-02-0.374502D-02 0.245321D-01-0.452912D-01
      3-0.605281D-01-0.119360D-01-0.171354D-01 0.615847D-01 0.258279D-01
              36           37           38           39           40
      1 0.106408D+00-0.433708D+00-0.307774D-01 0.128521D+00 0.208894D+00
      2 0.239923D-02-0.129000D+00-0.108767D+01-0.407288D-01-0.261533D-01
      3-0.160561D+00 0.158168D+00-0.138573D+00-0.322772D+00-0.836906D-01
              41           42           43           44           45
      1 0.164204D-01-0.936635D-01-0.470293D+00-0.196207D+00 0.538383D-01
      2 0.341066D+00 0.699866D-01 0.985092D-01-0.281424D+00-0.496926D-01
      3 0.949903D-01 0.210439D+00 0.312957D+00 0.323097D+00-0.338359D+00
              46           47           48
      1 0.902075D-01 0.407143D+00-0.160107D+00
      2 0.831808D-01-0.287140D+00-0.102126D+00
      3-0.419924D+00-0.387235D+00 0.912630D-01
 Hessian after L701:
                1             2             3             4             5
      1  0.166958D+02
      2  0.284157D+01  0.150236D+02
      3  0.250963D+01 -0.144875D+01  0.166588D+02
      4 -0.406137D+01  0.138839D+01 -0.207484D+00  0.409888D+01
      5  0.134546D+01 -0.237956D+01 -0.394687D+00 -0.142508D+01  0.191050D+01
      6 -0.270876D+00 -0.521764D+00 -0.474857D+01  0.438817D+00  0.437815D+00
      7 -0.276720D+01  0.799256D-02  0.162248D+01 -0.545461D-01 -0.870792D-01
      8 -0.985174D-01 -0.487636D+01 -0.835339D-01 -0.106468D+00  0.431874D-01
      9  0.178546D+01  0.104846D-02 -0.353124D+01 -0.599368D-01 -0.401360D-01
     10 -0.488933D+01  0.147882D+00 -0.229103D+01  0.113393D-01 -0.549947D-01
     11  0.121756D+00 -0.605333D+01 -0.132465D+00 -0.812701D-01  0.685622D-01
     12 -0.227559D+01 -0.142374D+00 -0.913107D+00  0.927023D-01  0.554905D-01
     13  0.193771D+00  0.198456D-01 -0.343766D-02  0.250723D-01 -0.112750D-01
     14  0.842340D-02  0.173522D+00  0.312899D-01 -0.435749D-02  0.139351D-01
     15 -0.270572D-01  0.512752D-01 -0.964292D-01  0.902222D-02  0.351390D-01
     16  0.959131D-01  0.700607D-02 -0.102758D+00  0.238321D-01  0.128839D+00
     17  0.292154D-01 -0.177212D-01 -0.587575D-02  0.119980D+00  0.962162D-01
     18 -0.146235D+00 -0.183610D-01  0.153953D+00 -0.921521D-01 -0.137453D+00
     19  0.716844D-02 -0.214282D-01 -0.788966D-02  0.119152D-02 -0.445274D-02
     20 -0.983966D-02 -0.144330D+00 -0.291498D-01 -0.477669D-02 -0.128452D-01
     21 -0.318169D-02 -0.271945D-01  0.452796D-01  0.133163D-02  0.403779D-02
     22 -0.415176D-01  0.244745D-01 -0.280312D-01 -0.197664D-02 -0.178771D-02
     23  0.374333D-01  0.285709D-01 -0.110718D+00  0.282932D-02  0.516143D-02
     24 -0.442257D-01 -0.108874D+00  0.902093D-01 -0.503247D-02 -0.900971D-02
     25  0.365172D-01  0.303839D-01 -0.251602D-01  0.594168D-02  0.102025D-01
     26  0.244849D-01 -0.148734D-01 -0.104626D-01  0.135606D-02  0.142410D-02
     27 -0.146447D-01 -0.119164D-01 -0.160798D-01  0.145933D-02  0.182436D-02
     28 -0.431601D-01  0.238409D-01 -0.197533D-01  0.176645D-01  0.242478D-01
     29 -0.145023D-02 -0.232322D-01  0.898992D-02  0.167771D-01 -0.112429D-01
     30 -0.966875D-01  0.491899D-01  0.155075D+00 -0.153739D-01 -0.283451D-01
     31 -0.691413D-01  0.353137D-01  0.347011D-01  0.471670D-02  0.101013D-01
     32  0.601862D-01 -0.301103D-02 -0.228593D-01  0.206347D-02  0.122745D-02
     33  0.408381D-01 -0.237888D-01  0.190241D-01  0.731517D-02  0.319853D-02
     34  0.194324D-01 -0.536099D-01 -0.127156D+00  0.102574D-01  0.394476D-02
     35 -0.452811D-01 -0.355918D-01  0.772101D-01  0.544001D-03 -0.538702D-02
     36 -0.132505D+00  0.932366D-01  0.147716D+00 -0.227302D-01 -0.836431D-02
     37 -0.262781D+00 -0.173849D+00 -0.484705D-01  0.147938D-02 -0.741997D-01
     38 -0.818505D-01  0.353692D+00  0.213264D+00 -0.168950D+00 -0.518850D-01
     39 -0.372728D-01  0.280813D+00 -0.178559D+00 -0.156040D+00  0.921125D-01
     40 -0.925990D-02  0.198092D-01  0.516833D-02 -0.736344D-02 -0.329493D-02
     41 -0.202575D-02 -0.923955D-02 -0.579050D-02 -0.469604D-02 -0.513754D-02
     42 -0.236239D-02  0.252176D-01  0.623967D-03 -0.104650D-01 -0.467498D-02
     43 -0.467778D+01 -0.426375D+01 -0.138734D+01 -0.315648D-01  0.690597D-01
     44 -0.423308D+01 -0.224519D+01  0.151926D+01  0.173136D+00  0.973011D-01
     45 -0.134980D+01  0.157357D+01 -0.787851D+01  0.982975D-02 -0.383414D-01
     46 -0.227099D+00 -0.338699D-01  0.765208D-01 -0.435485D-01  0.703028D-01
     47  0.350590D-02  0.223086D+00  0.394286D+00  0.905212D-01  0.228540D+00
     48  0.645176D-01  0.228678D+00  0.918164D-01  0.873676D-02  0.313936D-01
                6             7             8             9            10
      6  0.476985D+01
      7 -0.593140D-01  0.264699D+01
      8 -0.465449D-01  0.137724D+00  0.457989D+01
      9  0.780901D-01 -0.182724D+01  0.120296D+00  0.332668D+01
     10  0.121109D+00  0.239482D+00 -0.728394D-02 -0.146767D+00  0.170411D+02
     11  0.111442D+00 -0.263598D-01  0.265745D+00 -0.948234D-01  0.684889D+00
     12  0.207740D-01 -0.102680D+00 -0.379932D-01 -0.294349D+00  0.187697D+01
     13  0.855020D-02  0.289777D-02  0.107185D-02  0.949452D-01 -0.280785D+01
     14  0.396019D-01  0.423452D-02 -0.425039D-01  0.623304D-02  0.269582D+00
     15 -0.714213D-01  0.933198D-01 -0.187250D-02  0.143764D+00  0.153344D+01
     16 -0.874392D-01  0.235809D-02  0.797015D-03  0.903133D-03 -0.511387D+01
     17 -0.120804D+00 -0.303877D-02 -0.231133D-01  0.419566D-01  0.205789D+01
     18  0.221791D-01  0.152013D-01  0.365656D-01 -0.497424D-01 -0.310102D+00
     19  0.120885D-02 -0.258843D-02  0.377385D-04  0.126068D-02 -0.860744D-01
     20  0.494021D-02 -0.293528D-02 -0.110920D-01 -0.167919D-02 -0.204605D-01
     21  0.135868D-02  0.109496D-02  0.489011D-02 -0.462562D-02  0.362729D-02
     22  0.147255D-02  0.123501D-03 -0.538749D-03  0.221242D-02  0.456655D-01
     23 -0.246689D-03 -0.462146D-02  0.236916D-03 -0.661244D-02 -0.359176D-01
     24  0.182746D-02  0.774841D-02 -0.301835D-02  0.103208D-01  0.366082D-01
     25 -0.210940D-02 -0.101035D-01  0.175377D-01 -0.319840D-01  0.511161D-01
     26  0.187780D-03  0.774131D-02  0.230063D-02 -0.249322D-01 -0.134552D+00
     27 -0.186813D-02 -0.122796D-01 -0.185560D-01  0.142662D-01  0.154492D-01
     28 -0.143237D-03 -0.606307D-01 -0.775569D-02 -0.105624D-01 -0.423086D+01
     29 -0.174674D-01  0.678020D-02 -0.265787D-01  0.844052D-01 -0.249786D+01
     30 -0.156885D-01  0.170383D-01  0.666927D-01  0.106627D+00 -0.474335D+00
     31 -0.217323D-03 -0.204830D-02 -0.246590D-01 -0.567308D-01  0.131128D-01
     32 -0.128961D-02 -0.168429D-01 -0.123133D-01  0.271229D-01  0.113980D+00
     33 -0.288863D-02 -0.299170D-01  0.199360D-01  0.162176D-01 -0.377156D-01
     34 -0.162273D-01 -0.312634D-02  0.170399D-03 -0.848543D-03  0.989675D-01
     35  0.405751D-04  0.647618D-03 -0.976411D-03 -0.150101D-02  0.104305D+00
     36  0.173924D-01  0.845726D-02 -0.300803D-03  0.417058D-02  0.138427D+00
     37 -0.146606D+00 -0.311448D-01 -0.399587D-02 -0.840685D-02 -0.192163D+00
     38  0.164941D+00  0.261811D-01  0.298045D-02  0.458778D-01 -0.422915D+00
     39  0.310842D-02  0.197873D-01  0.293664D-01  0.191169D-01  0.956578D-02
     40  0.460281D-02  0.407919D-02  0.250787D-02  0.687195D-02 -0.269103D-01
     41  0.506460D-02  0.401453D-02  0.128419D-02  0.577179D-02  0.341306D-02
     42  0.867668D-02  0.789139D-02  0.460079D-02  0.846564D-02  0.152773D-01
     43  0.375022D-02  0.120239D+00  0.985430D-01  0.246060D+00 -0.121385D+00
     44 -0.579656D-01  0.211589D-01  0.215645D-01 -0.125249D+00  0.822674D-02
     45 -0.232846D-01  0.252876D+00 -0.121841D+00  0.250810D+00 -0.368210D+00
     46  0.342139D-02 -0.847823D-01 -0.917026D-02  0.476593D-02 -0.323843D-01
     47  0.204809D-02 -0.755971D-01  0.757482D-01 -0.377789D-01 -0.216185D+00
     48 -0.595358D-01 -0.144705D-01  0.313131D-01 -0.985650D-01 -0.122314D+00
               11            12            13            14            15
     11  0.138499D+02
     12 -0.344498D+00  0.163547D+02
     13  0.280531D+00  0.141477D+01  0.252286D+01
     14 -0.487886D+01  0.162748D+00 -0.181043D+00  0.471065D+01
     15  0.181682D+00 -0.385065D+01 -0.176269D+01 -0.432091D+00  0.355429D+01
     16  0.214942D+01 -0.265463D+00  0.686049D-01 -0.110041D+00  0.327507D-01
     17 -0.148518D+01 -0.966738D+00 -0.884905D-01 -0.301543D-01  0.332742D-02
     18 -0.107984D+01 -0.587768D+01  0.446715D-01  0.896110D-02  0.134250D+00
     19 -0.386534D-01 -0.708875D-02 -0.299980D-02  0.169860D-02  0.185206D-02
     20  0.202509D+00  0.980946D-02  0.657967D-02  0.411781D-03  0.509979D-02
     21  0.582736D-01 -0.102116D+00  0.544030D-02  0.299026D-02  0.232993D-03
     22 -0.538459D-01  0.468833D-01 -0.433022D-02 -0.542393D-01  0.118916D-01
     23  0.239281D-01  0.415349D-01 -0.495730D-01 -0.525314D-01  0.222203D-01
     24  0.954743D-02  0.600185D-01  0.944402D-02  0.252913D-01  0.220191D-01
     25 -0.910759D-01 -0.255670D-01  0.973507D-01  0.703143D-01  0.476585D-01
     26  0.229062D-01 -0.303605D-01  0.725879D-01  0.663408D-02  0.275650D-01
     27  0.591774D-02  0.130494D+00  0.319163D-01  0.175766D-01 -0.186624D-01
     28 -0.256162D+01 -0.458975D+00 -0.388431D-01  0.758634D-01  0.255713D-01
     29 -0.205674D+01  0.831369D+00  0.306311D-01  0.612205D-01 -0.142830D-01
     30  0.897768D+00 -0.580863D+01  0.397653D-01 -0.999309D-03  0.110567D+00
     31  0.636865D-01 -0.105823D+00  0.135775D+00 -0.531641D-01  0.745942D-01
     32  0.295346D-01  0.773414D-01 -0.524251D-01 -0.252089D-01 -0.247440D-01
     33  0.310115D-01  0.835382D-01  0.667942D-01 -0.213119D-01 -0.988873D-02
     34  0.102839D+00  0.163775D+00 -0.715974D-01  0.468324D-01  0.309910D-01
     35  0.647548D-01 -0.187119D+00  0.502021D-01  0.150510D-01 -0.116809D-01
     36 -0.162367D+00 -0.342221D-01  0.333131D-01 -0.183780D-01  0.202343D-01
     37 -0.501375D+00 -0.714116D-02  0.107518D-01 -0.233610D-01  0.111523D-01
     38  0.101608D+00  0.190937D+00 -0.590423D-01 -0.298533D-01 -0.456277D-02
     39  0.109710D+00 -0.764464D-01  0.744120D-02  0.159237D-01 -0.375201D-01
     40  0.428593D-01  0.266657D-01 -0.326359D-01 -0.127983D-01 -0.495827D-02
     41  0.264046D-01  0.770406D-01 -0.411752D-01  0.815291D-01 -0.759568D-02
     42  0.110928D+00  0.161379D-01 -0.134571D-01  0.162787D-01 -0.356840D-01
     43  0.138798D+00 -0.244983D+00 -0.707609D-01 -0.435477D-01 -0.835442D-01
     44 -0.288769D+00  0.217746D+00 -0.557484D-02 -0.223208D-01  0.114502D+00
     45  0.200381D+00  0.443304D+00 -0.995465D-02  0.981763D-01  0.985062D-01
     46 -0.230586D+00 -0.128456D+00 -0.280612D-01  0.560247D-02  0.600738D-02
     47  0.106970D+00  0.450657D-01  0.271488D-01  0.184801D-01  0.560190D-01
     48  0.973359D-01 -0.151717D+00  0.324841D-01  0.477094D-01  0.363940D-01
               16            17            18            19            20
     16  0.126177D+02
     17 -0.151300D+01  0.107627D+02
     18  0.675164D+00  0.109665D+01  0.125746D+02
     19 -0.154478D+01 -0.530922D+00 -0.916986D+00  0.402524D+01
     20 -0.680440D+00 -0.153332D+01  0.110379D+01  0.104930D+01  0.489938D+01
     21 -0.943203D+00  0.872488D+00 -0.591389D+00  0.281448D+01 -0.150219D+01
     22 -0.411514D+01 -0.293190D+00  0.488872D+00  0.967583D-02  0.150381D-02
     23 -0.370628D+00 -0.354667D+01 -0.120487D+01  0.461209D-02  0.156814D-01
     24  0.584748D+00 -0.117276D+01 -0.224650D+01  0.197413D-02 -0.236053D-02
     25 -0.167747D+01  0.360780D+00  0.896234D+00 -0.102270D-01  0.135104D-01
     26  0.490715D+00 -0.435606D+01  0.186298D+00  0.210542D-01  0.168461D-01
     27  0.731841D+00  0.109526D+00 -0.417135D+01  0.339942D-01 -0.110997D-01
     28 -0.460791D-01 -0.858752D-01 -0.307011D-01 -0.168417D-01 -0.212893D-01
     29 -0.211189D+00  0.140924D+00  0.126517D+00 -0.264821D-01  0.661812D-01
     30 -0.296692D-01  0.572119D-01 -0.675171D-01 -0.954592D-02  0.319185D-01
     31  0.187646D-01 -0.392529D-01  0.111459D-01  0.679987D-03 -0.355704D-02
     32 -0.287014D-01 -0.908859D-02 -0.603241D-02 -0.122046D-02 -0.119739D-03
     33  0.246396D-01 -0.243936D-01 -0.134120D-01  0.131166D-02 -0.207734D-02
     34 -0.468186D-01 -0.302045D-01 -0.176999D-01 -0.479684D-03 -0.274226D-02
     35 -0.164296D-01  0.463381D-01  0.463970D-01 -0.206272D-02  0.214324D-02
     36 -0.256706D-01  0.827813D-01 -0.619553D-02 -0.223613D-02  0.479518D-02
     37 -0.172838D+00  0.479271D-01 -0.122463D-01 -0.958707D-02 -0.270150D-02
     38  0.481065D-01  0.415087D+00 -0.485614D-01 -0.282334D-02  0.139937D-01
     39 -0.978032D-02 -0.648325D-01 -0.171255D+00 -0.140352D-03  0.112753D-02
     40 -0.863793D-02  0.174207D-01  0.439708D-02 -0.882691D-03  0.194832D-02
     41  0.303555D-02  0.175638D-01  0.536154D-02 -0.124277D-03  0.172846D-02
     42  0.150045D-02  0.166644D-01 -0.448302D-02  0.417050D-04  0.216371D-02
     43  0.126544D-02 -0.120584D-01 -0.440045D+00 -0.443174D-01 -0.231053D+00
     44  0.316144D-01 -0.341020D+00 -0.701485D-01 -0.183848D+00  0.113490D-02
     45 -0.444985D+00 -0.473972D-01  0.238949D+00  0.567401D-01  0.883859D-01
     46 -0.102788D+00 -0.371800D-01 -0.169519D+00 -0.232518D+01 -0.930427D-01
     47  0.708941D-01 -0.136484D+00 -0.452688D-01 -0.264681D+00 -0.351830D+01
     48 -0.142579D+00  0.122190D+00  0.756136D-01 -0.196898D+01  0.296521D+00
               21            22            23            24            25
     21  0.119246D+01
     22  0.226658D-01  0.421897D+01
     23 -0.207186D-01  0.376077D+00  0.337199D+01
     24 -0.154332D-01 -0.389424D+00  0.134924D+01  0.190751D+01
     25  0.484060D-02 -0.225662D-01  0.403180D-01 -0.120647D+00  0.140183D+01
     26 -0.717207D-02  0.408265D-01  0.883684D-01  0.286806D-01 -0.513968D+00
     27  0.711963D-02 -0.128979D+00  0.314378D-01 -0.157099D-01 -0.602491D+00
     28 -0.128206D-01 -0.267242D-01 -0.743254D-02  0.304778D-02  0.283544D-02
     29  0.359503D-01 -0.253758D-01  0.635652D-01 -0.609059D-01  0.259857D-01
     30 -0.137515D-01  0.132956D-01 -0.427965D-01  0.696415D-04 -0.137408D-02
     31 -0.107726D-02  0.277282D-02 -0.445692D-02  0.693152D-02 -0.363075D-01
     32  0.704055D-03  0.101260D-02 -0.381654D-02  0.708354D-03  0.661271D-02
     33 -0.234717D-02  0.256100D-02 -0.393949D-02  0.583474D-02 -0.748352D-02
     34 -0.198349D-02 -0.352658D-02 -0.167820D-01  0.432465D-02 -0.264322D-02
     35  0.315068D-02 -0.125705D-01  0.285803D-01 -0.494491D-02  0.305213D-02
     36  0.204176D-02 -0.553052D-02  0.141614D-01 -0.174213D-01  0.111498D-01
     37 -0.377868D-03 -0.101270D-01 -0.501448D-02  0.597626D-02 -0.780434D-02
     38  0.442645D-02 -0.920977D-02  0.325992D-01 -0.319445D-01  0.450274D-01
     39 -0.103452D-01  0.407409D-02 -0.183488D-01  0.197187D-02 -0.425587D-02
     40  0.111306D-02 -0.227090D-02  0.567908D-02 -0.535472D-02  0.673566D-02
     41  0.120252D-02 -0.724193D-03  0.450136D-02 -0.433980D-02  0.659567D-02
     42  0.356764D-03 -0.113888D-02  0.484308D-02 -0.590394D-02  0.709908D-02
     43  0.945337D-01 -0.102789D-01  0.230495D-01 -0.509649D-01  0.819990D-01
     44  0.865216D-01  0.531881D-02 -0.137674D-01 -0.195769D-01  0.871848D-02
     45  0.228214D+00 -0.245167D-01 -0.352456D-01  0.650941D-01 -0.523948D-01
     46 -0.198649D+01 -0.387461D-01  0.442762D-02 -0.451552D-01  0.828014D-01
     47  0.482638D+00  0.226795D-02 -0.463973D-01  0.426655D-02 -0.339948D-01
     48 -0.737052D+00 -0.163091D-01 -0.199341D-01  0.136097D+00 -0.935151D-01
               26            27            28            29            30
     26  0.420217D+01
     27 -0.164425D+00  0.416293D+01
     28 -0.358808D-02  0.783657D-02  0.171522D+02
     29  0.196950D-02  0.242678D-01 -0.770501D+00  0.107622D+02
     30  0.111630D-02 -0.161008D-01  0.924593D+00  0.133390D+00  0.184198D+02
     31 -0.225697D-01 -0.636448D-03 -0.252373D+01  0.402152D+00  0.159348D+01
     32  0.676964D-01 -0.819646D-02  0.293696D+00 -0.458616D+01  0.202135D+00
     33 -0.182732D-01 -0.276395D-01  0.139457D+01  0.246685D+00 -0.358553D+01
     34 -0.145381D-02 -0.162473D-02 -0.404109D+01  0.165552D+00 -0.108654D+01
     35 -0.674372D-02 -0.123940D-02  0.112449D+00 -0.445066D+01 -0.240293D+00
     36  0.189772D-02  0.392701D-02 -0.102044D+01 -0.353177D+00 -0.180270D+01
     37  0.141505D-01  0.152143D-02 -0.620216D+01  0.319999D+01 -0.601205D+00
     38  0.327221D-01  0.110722D-01  0.328072D+01 -0.103343D+00 -0.128640D+01
     39 -0.541947D-03 -0.183999D-01 -0.596951D+00 -0.130164D+01 -0.754432D+01
     40  0.500553D-02  0.262605D-02  0.780396D-01 -0.158403D-01 -0.434864D-01
     41  0.456128D-02  0.202989D-02 -0.121101D+00  0.670452D-01 -0.908006D-01
     42  0.389296D-02  0.969216D-03 -0.228881D-01 -0.127924D-01  0.140054D+00
     43  0.181700D-01 -0.244954D-01  0.539673D-01 -0.205338D+00 -0.178045D+00
     44 -0.241287D-01 -0.996916D-03 -0.175970D+00  0.252959D-01  0.151256D+00
     45 -0.922574D-02 -0.177270D-01 -0.150598D+00  0.154726D+00 -0.365002D-01
     46 -0.199610D-01 -0.414940D-01 -0.746160D-01 -0.938312D-01 -0.519195D-01
     47 -0.457941D-01  0.127779D-01 -0.556813D-01  0.695256D-01  0.989518D-01
     48  0.157555D-01 -0.161677D-01 -0.317848D-01  0.113964D+00 -0.414435D-01
               31            32            33            34            35
     31  0.206027D+01
     32 -0.274008D+00  0.463395D+01
     33 -0.161576D+01 -0.351237D+00  0.359812D+01
     34  0.127273D+00  0.305334D-02 -0.975157D-01  0.386307D+01
     35 -0.175335D-02  0.146701D+00 -0.502527D-02 -0.558332D-01  0.438089D+01
     36 -0.109386D+00  0.152090D-01 -0.174250D+00  0.124433D+01  0.275131D+00
     37  0.114132D+00 -0.159796D+00  0.167410D+00  0.828121D-01 -0.608823D-01
     38 -0.124189D+00 -0.256238D+00  0.103967D+00 -0.640315D-01 -0.143968D+00
     39  0.120646D+00  0.292786D-01  0.125007D+00 -0.994771D-01  0.107858D-01
     40  0.102477D+00  0.839390D-01  0.754514D-01 -0.331369D-01 -0.673576D-01
     41  0.103781D+00  0.182932D-01  0.539435D-01 -0.763519D-01 -0.356708D-01
     42  0.845858D-01  0.503316D-01  0.360482D-02  0.301933D-01  0.252964D-01
     43  0.367206D-01 -0.179728D-01  0.207665D-02  0.259644D-02 -0.321306D-02
     44 -0.386655D-01 -0.416577D-02 -0.322138D-02 -0.100382D-01 -0.819886D-02
     45 -0.218121D-01  0.598081D-02 -0.184297D-01 -0.131552D-01  0.298813D-02
     46  0.145329D-01 -0.135768D-01  0.542176D-02 -0.198377D-02 -0.581544D-02
     47 -0.287575D-01  0.272408D-02 -0.547385D-02 -0.113451D-01  0.273305D-02
     48 -0.146473D-01  0.554657D-02 -0.169601D-01 -0.113886D-01  0.108040D-01
               36            37            38            39            40
     36  0.145599D+01
     37 -0.997644D-01  0.105617D+02
     38 -0.182231D-01 -0.320093D+01  0.546929D+01
     39  0.331645D+00 -0.164329D+01 -0.309687D+00  0.119098D+02
     40  0.208949D-01 -0.376616D+01  0.919784D+00  0.246789D+01  0.371813D+01
     41  0.305079D-01  0.115974D+01 -0.608405D+01  0.948052D+00 -0.102425D+01
     42  0.184484D-01  0.249425D+01  0.752622D+00 -0.422497D+01 -0.257792D+01
     43 -0.212123D-01 -0.521295D-01 -0.133295D+00 -0.658013D-01 -0.137558D-01
     44  0.201187D-01 -0.164946D+00  0.141403D+00  0.117929D+00  0.135865D-01
     45  0.161025D-01 -0.861240D-01  0.131293D+00 -0.732541D-01  0.834547D-02
     46 -0.170916D-01 -0.640019D-01 -0.525807D-01 -0.163953D-01 -0.844275D-02
     47  0.229715D-01 -0.507608D-01  0.105962D+00  0.599478D-01  0.110045D-01
     48  0.171157D-01 -0.266843D-01  0.809733D-01 -0.555794D-01  0.769679D-02
               41            42            43            44            45
     41  0.588190D+01
     42 -0.104859D+01  0.405496D+01
     43 -0.750776D-02 -0.895262D-02  0.781318D+01
     44  0.170862D-01  0.341215D-01  0.372376D+00  0.120614D+01
     45  0.175639D-01  0.120394D-01  0.157960D+01 -0.195094D+01  0.127415D+02
     46 -0.261931D-02 -0.365795D-02 -0.308799D+01  0.417798D+01  0.614159D+00
     47  0.121982D-01  0.190922D-01  0.419774D+01  0.143764D+01 -0.700721D-01
     48  0.105738D-01  0.670505D-02  0.579358D+00 -0.333534D-01 -0.604677D+01
               46            47            48
     46  0.602229D+01
     47 -0.366608D+01  0.146338D+01
     48  0.174988D+01 -0.103947D+01  0.686005D+01
 ReadGW:  IGet=0 IStart=         114 Next=        7220 LGW=        7106.
 ICntrl=12127.
 Symmetry not used in FoFDir.
 MinBra= 0 MaxBra= 2 Meth= 1.
 IRaf=       0 NMat=   1 IRICut=       1 DoRegI=T DoRafI=F ISym2E= 0 JSym2E=0.
 PrsmSu:  NPrtUS=   8 ThrOK=T
 PRISM was handed    16286956 working-precision words and  2454 shell-pairs
 PRISM was handed    16286956 working-precision words and  2454 shell-pairs
 PRISM was handed    16286956 working-precision words and  2454 shell-pairs
 PRISM was handed    16286956 working-precision words and  2454 shell-pairs
 PRISM was handed    16286956 working-precision words and  2454 shell-pairs
 PRISM was handed    16286956 working-precision words and  2454 shell-pairs
 PRISM was handed    16286956 working-precision words and  2454 shell-pairs
 PRISM was handed    16286956 working-precision words and  2454 shell-pairs
 Pruned (  75, 302) grid will be used in CalDFT.
 CkSvGd:  ISavGI=        -1 IRadAn=       4 IRASav=       4 ISavGd=        -1.
 CalDSu:  NPrtUS=   8 ThrOK=T
 IPart= 0 IRanGd=          0 ScrnBf=T ScrnGd=T RCrit=4.00D+00 DoMicB=T.
 IPart= 5 IRanGd=          0 ScrnBf=T ScrnGd=T RCrit=4.00D+00 DoMicB=T.
 IPart= 3 IRanGd=          0 ScrnBf=T ScrnGd=T RCrit=4.00D+00 DoMicB=T.
 IPart= 1 IRanGd=          0 ScrnBf=T ScrnGd=T RCrit=4.00D+00 DoMicB=T.
 CutRad = 1000.00    CtRdIn =    0.00    XCrit =  15.00   ICut = 0
 IPart= 7 IRanGd=          0 ScrnBf=T ScrnGd=T RCrit=4.00D+00 DoMicB=T.
 CutRad = 1000.00    CtRdIn =    0.00    XCrit =  15.00   ICut = 0
 CutRad = 1000.00    CtRdIn =    0.00    XCrit =  15.00   ICut = 0
 CutRad = 1000.00    CtRdIn =    0.00    XCrit =  15.00   ICut = 0
 IPart= 4 IRanGd=          0 ScrnBf=T ScrnGd=T RCrit=4.00D+00 DoMicB=T.
 IPart= 6 IRanGd=          0 ScrnBf=T ScrnGd=T RCrit=4.00D+00 DoMicB=T.
 CutRad = 1000.00    CtRdIn =    0.00    XCrit =  15.00   ICut = 0
 CutRad = 1000.00    CtRdIn =    0.00    XCrit =  15.00   ICut = 0
 CutRad = 1000.00    CtRdIn =    0.00    XCrit =  15.00   ICut = 0
 IPart= 2 IRanGd=          0 ScrnBf=T ScrnGd=T RCrit=4.00D+00 DoMicB=T.
 CutRad = 1000.00    CtRdIn =    0.00    XCrit =  15.00   ICut = 0
 IPart= 3        14300 of        16964 points in      36 batches and      101 microbatches, Max-NSigAt=      16 Max-NSgAt2=      16
 IPart= 1        13769 of        15690 points in      33 batches and       95 microbatches, Max-NSigAt=      16 Max-NSgAt2=      16
 IPart= 5        14065 of        15824 points in      32 batches and       98 microbatches, Max-NSigAt=      16 Max-NSgAt2=      16
 IPart= 0        14782 of        16452 points in      33 batches and       90 microbatches, Max-NSigAt=      16 Max-NSgAt2=      16
 IPart= 4        14315 of        16640 points in      35 batches and      106 microbatches, Max-NSigAt=      16 Max-NSgAt2=      16
 IPart= 7        14429 of        16626 points in      34 batches and      104 microbatches, Max-NSigAt=      16 Max-NSgAt2=      16
 IPart= 6        13603 of        15172 points in      30 batches and       97 microbatches, Max-NSigAt=      16 Max-NSgAt2=      16
 IPart= 2        12649 of        14568 points in      30 batches and       88 microbatches, Max-NSigAt=      16 Max-NSgAt2=      16
 Polarizability after L703:
                1             2             3
      1  0.579312D+02
      2  0.856406D+00  0.685300D+02
      3 -0.103389D+02  0.301128D+01  0.642547D+02
 Dipole Derivatives after L703:
               1            2            3            4            5
      1 0.344219D+00-0.185922D-01-0.119240D+00 0.272191D-01-0.624902D-01
      2-0.166454D+00 0.351534D+00 0.332324D-02-0.609061D-01-0.264612D-01
      3 0.397458D-01-0.628243D-01 0.466334D+00 0.145635D-01 0.443464D-01
               6            7            8            9           10
      1-0.234129D-02-0.620157D-01-0.244469D-01-0.493799D-01-0.533642D-01
      2 0.224749D-01 0.673530D-01 0.280381D-01 0.124850D-01 0.196975D+00
      3 0.786266D-01-0.107880D+00-0.219718D-01-0.593829D-01 0.170619D+00
              11           12           13           14           15
      1-0.451748D-01 0.177736D+00-0.973465D-01-0.244833D-01-0.689415D-01
      2-0.292492D+00 0.457077D-01-0.290615D-01-0.538060D-02-0.299212D-01
      3 0.473216D-01-0.135692D+00-0.823454D-01-0.300763D-01-0.545601D-01
              16           17           18           19           20
      1 0.201038D+00-0.160061D+00-0.686999D-01-0.759021D-01 0.623741D-01
      2 0.102508D+00-0.355648D-02-0.100861D+00-0.350465D-01 0.207652D+00
      3-0.129869D+00 0.234160D+00 0.255101D+00 0.312067D+00-0.134913D+00
              21           22           23           24           25
      1 0.310110D+00 0.311750D-01 0.117321D-01-0.521616D-02-0.102906D+00
      2 0.262382D-01-0.307863D-01 0.567401D-01 0.123495D+00-0.602238D-01
      3-0.314844D+00 0.985190D-02-0.113102D-01-0.779451D-01-0.226081D-01
              26           27           28           29           30
      1 0.495168D-01-0.124587D-01 0.453761D+00 0.816158D-01-0.848810D-01
      2 0.653357D-01 0.261343D-01-0.273122D-01 0.982094D+00-0.517002D-02
      3-0.186898D-01-0.552213D-02-0.172713D+00 0.477867D-01 0.385010D+00
              31           32           33           34           35
      1-0.679495D-01-0.305081D-01-0.111684D+00 0.697235D-02-0.360616D-01
      2-0.811457D-02-0.304553D-02-0.374502D-02 0.245321D-01-0.452912D-01
      3-0.605281D-01-0.119360D-01-0.171354D-01 0.615847D-01 0.258279D-01
              36           37           38           39           40
      1 0.106408D+00-0.433708D+00-0.307774D-01 0.128521D+00 0.208894D+00
      2 0.239923D-02-0.129000D+00-0.108767D+01-0.407288D-01-0.261533D-01
      3-0.160561D+00 0.158168D+00-0.138573D+00-0.322772D+00-0.836906D-01
              41           42           43           44           45
      1 0.164204D-01-0.936635D-01-0.470293D+00-0.196207D+00 0.538383D-01
      2 0.341066D+00 0.699866D-01 0.985092D-01-0.281424D+00-0.496926D-01
      3 0.949903D-01 0.210439D+00 0.312957D+00 0.323097D+00-0.338359D+00
              46           47           48
      1 0.902075D-01 0.407143D+00-0.160107D+00
      2 0.831808D-01-0.287140D+00-0.102126D+00
      3-0.419924D+00-0.387235D+00 0.912630D-01
 Hessian after L703:
                1             2             3             4             5
      1  0.557341D+00
      2  0.100102D+00  0.547677D+00
      3  0.737152D-01 -0.251025D-01  0.442554D+00
      4 -0.137364D+00 -0.127813D+00  0.183393D-01  0.136994D+00
      5 -0.118303D+00 -0.227538D+00  0.310648D-01  0.128502D+00  0.257490D+00
      6  0.179412D-01  0.322826D-01 -0.517153D-01 -0.219276D-01 -0.310621D-01
      7 -0.189702D+00 -0.129088D-01 -0.122615D+00 -0.102104D-01 -0.446035D-03
      8 -0.200277D-01 -0.515754D-01 -0.111713D-01 -0.189088D-01  0.225385D-02
      9 -0.126529D+00 -0.763175D-02 -0.156154D+00  0.440275D-02 -0.918560D-04
     10 -0.705035D-01 -0.135411D-01 -0.406637D-02 -0.438338D-02 -0.145932D-02
     11 -0.101103D-01 -0.714827D-01  0.615100D-02 -0.758691D-02  0.131041D-02
     12  0.238079D-02  0.171078D-01 -0.128915D+00 -0.678536D-03  0.983292D-04
     13  0.684351D-02  0.142071D-02  0.753723D-02  0.901463D-03  0.679617D-04
     14  0.299519D-02 -0.235663D-03  0.197370D-02  0.663104D-03  0.324813D-03
     15 -0.253910D-01 -0.199893D-02 -0.253048D-01  0.112819D-03  0.210684D-03
     16 -0.425435D-02 -0.793998D-02  0.820392D-02  0.473933D-03  0.558524D-03
     17 -0.130941D-01 -0.240984D-03  0.184748D-01  0.746669D-03 -0.799415D-03
     18  0.105424D-01  0.331200D-01 -0.950443D-02  0.252967D-02 -0.399052D-03
     19 -0.187741D-02  0.512134D-02 -0.120440D-03 -0.173491D-03  0.615948D-05
     20 -0.256115D-02 -0.449593D-02  0.510766D-02  0.377102D-03  0.467505D-03
     21  0.560819D-02 -0.604508D-02  0.353049D-02 -0.179360D-03 -0.468636D-04
     22 -0.199448D-02 -0.102983D-02  0.194524D-02 -0.196997D-03 -0.268613D-03
     23  0.700699D-03 -0.607545D-02 -0.223197D-02 -0.641213D-03  0.285201D-03
     24  0.137112D-02 -0.131238D-03 -0.819545D-03  0.126995D-03  0.333465D-04
     25 -0.550143D-04  0.393728D-03 -0.109775D-02  0.582873D-04 -0.378472D-04
     26 -0.436753D-03 -0.934966D-03  0.642355D-03  0.121060D-03  0.000000D+00
     27  0.542583D-03 -0.205806D-02  0.182566D-02 -0.202929D-03  0.126290D-03
     28 -0.100436D-01  0.123916D-01  0.689587D-02 -0.757546D-03 -0.102624D-03
     29  0.681858D-02  0.899217D-03 -0.966736D-02 -0.200259D-02 -0.416973D-03
     30  0.224895D-01 -0.258680D-01 -0.856184D-02  0.145539D-03  0.904099D-03
     31  0.258275D-03 -0.705881D-03 -0.210182D-02  0.120187D-03 -0.287215D-04
     32 -0.247917D-03  0.644217D-03  0.110214D-02  0.595507D-04 -0.785944D-04
     33  0.142625D-02 -0.163937D-03  0.126888D-02  0.738507D-04  0.487881D-04
     34 -0.125669D-02  0.269313D-02 -0.119177D-02  0.130184D-03 -0.220695D-03
     35  0.174299D-02 -0.340657D-02  0.148288D-02  0.354488D-03  0.326306D-04
     36  0.537567D-03 -0.529939D-03  0.962693D-03 -0.536227D-04  0.637005D-04
     37 -0.171166D-02 -0.188974D-02  0.178917D-02  0.111815D-02  0.996004D-03
     38 -0.144808D-02  0.369653D-03  0.318851D-02  0.722877D-03 -0.930509D-03
     39  0.123205D-02  0.122010D-02 -0.151521D-02 -0.927002D-03 -0.134607D-02
     40 -0.642363D-04  0.348770D-03 -0.229809D-03  0.666985D-04  0.170929D-04
     41  0.332897D-03 -0.293447D-03 -0.473076D-03  0.178029D-03 -0.112242D-03
     42 -0.290102D-03 -0.633679D-03 -0.321671D-03  0.134726D-03 -0.251134D-03
     43 -0.161382D+00  0.415009D-01  0.365567D-02  0.127611D-01 -0.136345D-01
     44  0.775599D-01 -0.115542D+00 -0.223790D-01  0.189257D-01 -0.281346D-01
     45  0.160927D-01 -0.111412D-01 -0.611440D-01 -0.231632D-02  0.306256D-03
     46  0.157659D-01  0.185546D-02  0.934167D-02  0.461923D-03  0.435271D-02
     47 -0.240241D-01 -0.677683D-01  0.183735D-02  0.630118D-02 -0.415337D-02
     48 -0.166970D-02 -0.242615D-02 -0.618624D-02  0.419736D-03  0.340774D-03
                6             7             8             9            10
      6  0.561160D-01
      7 -0.100893D-01  0.215239D+00
      8 -0.160399D-01  0.418130D-02  0.531716D-01
      9  0.403039D-02  0.133265D+00  0.927862D-02  0.168153D+00
     10  0.175297D-01  0.749688D-02  0.860484D-03 -0.211131D-01  0.529341D+00
     11  0.248662D-01 -0.192255D-03  0.283270D-03 -0.160070D-02  0.277280D-01
     12 -0.589624D-02  0.760506D-02  0.301810D-02 -0.236985D-01  0.861115D-01
     13 -0.662607D-03 -0.902273D-04  0.457882D-03  0.231108D-02 -0.207949D+00
     14  0.234412D-03 -0.315911D-04  0.728334D-03  0.723318D-03 -0.199259D-01
     15  0.131881D-02  0.272996D-02  0.262958D-03 -0.519105D-02 -0.117741D+00
     16  0.120829D-02  0.520926D-03  0.118644D-02 -0.973483D-03 -0.975993D-01
     17 -0.137498D-02  0.128377D-02  0.290305D-03 -0.148329D-02 -0.506019D-01
     18 -0.502160D-02  0.352162D-03  0.205693D-04  0.148639D-02 -0.514640D-02
     19 -0.530222D-03  0.479001D-03 -0.508921D-03  0.245371D-03 -0.217496D-02
     20 -0.330098D-03 -0.412353D-04 -0.732269D-04 -0.367886D-04  0.637733D-02
     21  0.179316D-03 -0.106190D-02  0.136871D-02 -0.140111D-02  0.672345D-02
     22  0.422419D-03  0.134586D-03 -0.983386D-04  0.343484D-04  0.522115D-02
     23  0.125873D-02 -0.535722D-04  0.155448D-03  0.848422D-04  0.448094D-02
     24 -0.123762D-03 -0.158791D-03  0.128829D-04  0.404009D-03 -0.235242D-02
     25  0.251853D-03  0.340503D-04 -0.798266D-04  0.676660D-03 -0.840355D-02
     26  0.326179D-03  0.214909D-04  0.172081D-03  0.270697D-03 -0.260718D-01
     27 -0.161697D-04 -0.433946D-03  0.147569D-04 -0.313313D-03  0.364447D-02
     28  0.259427D-03  0.111596D-02 -0.721091D-03 -0.210304D-02 -0.118522D+00
     29  0.167814D-02 -0.106951D-03  0.593899D-03  0.118532D-02  0.463825D-01
     30  0.667194D-03 -0.204640D-03 -0.759538D-03  0.114558D-02  0.756321D-02
     31 -0.164819D-04  0.102481D-03  0.166056D-03  0.121414D-02 -0.195368D-01
     32 -0.200215D-03 -0.187868D-03  0.329111D-04 -0.534096D-03  0.202142D-01
     33 -0.103770D-03 -0.361336D-03 -0.358285D-04  0.322883D-03  0.542420D-02
     34 -0.174638D-03  0.138308D-03  0.865257D-04  0.317283D-03 -0.659391D-02
     35 -0.155452D-03 -0.175886D-03 -0.580212D-04  0.156068D-03  0.731439D-02
     36  0.771487D-04 -0.642567D-04 -0.628484D-04  0.507003D-03  0.649575D-03
     37 -0.152908D-02  0.269024D-03  0.526794D-03  0.352982D-03  0.882194D-02
     38 -0.944608D-03 -0.327097D-03 -0.157691D-03 -0.694652D-03 -0.155490D-01
     39  0.453864D-03 -0.653966D-04  0.128663D-03  0.908322D-04 -0.280512D-02
     40  0.310655D-03 -0.760294D-04 -0.154045D-03 -0.691515D-04  0.304670D-02
     41 -0.439315D-03  0.221326D-04  0.109531D-03  0.284484D-03 -0.200265D-02
     42 -0.645922D-03  0.162725D-03  0.238001D-03  0.621767D-04  0.174165D-03
     43 -0.420772D-02 -0.288430D-01  0.311255D-01  0.807143D-02 -0.226162D-01
     44 -0.681237D-02  0.129770D-01 -0.128015D-01 -0.832833D-04  0.140145D-01
     45 -0.534517D-03 -0.117823D-01  0.142177D-01  0.966406D-02  0.302554D-01
     46  0.121412D-02  0.339209D-02  0.190785D-02 -0.103852D-03  0.435528D-02
     47 -0.328731D-02 -0.401436D-02  0.687457D-02  0.173061D-03  0.177918D-02
     48  0.121456D-02  0.272190D-02 -0.491568D-03  0.891824D-03 -0.485129D-02
               11            12            13            14            15
     11  0.446871D+00
     12  0.119907D-01  0.448806D+00
     13 -0.207152D-01 -0.118849D+00  0.228268D+00
     14 -0.510637D-01 -0.152571D-01  0.232176D-01  0.597546D-01
     15 -0.175963D-01 -0.133707D+00  0.126403D+00  0.146269D-01  0.148825D+00
     16 -0.515215D-01 -0.118150D-01 -0.113846D-01 -0.274698D-01  0.501816D-02
     17 -0.163830D+00  0.150043D-01 -0.241903D-02 -0.526912D-02  0.199520D-02
     18  0.328888D-01 -0.709239D-01 -0.633079D-02 -0.157491D-01  0.288905D-02
     19  0.353426D-02  0.256998D-02 -0.166885D-03  0.252585D-03  0.103791D-03
     20 -0.115173D-01 -0.112625D-01 -0.977166D-04 -0.354568D-04  0.299907D-03
     21 -0.996983D-02 -0.834793D-02 -0.183037D-03 -0.702993D-03 -0.404494D-03
     22 -0.668057D-02  0.864673D-02  0.663676D-03  0.456732D-03  0.863499D-03
     23 -0.647328D-02  0.248493D-01  0.348884D-03  0.111616D-02 -0.783954D-03
     24 -0.180012D-02  0.221572D-02  0.655332D-03  0.549260D-04  0.651813D-03
     25  0.671478D-03 -0.341230D-02  0.324978D-03 -0.182653D-02  0.711566D-03
     26 -0.808294D-03 -0.109055D-01 -0.262289D-02 -0.477871D-02  0.173052D-02
     27 -0.192469D-02  0.114350D-02 -0.211112D-04  0.608396D-03  0.143567D-02
     28  0.314105D-01  0.815156D-02 -0.206432D-01  0.217424D-01  0.606713D-02
     29 -0.880638D-01 -0.138808D-01 -0.234121D-02  0.201735D-03 -0.313956D-03
     30 -0.150927D-01 -0.798114D-01 -0.136215D-01  0.151539D-01  0.434005D-02
     31  0.269836D-02 -0.127842D-01 -0.167952D-02  0.305009D-02  0.109334D-02
     32 -0.405148D-03  0.143773D-01  0.313109D-02 -0.350769D-02 -0.152367D-02
     33 -0.588538D-03  0.415847D-02  0.145641D-02 -0.760474D-03  0.765542D-03
     34  0.465257D-02  0.215411D-01  0.596453D-03 -0.114928D-02 -0.161434D-03
     35 -0.478997D-03 -0.231958D-01 -0.252092D-03  0.735153D-03  0.792827D-03
     36 -0.568373D-03 -0.539891D-02  0.484288D-03 -0.312421D-04  0.740996D-03
     37  0.104517D-01 -0.471094D-02  0.296138D-02 -0.797368D-03  0.918551D-03
     38 -0.459160D-01  0.268439D-02 -0.564776D-03  0.283715D-02  0.137374D-02
     39 -0.120315D-02  0.493545D-02  0.128631D-02 -0.145623D-03  0.545158D-04
     40  0.837904D-03  0.138482D-02  0.212464D-04 -0.267044D-03 -0.683774D-03
     41  0.107625D-02 -0.127111D-02  0.133578D-02 -0.746401D-03  0.551938D-03
     42  0.102924D-02 -0.184428D-03 -0.145997D-03 -0.417038D-03  0.142639D-05
     43  0.100699D-01  0.219386D-01  0.154379D-02 -0.373506D-03 -0.139282D-03
     44 -0.136744D-01 -0.113394D-01 -0.950919D-03  0.107025D-02  0.105377D-02
     45 -0.236389D-01 -0.125996D-01 -0.224871D-03 -0.617082D-03  0.356763D-02
     46  0.475223D-02 -0.808065D-02 -0.210441D-03 -0.536795D-03  0.945734D-04
     47  0.417218D-02 -0.201786D-02 -0.161144D-04 -0.113140D-02 -0.681679D-03
     48 -0.294271D-02  0.822343D-02 -0.952319D-04  0.305116D-03  0.169149D-04
               16            17            18            19            20
     16  0.475616D+00
     17  0.832718D-01  0.359615D+00
     18  0.141411D+00 -0.167287D+00  0.410529D+00
     19  0.992336D-02 -0.381542D-01 -0.453882D-01  0.146684D-01
     20 -0.105950D-01 -0.103123D-01  0.128337D-01  0.398600D-01  0.693241D-01
     21 -0.522342D-01  0.611553D-01  0.583364D-01  0.496410D-01 -0.315646D-01
     22 -0.585277D-01  0.200280D-01 -0.622433D-01 -0.211225D-02 -0.102107D-02
     23  0.199378D-01 -0.946134D-01  0.113761D+00  0.270929D-02  0.117200D-02
     24 -0.695688D-01  0.125076D+00 -0.250609D+00  0.253951D-03  0.292769D-02
     25 -0.293823D+00 -0.359005D-01 -0.862344D-01 -0.969934D-02  0.858097D-03
     26 -0.282784D-01 -0.451333D-01  0.786373D-02  0.103901D-01 -0.113498D-02
     27 -0.756457D-01  0.539305D-02 -0.594069D-01  0.122623D-01 -0.152196D-02
     28  0.883839D-02 -0.569389D-02 -0.259687D-03  0.352830D-02 -0.204892D-02
     29  0.683796D-02 -0.338226D-01 -0.266325D-02 -0.600225D-03 -0.185309D-02
     30 -0.270089D-02  0.347798D-02 -0.320846D-02 -0.135710D-02  0.159818D-02
     31  0.291943D-03 -0.135110D-02  0.545607D-03 -0.912804D-04  0.194293D-05
     32  0.136799D-02  0.197840D-02  0.287572D-03 -0.667222D-04  0.843296D-04
     33  0.158642D-04  0.415478D-03  0.240151D-03  0.872085D-04 -0.100357D-04
     34 -0.259144D-03 -0.133603D-02 -0.117763D-03  0.170982D-04 -0.452236D-03
     35  0.689761D-03  0.156604D-02 -0.810875D-03 -0.538439D-03  0.573315D-03
     36  0.112488D-04  0.362363D-03  0.811857D-03 -0.255037D-04  0.486267D-04
     37 -0.238511D-03  0.252759D-02  0.734297D-03 -0.994205D-04  0.354016D-03
     38  0.610154D-02 -0.256300D-02 -0.672517D-03  0.159634D-02 -0.973978D-03
     39  0.237240D-03 -0.900258D-03  0.205960D-02  0.326755D-04  0.134235D-03
     40 -0.349303D-03  0.489932D-03 -0.311240D-04 -0.119583D-03  0.831926D-04
     41  0.287612D-03 -0.397269D-03  0.578733D-03 -0.956770D-04 -0.297639D-04
     42 -0.776295D-05  0.719878D-04  0.148596D-03 -0.267815D-04 -0.479850D-04
     43  0.761883D-02 -0.330195D-02 -0.750504D-02 -0.278245D-01 -0.122190D-01
     44  0.108627D-01 -0.217019D-01 -0.144378D-01 -0.336556D-01 -0.307741D-02
     45  0.218803D-02 -0.494954D-02  0.453413D-02  0.166563D-01  0.204311D-01
[...]
    X8       -2.43863   0.00000   0.00000  -0.00107  -0.00104  -2.43967
    Y8       -1.32754   0.00000   0.00000   0.00031   0.00031  -1.32723
    Z8        4.90042   0.00000   0.00000   0.00022   0.00023   4.90066
    X9       -4.86435   0.00001   0.00000   0.00015   0.00022  -4.86413
    Y9       -0.61743  -0.00001   0.00000  -0.00025  -0.00027  -0.61771
    Z9        2.55201  -0.00001   0.00000  -0.00124  -0.00127   2.55074
   X10       -3.58511   0.00000   0.00000   0.00012   0.00011  -3.58499
   Y10        4.36160   0.00000   0.00000   0.00009   0.00008   4.36168
   Z10        3.24100   0.00000   0.00000   0.00028   0.00027   3.24127
   X11       -5.23092   0.00000   0.00000  -0.00018  -0.00017  -5.23109
   Y11        4.22349   0.00000   0.00000   0.00015   0.00011   4.22361
   Z11        2.00000   0.00000   0.00000   0.00068   0.00064   2.00064
   X12       -4.25809   0.00000   0.00000   0.00057   0.00052  -4.25756
   Y12        4.20465   0.00000   0.00000   0.00014   0.00012   4.20476
   Z12        5.19538   0.00000   0.00000   0.00044   0.00042   5.19581
   X13       -2.51010   0.00000   0.00000   0.00015   0.00011  -2.50999
   Y13        6.77895   0.00000   0.00000   0.00002   0.00003   6.77898
   Z13        2.76653   0.00001   0.00000   0.00000   0.00001   2.76655
   X14       -1.23151  -0.00001   0.00000   0.00043   0.00037  -1.23114
   Y14        7.08628   0.00000   0.00000  -0.00004  -0.00001   7.08627
   Z14        4.02315  -0.00001   0.00000  -0.00030  -0.00026   4.02288
   X15        0.88087   0.00000   0.00000   0.00007   0.00019   0.88106
   Y15        0.34057   0.00000   0.00000   0.00020   0.00025   0.34082
   Z15       -0.59690   0.00000   0.00000   0.00011   0.00019  -0.59672
   X16       -0.57706   0.00001   0.00000   0.00056   0.00071  -0.57635
   Y16       -1.89524   0.00000   0.00000  -0.00006  -0.00003  -1.89528
   Z16       -0.65889  -0.00002   0.00000   0.00022   0.00028  -0.65862
         Item               Value     Threshold  Converged?
 Maximum Force            0.000021     0.000450     YES
 RMS     Force            0.000007     0.000300     YES
 Maximum Displacement     0.001268     0.001800     YES
 RMS     Displacement     0.000360     0.001200     YES
 Predicted change in Energy=-2.051790D-08
 Optimization completed.
    -- Stationary point found.
 GradGradGradGradGradGradGradGradGradGradGradGradGradGradGradGradGradGrad


 Test job not archived.
 1\1\GINC-NODE35\Freq\UB3LYP\CBSB7\C4H9O3(2)\SHAMEL\18-Jun-2013\0\\# fr
 eq nosymm b3lyp/cbsb7 iop(7/33=1)\\Title Card Required\\0,2\C,-0.41830
 7,1.257709,-0.054695\H,0.162228,2.167849,-0.204259\H,-1.258074,1.23032
 3,-0.758029\C,-0.920779,1.151453,1.410689\H,-0.03936,1.265152,2.052905
 \C,-1.536887,-0.200494,1.661111\H,-0.86991,-0.921723,0.648295\H,-1.290
 467,-0.702506,2.593193\H,-2.574105,-0.326731,1.350466\C,-1.897156,2.30
 8061,1.715061\H,-2.768084,2.234977,1.058352\H,-2.253283,2.225003,2.749
 279\O,-1.328288,3.587265,1.463986\H,-0.651685,3.749899,2.128957\O,0.46
 6138,0.180221,-0.315867\O,-0.305365,-1.00292,-0.348672\\Version=AM64L-
 G03RevD.01\HF=-383.4397074\S2=0.756474\S2-1=0.\S2A=0.750024\RMSD=9.407
 e-09\RMSF=6.718e-06\ZeroPoint=0.1272405\Thermal=0.1347412\Dipole=-0.45
 14487,0.5489393,1.1457298\DipoleDeriv=0.3442185,-0.1664544,0.0397458,-
 0.0185922,0.3515339,-0.0628243,-0.1192398,0.0033232,0.4663343,0.027219
 1,-0.0609061,0.0145635,-0.0624902,-0.0264612,0.0443464,-0.0023413,0.02
 24749,0.0786266,-0.0620157,0.067353,-0.1078795,-0.0244469,0.0280381,-0
 .0219718,-0.0493799,0.012485,-0.0593829,-0.0533642,0.1969747,0.1706188
 ,-0.0451748,-0.2924921,0.0473216,0.177736,0.0457077,-0.1356915,-0.0973
 465,-0.0290615,-0.0823454,-0.0244833,-0.0053806,-0.0300763,-0.0689415,
 -0.0299212,-0.0545601,0.2010383,0.1025083,-0.1298692,-0.1600605,-0.003
 5565,0.23416,-0.0686999,-0.1008607,0.2551012,-0.0759021,-0.0350465,0.3
 120675,0.0623741,0.2076519,-0.1349127,0.3101104,0.0262382,-0.3148443,0
 .031175,-0.0307863,0.0098519,0.0117321,0.0567401,-0.0113102,-0.0052162
 ,0.1234947,-0.0779451,-0.1029058,-0.0602238,-0.0226081,0.0495168,0.065
 3357,-0.0186898,-0.0124587,0.0261343,-0.0055221,0.4537613,-0.0273122,-
 0.1727125,0.0816158,0.9820942,0.0477867,-0.084881,-0.00517,0.3850098,-
 0.0679495,-0.0081146,-0.0605281,-0.0305081,-0.0030455,-0.011936,-0.111
 6843,-0.003745,-0.0171354,0.0069723,0.0245321,0.0615847,-0.0360616,-0.
 0452912,0.0258279,0.106408,0.0023992,-0.1605611,-0.4337083,-0.1289995,
 0.1581682,-0.0307774,-1.0876695,-0.1385733,0.1285205,-0.0407288,-0.322
 7717,0.2088936,-0.0261533,-0.0836906,0.0164204,0.3410664,0.0949903,-0.
 0936635,0.0699866,0.2104387,-0.4702935,0.0985092,0.3129574,-0.1962072,
 -0.2814242,0.3230968,0.0538383,-0.0496926,-0.3383592,0.0902075,0.08318
 08,-0.4199242,0.4071431,-0.2871396,-0.3872349,-0.160107,-0.1021255,0.0
 91263\Polar=57.9312238,0.8564057,68.5299867,-10.3388845,3.0112758,64.2
 546766\PG=C01 [X(C4H9O3)]\NImag=1\\0.55734130,0.10010248,0.54767656,0.
 07371521,-0.02510249,0.44255390,-0.13736398,-0.12781271,0.01833928,0.1
 3699385,-0.11830255,-0.22753834,0.03106477,0.12850245,0.25748994,0.017
 94116,0.03228260,-0.05171526,-0.02192759,-0.03106205,0.05611597,-0.189
 70227,-0.01290881,-0.12261529,-0.01021035,-0.00044603,-0.01008926,0.21
 523862,-0.02002774,-0.05157536,-0.01117131,-0.01890884,0.00225385,-0.0
 1603987,0.00418130,0.05317159,-0.12652869,-0.00763175,-0.15615413,0.00
 440275,-0.00009186,0.00403039,0.13326532,0.00927862,0.16815294,-0.0705
 0355,-0.01354107,-0.00406637,-0.00438338,-0.00145932,0.01752967,0.0074
 9688,0.00086048,-0.02111315,0.52934114,-0.01011032,-0.07148274,0.00615
 100,-0.00758691,0.00131041,0.02486620,-0.00019225,0.00028327,-0.001600
 70,0.02772799,0.44687134,0.00238079,0.01710776,-0.12891452,-0.00067854
 ,0.00009833,-0.00589624,0.00760506,0.00301810,-0.02369848,0.08611152,0
 .01199070,0.44880593,0.00684351,0.00142071,0.00753723,0.00090146,0.000
 06796,-0.00066261,-0.00009023,0.00045788,0.00231108,-0.20794926,-0.020
 71518,-0.11884857,0.22826762,0.00299519,-0.00023566,0.00197370,0.00066
 310,0.00032481,0.00023441,-0.00003159,0.00072833,0.00072332,-0.0199258
 8,-0.05106373,-0.01525708,0.02321762,0.05975456,-0.02539104,-0.0019989
 3,-0.02530476,0.00011282,0.00021068,0.00131881,0.00272996,0.00026296,-
 0.00519105,-0.11774091,-0.01759626,-0.13370711,0.12640306,0.01462691,0
 .14882499,-0.00425435,-0.00793998,0.00820392,0.00047393,0.00055852,0.0
 0120829,0.00052093,0.00118644,-0.00097348,-0.09759931,-0.05152152,-0.0
 1181496,-0.01138457,-0.02746975,0.00501816,0.47561636,-0.01309410,-0.0
 0024098,0.01847481,0.00074667,-0.00079941,-0.00137498,0.00128377,0.000
 29031,-0.00148329,-0.05060186,-0.16382970,0.01500429,-0.00241903,-0.00
 526912,0.00199520,0.08327183,0.35961468,0.01054238,0.03311995,-0.00950
 443,0.00252967,-0.00039905,-0.00502160,0.00035216,0.00002057,0.0014863
 9,-0.00514640,0.03288882,-0.07092390,-0.00633079,-0.01574913,0.0028890
 5,0.14141059,-0.16728706,0.41052878,-0.00187741,0.00512134,-0.00012044
 ,-0.00017349,0.00000616,-0.00053022,0.00047900,-0.00050892,0.00024537,
 -0.00217496,0.00353426,0.00256998,-0.00016689,0.00025259,0.00010379,0.
 00992336,-0.03815419,-0.04538825,0.01466843,-0.00256115,-0.00449593,0.
 00510766,0.00037710,0.00046751,-0.00033010,-0.00004124,-0.00007323,-0.
 00003679,0.00637733,-0.01151735,-0.01126250,-0.00009772,-0.00003546,0.
 00029991,-0.01059498,-0.01031228,0.01283371,0.03985996,0.06932408,0.00
 560819,-0.00604508,0.00353049,-0.00017936,-0.00004686,0.00017932,-0.00
 106190,0.00136871,-0.00140111,0.00672345,-0.00996983,-0.00834793,-0.00
 018304,-0.00070299,-0.00040449,-0.05223421,0.06115527,0.05833640,0.049
 64104,-0.03156463,-0.03870776,-0.00199448,-0.00102983,0.00194524,-0.00
 019700,-0.00026861,0.00042242,0.00013459,-0.00009834,0.00003435,0.0052
 2115,-0.00668057,0.00864673,0.00066368,0.00045673,0.00086350,-0.058527
 71,0.02002796,-0.06224332,-0.00211225,-0.00102107,0.00891334,0.0580050
 7,0.00070070,-0.00607545,-0.00223197,-0.00064121,0.00028520,0.00125873
 ,-0.00005357,0.00015545,0.00008484,0.00448094,-0.00647328,0.02484933,0
 .00034888,0.00111616,-0.00078395,0.01993776,-0.09461337,0.11376096,0.0
 0270929,0.00117200,-0.01106595,-0.02269873,0.10211124,0.00137112,-0.00
 013124,-0.00081955,0.00012699,0.00003335,-0.00012376,-0.00015879,0.000
 01288,0.00040401,-0.00235242,-0.00180012,0.00221572,0.00065533,0.00005
 493,0.00065181,-0.06956881,0.12507561,-0.25060930,0.00025395,0.0029276
 9,-0.01153819,0.06923785,-0.12771084,0.26070792,-0.00005501,0.00039373
 ,-0.00109775,0.00005829,-0.00003785,0.00025185,0.00003405,-0.00007983,
 0.00067666,-0.00840355,0.00067148,-0.00341230,0.00032498,-0.00182653,0
 .00071157,-0.29382257,-0.03590051,-0.08623437,-0.00969934,0.00085810,0
 .00158826,-0.00289639,-0.00112252,0.00086578,0.31124170,-0.00043675,-0
 .00093497,0.00064235,0.00012106,-0.00000026,0.00032618,0.00002149,0.00
 017208,0.00027070,-0.02607177,-0.00080829,-0.01090554,-0.00262289,-0.0
 0477871,0.00173052,-0.02827841,-0.04513334,0.00786373,0.01039011,-0.00
 113498,-0.00474558,0.01219041,0.00333411,0.00272825,0.03725410,0.04692
 792,0.00054258,-0.00205806,0.00182566,-0.00020293,0.00012629,-0.000016
 17,-0.00043395,0.00001476,-0.00031331,0.00364447,-0.00192469,0.0011435
 0,-0.00002111,0.00060840,0.00143567,-0.07564572,0.00539305,-0.05940690
 ,0.01226231,-0.00152196,-0.00606929,-0.02523073,-0.00212332,-0.0031055
 3,0.08730590,-0.00106648,0.06017899,-0.01004358,0.01239155,0.00689587,
 -0.00075755,-0.00010262,0.00025943,0.00111596,-0.00072109,-0.00210304,
 -0.11852209,0.03141046,0.00815156,-0.02064321,0.02174243,0.00606713,0.
 00883839,-0.00569389,-0.00025969,0.00352830,-0.00204892,-0.00568011,-0
 .00175570,-0.00114750,0.00099239,0.00018458,-0.00226777,-0.00006042,0.
 53800231,0.00681858,0.00089922,-0.00966736,-0.00200259,-0.00041697,0.0
 0167814,-0.00010695,0.00059390,0.00118532,0.04638253,-0.08806377,-0.01
 388082,-0.00234121,0.00020174,-0.00031396,0.00683796,-0.03382256,-0.00
 266325,-0.00060022,-0.00185309,0.00045748,0.00038576,-0.00065362,-0.00
 066505,0.00102211,0.00181835,0.00110978,0.03202062,0.40738683,0.022489
 55,-0.02586801,-0.00856184,0.00014554,0.00090410,0.00066719,-0.0002046
 4,-0.00075954,0.00114558,0.00756321,-0.01509269,-0.07981139,-0.0136214
 8,0.01515388,0.00434005,-0.00270089,0.00347798,-0.00320846,-0.00135710
 ,0.00159818,0.00244319,0.00025861,0.00156049,-0.00019754,0.00023415,-0
 .00035866,0.00111469,0.04369414,-0.00168356,0.60925131,0.00025827,-0.0
 0070588,-0.00210182,0.00012019,-0.00002872,-0.00001648,0.00010248,0.00
 016606,0.00121414,-0.01953684,0.00269836,-0.01278421,-0.00167952,0.003
 05009,0.00109334,0.00029194,-0.00135110,0.00054561,-0.00009128,0.00000
 194,0.00009671,0.00036572,-0.00012333,-0.00009287,0.00056106,0.0006445
 9,0.00003706,-0.20564406,-0.01037028,-0.12212854,0.22873303,-0.0002479
 2,0.00064422,0.00110214,0.00005955,-0.00007859,-0.00020022,-0.00018787
 ,0.00003291,-0.00053410,0.02021421,-0.00040515,0.01437726,0.00313109,-
 0.00350769,-0.00152367,0.00136799,0.00197840,0.00028757,-0.00006672,0.
 00008433,0.00015744,-0.00014285,0.00008746,-0.00010221,-0.00075768,-0.
 00031769,-0.00010717,-0.00292359,-0.04533805,-0.00186709,0.01607358,0.
 06404994,0.00142625,-0.00016394,0.00126888,0.00007385,0.00004879,-0.00
 010377,-0.00036134,-0.00003583,0.00032288,0.00542420,-0.00058854,0.004
 15847,0.00145641,-0.00076047,0.00076554,0.00001586,0.00041548,0.000240
 15,0.00008721,-0.00001004,0.00003689,0.00011878,-0.00002715,0.00000003
 ,0.00008872,0.00044965,-0.00000687,-0.12736742,-0.00837729,-0.15296705
 ,0.13518267,0.00871022,0.15584860,-0.00125669,0.00269313,-0.00119177,0
 .00013018,-0.00022069,-0.00017464,0.00013831,0.00008653,0.00031728,-0.
 00659391,0.00465257,0.02154113,0.00059645,-0.00114928,-0.00016143,-0.0
 0025914,-0.00133603,-0.00011776,0.00001710,-0.00045224,-0.00020993,0.0
 0015938,0.00021192,-0.00013868,0.00006174,0.00017677,-0.00014953,-0.07
 414647,-0.00341754,0.06605768,0.00922896,0.00117645,-0.02358102,0.0774
 8486,0.00174299,-0.00340657,0.00148288,0.00035449,0.00003263,-0.000155
 45,-0.00017589,-0.00005802,0.00015607,0.00731439,-0.00047900,-0.023195
 83,-0.00025209,0.00073515,0.00079283,0.00068976,0.00156604,-0.00081088
 ,-0.00053844,0.00057332,0.00071492,0.00008725,-0.00017603,0.00009326,-
 0.00012961,-0.00003256,-0.00007392,-0.00335279,-0.04730581,0.00491132,
 0.00114354,0.00178632,-0.00096320,0.00732924,0.06312031,0.00053757,-0.
 00052994,0.00096269,-0.00005362,0.00006370,0.00007715,-0.00006426,-0.0
 0006285,0.00050700,0.00064957,-0.00056837,-0.00539891,0.00048429,-0.00
 003124,0.00074100,0.00001125,0.00036236,0.00081186,-0.00002550,0.00004
 863,-0.00010903,0.00000313,-0.00033886,0.00009558,-0.00012599,-0.00015
 604,-0.00019277,0.06785283,0.00818120,-0.27650380,0.00566971,-0.000198
 37,-0.01790850,-0.07973518,-0.01546696,0.29437013,-0.00171166,-0.00188
 974,0.00178917,0.00111815,0.00099600,-0.00152908,0.00026902,0.00052679
 ,0.00035298,0.00882194,0.01045167,-0.00471094,0.00296138,-0.00079737,0
 .00091855,-0.00023851,0.00252759,0.00073430,-0.00009942,0.00035402,0.0
 0051369,0.00024749,0.00025170,-0.00014510,0.00043463,0.00069724,0.0000
 4211,-0.10077174,-0.06979388,0.00736790,-0.01296260,-0.03294914,0.0057
 0968,-0.00521728,-0.01814112,0.00462941,0.35661693,-0.00144808,0.00036
 965,0.00318851,0.00072288,-0.00093051,-0.00094461,-0.00032710,-0.00015
 769,-0.00069465,-0.01554896,-0.04591604,0.00268439,-0.00056478,0.00283
 715,0.00137374,0.00610154,-0.00256300,-0.00067252,0.00159634,-0.000973
 98,-0.00237807,-0.00071685,-0.00073719,0.00026564,-0.00015941,0.000315
 26,0.00013958,-0.04561958,-0.18259884,0.04822585,-0.00917117,-0.013914
 19,-0.00082969,-0.01082854,-0.01723755,0.00808828,0.15020348,0.3074966
 7,0.00123205,0.00122010,-0.00151521,-0.00092700,-0.00134607,0.00045386
 ,-0.00006540,0.00012866,0.00009083,-0.00280512,-0.00120315,0.00493545,
 0.00128631,-0.00014562,0.00005452,0.00023724,-0.00090026,0.00205960,0.
 00003268,0.00013423,-0.00009129,0.00007712,-0.00066469,-0.00002785,0.0
 0021734,0.00011652,-0.00014806,-0.01296012,0.01363157,-0.09236654,-0.0
 0851609,-0.02128943,0.00683670,0.01432039,0.03432917,0.00129022,0.2452
 4156,-0.00278807,0.34294394,-0.00006424,0.00034877,-0.00022981,0.00006
 670,0.00001709,0.00031066,-0.00007603,-0.00015405,-0.00006915,0.003046
 70,0.00083790,0.00138482,0.00002125,-0.00026704,-0.00068377,-0.0003493
 0,0.00048993,-0.00003112,-0.00011958,0.00008319,0.00020758,0.00007723,
 -0.00003991,-0.00002622,-0.00009368,-0.00000898,-0.00002747,-0.0153308
 4,-0.00160937,-0.01414810,-0.00047772,-0.00438075,0.00193033,0.0005043
 5,0.00165625,-0.00018071,-0.25142454,-0.07355760,-0.23612887,0.2643942
 3,0.00033290,-0.00029345,-0.00047308,0.00017803,-0.00011224,-0.0004393
 2,0.00002213,0.00010953,0.00028448,-0.00200265,0.00107625,-0.00127111,
 0.00133578,-0.00074640,0.00055194,0.00028761,-0.00039727,0.00057873,-0
 .00009568,-0.00002976,0.00015493,0.00008206,-0.00007060,-0.00007407,0.
 00029017,0.00028029,-0.00000181,-0.03172674,-0.01276260,-0.02894815,-0
 .00204886,-0.00515767,0.00184906,0.00026530,0.00171019,0.00070221,-0.0
 4350164,-0.04544034,-0.02008136,0.07658723,0.06144595,-0.00029010,-0.0
 0063368,-0.00032167,0.00013473,-0.00025113,-0.00064592,0.00016273,0.00
 023800,0.00006218,0.00017417,0.00102924,-0.00018443,-0.00014600,-0.000
 41704,0.00000143,-0.00000776,0.00007199,0.00014860,-0.00002678,-0.0000
 4798,0.00008245,0.00005147,0.00005388,-0.00007925,0.00001140,0.0000834
 2,-0.00004483,0.00873647,0.00661531,0.00451106,0.00145285,0.00143450,0
 .00166710,0.00144832,0.00081253,0.00144323,-0.25957415,-0.05632353,-0.
 26559976,0.24768629,0.04697224,0.25888334,-0.16138178,0.04150085,0.003
 65567,0.01276107,-0.01363450,-0.00420772,-0.02884304,0.03112546,0.0080
 7143,-0.02261624,0.01006985,0.02193858,0.00154379,-0.00037351,-0.00013
 928,0.00761883,-0.00330195,-0.00750504,-0.02782453,-0.01221903,0.02237
 904,-0.00046136,0.00150100,0.00070760,-0.00068881,0.00162623,0.0018777
 3,-0.00091739,-0.00161777,0.00298025,0.00066546,-0.00042835,-0.0000691
 7,-0.00002857,0.00104017,0.00012261,0.00172355,0.00117690,-0.00151522,
 -0.00034156,-0.00007024,0.00023601,0.32502960,0.07755989,-0.11554190,-
 0.02237897,0.01892574,-0.02813464,-0.00681237,0.01297697,-0.01280150,-
 0.00008328,0.01401446,-0.01367440,-0.01133941,-0.00095092,0.00107025,0
 .00105377,0.01086267,-0.02170185,-0.01443776,-0.03365565,-0.00307741,0
 .03998447,-0.00279805,0.00389431,0.00231155,-0.00109615,0.00174327,0.0
 0275625,0.00243435,0.00210113,-0.00414712,-0.00011151,-0.00009574,0.00
 027783,0.00124306,-0.00195077,-0.00033024,0.00017577,0.00230294,-0.000
 68597,-0.00018274,0.00008877,0.00012775,-0.00022503,0.34777599,0.01609
 271,-0.01114116,-0.06114401,-0.00231632,0.00030626,-0.00053452,-0.0117
 8230,0.01421770,0.00966406,0.03025542,-0.02363891,-0.01259959,-0.00022
 487,-0.00061708,0.00356763,0.00218803,-0.00494954,0.00453413,0.0166562
 9,0.02043111,-0.00047725,-0.00066842,0.00078476,0.00082874,0.00064824,
 -0.00095550,-0.00164235,0.00397977,0.00271734,-0.00763038,0.00031322,-
 0.00015295,-0.00019783,0.00125185,-0.00216381,-0.00017963,-0.00103970,
 0.00007544,0.00106761,0.00006555,0.00017984,0.00001753,-0.04867935,0.0
 3727304,0.09781536,0.01576592,0.00185546,0.00934167,0.00046192,0.00435
 271,0.00121412,0.00339209,0.00190785,-0.00010385,0.00435528,0.00475223
 ,-0.00808065,-0.00021044,-0.00053679,0.00009457,-0.03684828,0.04350493
 ,0.05714204,0.01572295,-0.01887531,-0.03612273,0.00307059,-0.00431542,
 -0.00172812,0.00275832,-0.00343543,-0.00394030,-0.00313694,-0.00160773
 ,0.00336973,0.00006490,0.00006201,-0.00013501,-0.00081928,0.00123186,0
 .00022490,0.00023267,-0.00185908,0.00027313,0.00016703,0.00006459,-0.0
 0004964,-0.10623903,-0.09917285,-0.00674010,0.10126230,-0.02402411,-0.
 06776831,0.00183735,0.00630118,-0.00415337,-0.00328731,-0.00401436,0.0
 0687457,0.00017306,0.00177918,0.00417218,-0.00201786,-0.00001611,-0.00
 113140,-0.00068168,-0.00529744,0.01523346,0.00066558,0.01014979,-0.038
 11777,-0.03747423,0.00222472,-0.00335639,-0.00301965,0.00062042,-0.001
 45047,-0.00127068,-0.00439491,-0.00018585,0.00289300,0.00013270,0.0001
 5120,0.00000511,-0.00043063,0.00112236,0.00023648,0.00088862,-0.002852
 34,-0.00045564,0.00018007,0.00029936,0.00023451,-0.05617009,-0.1619984
 5,-0.03236654,0.07207099,0.25316120,-0.00166970,-0.00242615,-0.0061862
 4,0.00041974,0.00034077,0.00121456,0.00272190,-0.00049157,0.00089182,-
 0.00485129,-0.00294271,0.00822343,-0.00009523,0.00030512,0.00001691,0.
 05465250,-0.05543090,-0.08236036,-0.03440432,0.00139287,0.00253760,-0.
 00243008,0.00259372,0.00159716,-0.00172945,0.00397647,0.00524758,0.001
 80120,0.00167514,-0.00222608,0.00003471,-0.00009394,0.00003877,0.00052
 330,-0.00046293,-0.00000623,-0.00030037,0.00058971,0.00001597,-0.00006
 000,0.00001545,0.00005896,0.00014686,-0.02356955,-0.03308951,-0.014759
 75,0.07452850,0.10402566\\0.00000562,0.00000137,0.00000405,0.00000265,
 -0.00000264,0.00000142,0.00000214,-0.00000154,-0.00000045,-0.00000324,
 0.00000161,0.00000293,-0.00000259,0.00000164,0.00000165,-0.00001560,0.
 00001052,0.00000317,0.00002059,-0.00001452,-0.00001751,0.00000121,-0.0
 0000226,-0.00000370,-0.00000596,0.00000553,0.00000679,-0.00000089,-0.0
 0000052,-0.00000318,0.00000144,0.00000226,-0.00000345,-0.00000055,0.00
 000197,-0.00000256,-0.00000330,-0.00000160,-0.00000750,0.00000737,0.00
 000241,0.00000562,0.00000044,-0.00000176,-0.00000463,-0.00000932,-0.00
 000247,0.00001736\\\@


 ONLY THE DAY DAWNS TO WHICH YOU ARE AWAKE.

                                 -- THOREAU
 Job cpu time:  0 days  1 hours  7 minutes 59.3 seconds.
 File lengths (MBytes):  RWF=    125 Int=      0 D2E=      0 Chk=      8 Scr=      1
 Normal termination of Gaussian 03 at Tue Jun 18 11:05:36 2013.
