
 Primary working directories    : /scratch/nyee/390341
 Secondary working directories  : /scratch/nyee/390341
 Wavefunction directory         : /home/nyee/wfu/
 Main file repository           : /scratch/nyee/390341/

 ARCHNAME  : Linux/x86_64
 FC        : /opt/intel/Compiler/11.0/074/bin/intel64/ifort
 FCVERSION : 11.0
 BLASLIB   : -L/opt/intel/Compiler/11.0/074/mkl/lib/em64t -lmkl_intel_ilp64 -lmkl_sequential -lmkl_core
 id        : mitsand

 Nodes     nprocs
 node03       2
 ga_uses_ma=false, calling ma_init with nominal heap.
 GA-space will be limited to   8.0 MW (determined by -G option)

 Using customized tuning parameters: mindgm=16; mindgv=16; mindgc=16; mindgr=1; noblas=0; mincuda=1000; minvec=7
 default implementation of scratch files=sf  

 geometry = {angstrom
  C
  H                  1              B1
  H                  1              B2    2              A1
  H                  1              B3    2              A2    3              D1
 }
  
       B1 =           1.08190993
       B2 =           1.08196714
       B3 =           1.08192237
       A1 =         120.02582287
       A2 =         119.99794537
       D1 =         179.77082880
  
 memory,3000,M
 basis = vtz-f12
 hf
 uccsd(t)-f12,scale_trip=1

 Variables initialized (665), CPU time= 0.01 sec
 Commands  initialized (462), CPU time= 0.01 sec, 486 directives.
 Default parameters read. Elapsed time= 0.29 sec

 Checking input...
 Passed
1


                                         ***  PROGRAM SYSTEM MOLPRO  ***
                         Copyright, University College Cardiff Consultants Limited, 2008

                                    Version 2010.1 linked 7 Mar 2011 15:11:57 


 **********************************************************************************************************************************
 LABEL *                                                                                 
 Linux-3.2.0-72-generic/node03(x86_64) 64 bit mpp version                                DATE: 15-Jun-15          TIME: 17:32:15  
 **********************************************************************************************************************************

 Patch level:      19
 **********************************************************************************************************************************
 SETTING B1             =         1.08190993                                  
 SETTING B2             =         1.08196714                                  
 SETTING B3             =         1.08192237                                  
 SETTING A1             =       120.02582287                                  
 SETTING A2             =       119.99794537                                  
 SETTING D1             =       179.77082880                                  

 Variable memory set to 3000000000 words,  buffer space   230000 words

 SETTING BASIS          =    VTZ-F12


 Recomputing integrals since basis changed


 Using spherical harmonics

 Library entry C      S cc-pVTZ-F12          selected for orbital group  1
 Library entry C      P cc-pVTZ-F12          selected for orbital group  1
 Library entry C      D cc-pVTZ-F12          selected for orbital group  1
 Library entry C      F cc-pVTZ-F12          selected for orbital group  1
 Library entry H      S cc-pVTZ-F12          selected for orbital group  2
 Library entry H      P cc-pVTZ-F12          selected for orbital group  2
 Library entry H      D cc-pVTZ-F12          selected for orbital group  2

1PROGRAM * SEWARD (Integral evaluation for generally contracted gaussian basis sets)     Author: Roland Lindh, 1990

 Geometry written to block  1 of record 700

 Orientation using atomic masses  
 Molecule type: Asymmetric top
 Rotational constants:     142.7778963    285.4727748    285.6376420 GHz  (calculated with average atomic masses)

 Point group  C1  



 ATOMIC COORDINATES

 NR  ATOM    CHARGE       X              Y              Z

   1  C       6.00   -0.000474678    0.000045306    0.000041157
   2  H       1.00    0.001885979    0.701099274    1.920601773
   3  H       1.00    0.001885459    1.312131805   -1.568047120
   4  H       1.00    0.001885007   -2.013770964   -0.353045098

 Bond lengths in Bohr (Angstrom)

 1-2  2.044513467  1-3  2.044621578  1-4  2.044536975
     (1.081909930)     (1.081967140)     (1.081922370)

 Bond angles

  2-1-3  120.02582287   2-1-4  119.99794537   3-1-4  119.97583504

 NUCLEAR CHARGE:                    9
 NUMBER OF PRIMITIVE AOS:         135
 NUMBER OF SYMMETRY AOS:          123
 NUMBER OF CONTRACTIONS:          107   ( 107A   )
 NUMBER OF CORE ORBITALS:           1   (   1A   )
 NUMBER OF VALENCE ORBITALS:        7   (   7A   )


 NUCLEAR REPULSION ENERGY    9.65101425


 Eigenvalues of metric

         1 0.192E-03 0.328E-03 0.328E-03 0.544E-03 0.575E-03 0.575E-03 0.706E-03 0.157E-02


 Contracted 2-electron integrals neglected if value below      1.0D-11
 AO integral compression algorithm  1   Integral accuracy      1.0D-11

     84.673 MB (compressed) written to integral file ( 51.2%)

     Node minimum: 41.943 MB, node maximum: 42.729 MB


 NUMBER OF SORTED TWO-ELECTRON INTEGRALS:    8349210.     BUFFER LENGTH:  32768
 NUMBER OF SEGMENTS:   1  SEGMENT LENGTH:    8349210      RECORD LENGTH: 524288

 Memory used in sort:       8.91 MW

 SORT1 READ    20623543. AND WROTE     7858446. INTEGRALS IN     23 RECORDS. CPU TIME:     0.45 SEC, REAL TIME:     0.69 SEC
 SORT2 READ    15712150. AND WROTE    16695531. INTEGRALS IN    320 RECORDS. CPU TIME:     0.27 SEC, REAL TIME:     0.49 SEC

 Node minimum:     8346321.  Node maximum:     8349210. integrals

 OPERATOR DM      FOR CENTER  0  COORDINATES:    0.000000    0.000000    0.000000


 **********************************************************************************************************************************
 DATASETS  * FILE   NREC   LENGTH (MB)   RECORD NAMES
              1      18        3.02       500      610      700      900      950      970     1000      129      960     1100   
                                          VAR    BASINP    GEOM    SYMINP    ZMAT    AOBASIS   BASIS     P2S    ABASIS      S 
                                         1400     1410     1200     1210     1080     1600     1650     1700   
                                           T        V       H0       H01     AOSYM     SMH    MOLCAS    OPER   

 PROGRAMS   *        TOTAL       INT
 CPU TIMES  *         1.53      1.42
 REAL TIME  *         3.23 SEC
 DISK USED  *       269.50 MB      
 GA USED    *         0.00 MB       (max)       0.00 MB       (current)
 **********************************************************************************************************************************

1PROGRAM * RHF-SCF (OPEN SHELL)       Authors: W. Meyer, H.-J. Werner


 NUMBER OF ELECTRONS:       5+    4-    SPACE SYMMETRY=1    SPIN SYMMETRY=Doublet 
 CONVERGENCE THRESHOLDS:    1.00E-05 (Density)    1.00E-07 (Energy)
 MAX. NUMBER OF ITERATIONS:       60
 INTERPOLATION TYPE:            DIIS
 INTERPOLATION STEPS:              2 (START)      1 (STEP)
 LEVEL SHIFTS:                 -0.30 (CLOSED)  0.00 (OPEN) 



 Orbital guess generated from atomic densities. Full valence occupancy:    8

 Molecular orbital dump at record        2100.2

 ITERATION    DDIFF          GRAD             ENERGY        2-EL.EN.            DIPOLE MOMENTS         DIIS
    1      0.000D+00      0.000D+00       -39.56801055     44.589645    0.00114   -0.00005   -0.00006    0
    2      0.000D+00      0.170D-02       -39.57407294     44.556495    0.00115   -0.00004   -0.00003    1
    3      0.285D-02      0.614D-03       -39.57527913     44.616496    0.00112   -0.00003   -0.00002    2
    4      0.107D-02      0.147D-03       -39.57536287     44.607076    0.00111   -0.00003   -0.00001    3
    5      0.305D-03      0.394D-04       -39.57536939     44.609496    0.00110   -0.00003   -0.00001    4
    6      0.132D-03      0.795D-05       -39.57536971     44.608904    0.00109   -0.00003   -0.00001    5
    7      0.554D-04      0.159D-05       -39.57536973     44.608866    0.00109   -0.00003   -0.00001    6
    8      0.174D-04      0.381D-06       -39.57536973     44.608858    0.00109   -0.00003   -0.00001    6
    9      0.294D-05      0.295D-06       -39.57536973     44.608856    0.00109   -0.00003   -0.00001    0

 Final alpha occupancy:   5
 Final beta  occupancy:   4

 !RHF STATE 1.1 Energy                -39.575369729368
 Nuclear energy                         9.65101425
 One-electron energy                  -71.53081212
 Two-electron energy                   22.30442815
 Virial quotient                       -1.00148043
 !RHF STATE 1.1 Dipole moment           0.00108806    -0.00002593    -0.00001027
 Dipole moment /Debye                   0.00276540    -0.00006590    -0.00002610

 Orbital energies:

         1.1          2.1          3.1          4.1          5.1          6.1          7.1
    -11.225893    -0.900417    -0.573824    -0.573726    -0.374236     0.069039     0.075568


 **********************************************************************************************************************************
 DATASETS  * FILE   NREC   LENGTH (MB)   RECORD NAMES
              1      18        3.02       500      610      700      900      950      970     1000      129      960     1100   
                                          VAR    BASINP    GEOM    SYMINP    ZMAT    AOBASIS   BASIS     P2S    ABASIS      S 
                                         1400     1410     1200     1210     1080     1600     1650     1700   
                                           T        V       H0       H01     AOSYM     SMH    MOLCAS    OPER   

              2       3        0.63       700     1000     2100   
                                         GEOM     BASIS     RHF  

 PROGRAMS   *        TOTAL        HF       INT
 CPU TIMES  *         3.02      1.49      1.42
 REAL TIME  *         4.90 SEC
 DISK USED  *       279.74 MB      
 SF USED    *         0.05 MB      
 GA USED    *         0.00 MB       (max)       0.00 MB       (current)
 **********************************************************************************************************************************


1PROGRAM * CCSD (Unrestricted open-shell coupled cluster)     Authors: C. Hampel, H.-J. Werner, 1991, M. Deegan, P.J. Knowles, 1992

                           UCCSD-F12 implementation by G. Knizia and H.-J. Werner, 2008

                   Density fitting integral evaluation by F.R. Manby, 2003,2007, G. Knizia, 2010

 Basis set CC-PVTZ/JKFIT generated.      Number of basis functions:   169 
 Basis set CC-PVTZ-F12/OPTRI generated.  Number of basis functions:   198 
 Basis set AUG-CC-PVTZ/MP2FIT generated. Number of basis functions:   244 

 Convergence thresholds:  THRVAR = 1.00D-08  THRDEN = 1.00D-06

 CCSD(T)     terms to be evaluated (factor= 1.000)


 Number of core orbitals:           1 (   1 )
 Number of closed-shell orbitals:   3 (   3 )
 Number of active  orbitals:        1 (   1 )
 Number of external orbitals:     102 ( 102 )

 Memory could be reduced to 12.01 Mwords without degradation in triples

 Number of N-1 electron functions:               7
 Number of N-2 electron functions:              21
 Number of singly external CSFs:               721
 Number of doubly external CSFs:            174585
 Total number of CSFs:                      175306

 Molecular orbitals read from record     2100.2  Type=RHF/CANONICAL (state 1.1)

 Integral transformation finished. Total CPU:   0.81 sec, npass=  1  Memory used:   3.52 MW
 
 Geminal basis:    OPTFULL  GEM_TYPE=SLATER  BETA=1.0  NGEM=6

 Optimizing Gaussian exponents for each gem_beta

 Geminal optimization for beta= 1.0000
 Weight function:   m=0, omega= 1.4646

 Augmented Hessian optimization of geminal fit. Trust ratio= 0.40000
 Convergence reached after   2 iterations. Final gradient= 8.43D-16, Step= 4.27D-06, Delta= 1.28D-09
 
 Alpha:                 0.19532     0.81920     2.85917     9.50073    35.69989   197.79328
 Coeff:                 0.27070     0.30552     0.18297     0.10986     0.06810     0.04224
 
 
 WFN_F12=FIX,EG    DECOUPLE_EXPL=F   HYBRID=0    NOX=F   SEMIINT_F12=T   CORE_SINGLES=F
 
 AO(A)-basis ORBITAL           loaded. Number of functions:     107
 RI(R)-basis CC-PVTZ-F12/OPTRI loaded. Number of functions:     198
 DF-basis CC-PVTZ/JKFIT        loaded. Number of functions:     169

 Screening thresholds:   THRAO=  1.00D-10  THRMO=  1.00D-09  THRPROD=  1.00D-09
                         THRSW=  1.00D-05  THROV=  1.00D-12  THRF12=   1.00D-08

 CPU time for one-electron matrices               0.45 sec
 
 Construction of ABS:
 Pseudo-inverse stability          7.15E-11
 Smallest eigenvalue of S          3.73E-04  (threshold= 1.00E-08)
 Ratio eigmin/eigmax               2.19E-06  (threshold= 1.00E-09)
 Smallest eigenvalue of S kept     3.73E-04  (threshold= 3.73E-04, 0 functions deleted, 198 kept)
 
 Construction of CABS:
 Pseudo-inverse stability          5.38E-10
 Smallest eigenvalue of S          1.33E-06  (threshold= 1.00E-08)
 Ratio eigmin/eigmax               1.33E-06  (threshold= 1.00E-09)
 Smallest eigenvalue of S kept     1.33E-06  (threshold= 1.33E-06, 0 functions deleted, 198 kept)
 
 CPU time for basis constructions                 0.07 sec
 Fock operators(MO) rebuilt from dump record.
 CPU time for fock operators                      0.09 sec
 
                                      TOTAL          ALPHA          BETA    
  Singles Contributions MO        -0.002637044   -0.001331541   -0.001305503
  Singles Contributions CABS      -0.000464505   -0.000271142   -0.000193363
  Pure DF-RHF relaxation          -0.000458199
 
 CPU time for singles                             0.24 sec
 
 AO(A)-basis ORBITAL           loaded. Number of functions:     107
 RI(R)-basis CC-PVTZ-F12/OPTRI loaded. Number of functions:     198
 DF-basis AUG-CC-PVTZ/MP2FIT   loaded. Number of functions:     244

 Screening thresholds:   THRAO=  1.00D-10  THRMO=  1.00D-09  THRPROD=  1.00D-09
                         THRSW=  1.00D-05  THROV=  1.00D-12  THRF12=   1.00D-08

 CPU time for transformed integrals               2.02 sec
 CPU time for F12 matrices                        0.10 sec

 Diagonal F12 ansatz with fixed amplitudes:   TS= 0.5000  TT= 0.2500  TN= 0.3750
 
 ITER.     SQ.NORM      CORR.ENERGY   TOTAL ENERGY  ENERGY CHANGE      VAR         CPU   MICRO    DIIS
   1      1.05282566    -0.18197161   -39.75779954    -1.8243E-01   5.12E-02      0.01  1  1  1   0  0
   2      1.05221737    -0.18114102   -39.75696895     8.3058E-04   2.00E-05      0.03  0  0  0   1  1
   3      1.05226057    -0.18119174   -39.75701967    -5.0715E-05   5.68E-08      0.06  0  0  0   2  2
   4      1.05226046    -0.18119185   -39.75701978    -1.1385E-07   1.29E-10      0.10  0  0  0   3  3
 
 --- Continuing with F12/conv. amplitude coupling turned on.
 
   5      1.05219836    -0.18112538   -39.75695331     6.6355E-05   1.61E-05      0.14  1  1  1   1  1
   6      1.05219798    -0.18112540   -39.75695332    -1.1944E-08   3.77E-10      0.17  1  1  1   2  2
 
 CPU time for iterative RMP2-F12                  0.17 sec
 
 
 DF-RMP2-F12 doubles corrections:
 --------------------------------
  Approx.                             TOTAL           A-B            A-A            B-B    
  RMP2-F12/3C(FIX)                -0.014153074   -0.013483285   -0.000499444   -0.000170344
  RMP2-F12/3*C(FIX)               -0.014219531   -0.013553128   -0.000497781   -0.000168623
  RMP2-F12/3*C(DX)                -0.014227826   -0.013561256   -0.000497926   -0.000168644
  RMP2-F12/3*C(FIX,DX)            -0.014432030   -0.013774120   -0.000490540   -0.000167370
 
 DF-RMP2-F12 doubles energies:
 -----------------------------
  Approx.                             TOTAL           A-B            A-A            B-B    
  RMP2                            -0.164335278   -0.133541636   -0.022591587   -0.008202055
  RMP2-F12/3C(FIX)                -0.178488353   -0.147024922   -0.023091031   -0.008372400
  RMP2-F12/3*C(FIX)               -0.178554810   -0.147094764   -0.023089367   -0.008370678
  RMP2-F12/3*C(DX)                -0.178563104   -0.147102893   -0.023089513   -0.008370699
  RMP2-F12/3*C(FIX,DX)            -0.178767309   -0.147315756   -0.023082127   -0.008369426
 
 
  Reference energy                    -39.575369729368
  CABS relaxation correction to RHF    -0.000458198941
  New reference energy                -39.575827928309
 
  RMP2-F12 singles (MO) energy         -0.002637043594
  RMP2-F12 pair energy                 -0.178488352619
  RMP2-F12 correlation energy          -0.181125396213
 
  RMP2-F12/3C(FIX) energy             -39.756953324522

 Starting RMP2 calculation

 ITER.      SQ.NORM     CORR.ENERGY   TOTAL ENERGY   ENERGY CHANGE        DEN1      VAR(S)    VAR(P)  DIIS     TIME
   1      1.05179201    -0.16644956   -39.74181929    -0.16644956    -0.00049641  0.62D-05  0.19D-03  1  1     4.22
   2      1.05225233    -0.16698127   -39.74235100    -0.00053171    -0.00000053  0.10D-07  0.23D-06  2  2     4.25
   3      1.05226184    -0.16698731   -39.74235704    -0.00000604     0.00000000  0.43D-10  0.60D-09  3  3     4.28
   4      1.05226189    -0.16698730   -39.74235703     0.00000001     0.00000000  0.14D-12  0.17D-11  4  4     4.32

 Norm of t1 vector:      0.03996834      S-energy:    -0.00263704      T1 diagnostic:  0.00011363
 Norm of t2 vector:      0.22508760      P-energy:    -0.16435026
                                         Alpha-Beta:  -0.13359762
                                         Alpha-Alpha: -0.02255554
                                         Beta-Beta:   -0.00819710

 Spin contamination <S**2-Sz**2-Sz>     0.00399859
  Reference energy                    -39.575827928309
  RHF-RMP2 correlation energy          -0.166987302801
 !RHF-RMP2 energy                     -39.742815231110

 Starting UCCSD calculation

 ITER.      SQ.NORM     CORR.ENERGY   TOTAL ENERGY   ENERGY CHANGE        DEN1      VAR(S)    VAR(P)  DIIS     TIME
   1      1.06094559    -0.17654803   -39.75191776    -0.17654803    -0.00525546  0.40D-03  0.14D-02  1  1     5.10
   2      1.06697561    -0.18237567   -39.75774540    -0.00582764    -0.00025513  0.22D-04  0.82D-04  2  2     5.88
   3      1.06852423    -0.18331153   -39.75868126    -0.00093586    -0.00002538  0.22D-05  0.98D-05  3  3     6.68
   4      1.06898703    -0.18349929   -39.75886902    -0.00018777    -0.00000331  0.17D-06  0.16D-05  4  4     7.47
   5      1.06912464    -0.18352630   -39.75889603    -0.00002701    -0.00000038  0.89D-08  0.19D-06  5  5     8.26
   6      1.06915456    -0.18353366   -39.75890339    -0.00000736    -0.00000003  0.58D-08  0.12D-07  6  6     9.07
   7      1.06915634    -0.18353347   -39.75890320     0.00000019     0.00000000  0.13D-08  0.82D-09  6  1     9.88

 Norm of t1 vector:      0.05446059      S-energy:    -0.00304007      T1 diagnostic:  0.00635554
                                                                       D1 diagnostic:  0.01062959
 Norm of t2 vector:      0.25727493      P-energy:    -0.18049340
                                         Alpha-Beta:  -0.14988294
                                         Alpha-Alpha: -0.02285489
                                         Beta-Beta:   -0.00775558

 Spin contamination <S**2-Sz**2-Sz>     0.00163135

 Memory could be reduced to 12.47 Mwords without degradation in triples
 

  Ecorr(MP2)                           -0.166987302801
  Ecorr(MP2-F12)                       -0.181140377009
  Scale factor for triples energy       1.084755391402

 RESULTS
 =======

  Reference energy                    -39.575369729368
  CABS relaxation correction to RHF    -0.000458198941
  New reference energy                -39.575827928309
 
  F12 corrections for ansatz 3C(FIX) added to UCCSD energy. Coupling mode: 15
 
  UCCSD-F12a singles energy            -0.003040071484
  UCCSD-F12a pair energy               -0.194627186941
  UCCSD-F12a correlation energy        -0.197667258424
  Triples (T) contribution (scaled)    -0.005555900130
  Total correlation energy             -0.203223158555
 
  RHF-UCCSD-F12a energy               -39.773495186734
  RHF-UCCSD[T]-F12a energy            -39.779146713319
  RHF-UCCSD-T-F12a energy             -39.779010005822
 !RHF-UCCSD(T)-F12a energy            -39.779051086864
 
  F12 corrections for ansatz 3C(FIX) added to UCCSD energy. Coupling mode: 15
 
  UCCSD-F12b singles energy            -0.003040071484
  UCCSD-F12b pair energy               -0.191604647022
  UCCSD-F12b correlation energy        -0.194644718506
  Triples (T) contribution (scaled)    -0.005555900130
  Total correlation energy             -0.200200618636
 
  RHF-UCCSD-F12b energy               -39.770472646815
  RHF-UCCSD[T]-F12b energy            -39.776124173401
  RHF-UCCSD-T-F12b energy             -39.775987465904
 !RHF-UCCSD(T)-F12b energy            -39.776028546945

 Program statistics:

 Available memory in ccsd:              2999999732
 Min. memory needed in ccsd:                774825
 Max. memory used in ccsd:                  952642
 Max. memory used in cckext:                681731 ( 8 integral passes)
 Max. memory used in cckint:               3517976 ( 1 integral passes)



 **********************************************************************************************************************************
 DATASETS  * FILE   NREC   LENGTH (MB)   RECORD NAMES
              1      19        3.04       500      610      700      900      950      970     1000      129      960     1100   
                                          VAR    BASINP    GEOM    SYMINP    ZMAT    AOBASIS   BASIS     P2S    ABASIS      S 
                                         1400     1410     1200     1210     1080     1600     1650     1700      960(1)
                                           T        V       H0       H01     AOSYM     SMH    MOLCAS    OPER    ABASIS    

              2       4        0.77       700     1000     2100     7360   
                                         GEOM     BASIS     RHF    F12ABS    

 PROGRAMS   *        TOTALUCCSD(T)-F        HF       INT
 CPU TIMES  *        19.25     16.22      1.49      1.42
 REAL TIME  *        22.67 SEC
 DISK USED  *       320.59 MB      
 SF USED    *       254.43 MB      
 GA USED    *         2.40 MB       (max)       0.00 MB       (current)
 **********************************************************************************************************************************

    UCCSD(T)-F12        HF-SCF  
    -39.77602855    -39.57536973
 **********************************************************************************************************************************
 Variable memory released
