 Entering Gaussian System, Link 0=g03
 Input=TS4freq.gjf
 Output=TS4freq.log
 Initial command:
 /opt/g03/l1.exe /scratch/nyee/Gau-20672.inp -scrdir=/scratch/nyee/
 Entering Link 1 = /opt/g03/l1.exe PID=     20674.
  
 Copyright (c) 1988,1990,1992,1993,1995,1998,2003,2004, Gaussian, Inc.
                  All Rights Reserved.
  
 This is the Gaussian(R) 03 program.  It is based on the
 the Gaussian(R) 98 system (copyright 1998, Gaussian, Inc.),
 the Gaussian(R) 94 system (copyright 1995, Gaussian, Inc.),
 the Gaussian 92(TM) system (copyright 1992, Gaussian, Inc.),
 the Gaussian 90(TM) system (copyright 1990, Gaussian, Inc.),
 the Gaussian 88(TM) system (copyright 1988, Gaussian, Inc.),
 the Gaussian 86(TM) system (copyright 1986, Carnegie Mellon
 University), and the Gaussian 82(TM) system (copyright 1983,
 Carnegie Mellon University). Gaussian is a federally registered
 trademark of Gaussian, Inc.
  
 This software contains proprietary and confidential information,
 including trade secrets, belonging to Gaussian, Inc.
  
 This software is provided under written license and may be
 used, copied, transmitted, or stored only in accord with that
 written license.
  
 The following legend is applicable only to US Government
 contracts under FAR:
  
                    RESTRICTED RIGHTS LEGEND
  
 Use, reproduction and disclosure by the US Government is
 subject to restrictions as set forth in subparagraphs (a)
 and (c) of the Commercial Computer Software - Restricted
 Rights clause in FAR 52.227-19.
  
 Gaussian, Inc.
 340 Quinnipiac St., Bldg. 40, Wallingford CT 06492
  
  
 ---------------------------------------------------------------
 Warning -- This program may not be used in any manner that
 competes with the business of Gaussian, Inc. or will provide
 assistance to any competitor of Gaussian, Inc.  The licensee
 of this program is prohibited from giving any competitor of
 Gaussian, Inc. access to this program.  By using this program,
 the user acknowledges that Gaussian, Inc. is engaged in the
 business of creating and licensing software in the field of
 computational chemistry and represents and warrants to the
 licensee that it is not a competitor of Gaussian, Inc. and that
 it will not use this program in any manner prohibited above.
 ---------------------------------------------------------------
  

 Cite this work as:
 Gaussian 03, Revision D.01,
 M. J. Frisch, G. W. Trucks, H. B. Schlegel, G. E. Scuseria, 
 M. A. Robb, J. R. Cheeseman, J. A. Montgomery, Jr., T. Vreven, 
 K. N. Kudin, J. C. Burant, J. M. Millam, S. S. Iyengar, J. Tomasi, 
 V. Barone, B. Mennucci, M. Cossi, G. Scalmani, N. Rega, 
 G. A. Petersson, H. Nakatsuji, M. Hada, M. Ehara, K. Toyota, 
 R. Fukuda, J. Hasegawa, M. Ishida, T. Nakajima, Y. Honda, O. Kitao, 
 H. Nakai, M. Klene, X. Li, J. E. Knox, H. P. Hratchian, J. B. Cross, 
 V. Bakken, C. Adamo, J. Jaramillo, R. Gomperts, R. E. Stratmann, 
 O. Yazyev, A. J. Austin, R. Cammi, C. Pomelli, J. W. Ochterski, 
 P. Y. Ayala, K. Morokuma, G. A. Voth, P. Salvador, J. J. Dannenberg, 
 V. G. Zakrzewski, S. Dapprich, A. D. Daniels, M. C. Strain, 
 O. Farkas, D. K. Malick, A. D. Rabuck, K. Raghavachari, 
 J. B. Foresman, J. V. Ortiz, Q. Cui, A. G. Baboul, S. Clifford, 
 J. Cioslowski, B. B. Stefanov, G. Liu, A. Liashenko, P. Piskorz, 
 I. Komaromi, R. L. Martin, D. J. Fox, T. Keith, M. A. Al-Laham, 
 C. Y. Peng, A. Nanayakkara, M. Challacombe, P. M. W. Gill, 
 B. Johnson, W. Chen, M. W. Wong, C. Gonzalez, and J. A. Pople, 
 Gaussian, Inc., Wallingford CT, 2004.
 
 ******************************************
 Gaussian 03:  AM64L-G03RevD.01 13-Oct-2005
                 9-Jun-2013 
 ******************************************
 %chk=TS4freq.chk
 %mem=1000mb
 %nproc=8
 Will use up to    8 processors via shared memory.
 -------------------------------------
 # freq nosymm b3lyp/cbsb7 iop(7/33=1)
 -------------------------------------
 1/10=4,30=1,38=1/1,3;
 2/15=1,17=6,18=5,40=1/2;
 3/5=4,6=6,7=700,11=2,16=1,25=1,30=1,74=-5/1,2,3;
 4//1;
 5/5=2,38=5/2;
 8/6=4,10=90,11=11/1;
 11/6=1,8=1,9=11,15=111,16=1,31=1/1,2,10;
 10/6=1,31=1/2;
 6/7=2,8=2,9=2,10=2,18=1,28=1/1;
 7/8=1,10=1,25=1,30=1,33=1/1,2,3,16;
 1/10=4,30=1/3;
 99//99;
 -------------------
 Title Card Required
 -------------------
 Symbolic Z-matrix:
 Charge =  0 Multiplicity = 2
 C                    -3.26349   1.35718   0.16306 
 H                    -2.35324   1.78161   0.60646 
 H                    -3.43354   1.88062  -0.78702 
 O                    -4.29744   1.60546   1.09511 
 H                    -5.1041    1.23591   0.71717 
 C                    -3.00945  -0.10698  -0.10999 
 C                    -3.01734  -1.03664   1.06325 
 H                    -3.0943   -2.07871   0.75009 
 H                    -2.07631  -0.91799   1.61736 
 H                    -3.82934  -0.7962    1.74854 
 C                    -2.55633  -0.50772  -1.36414 
 H                    -2.22895   0.26268  -2.06097 
 H                    -2.02405  -1.45325  -1.44129 
 H                    -3.76494  -0.80615  -1.8642 
 O                    -5.24124  -0.48149  -0.6594 
 O                    -5.03911  -0.90296  -1.84935 
 

 GradGradGradGradGradGradGradGradGradGradGradGradGradGradGradGradGradGrad
 Berny optimization.
 Initialization pass.
 Trust Radius=3.00D-01 FncErr=1.00D-07 GrdErr=1.00D-07
 Number of steps in this run=   2 maximum allowed number of steps=   2.
 GradGradGradGradGradGradGradGradGradGradGradGradGradGradGradGradGradGrad

                          Input orientation:                          
 ---------------------------------------------------------------------
 Center     Atomic     Atomic              Coordinates (Angstroms)
 Number     Number      Type              X           Y           Z
 ---------------------------------------------------------------------
    1          6             0       -3.263492    1.357177    0.163056
    2          1             0       -2.353235    1.781605    0.606455
    3          1             0       -3.433542    1.880620   -0.787017
    4          8             0       -4.297444    1.605460    1.095111
    5          1             0       -5.104097    1.235907    0.717166
    6          6             0       -3.009450   -0.106982   -0.109989
    7          6             0       -3.017342   -1.036644    1.063254
    8          1             0       -3.094298   -2.078709    0.750087
    9          1             0       -2.076314   -0.917985    1.617360
   10          1             0       -3.829342   -0.796196    1.748535
   11          6             0       -2.556325   -0.507719   -1.364141
   12          1             0       -2.228953    0.262683   -2.060972
   13          1             0       -2.024050   -1.453253   -1.441287
   14          1             0       -3.764944   -0.806149   -1.864197
   15          8             0       -5.241244   -0.481492   -0.659395
   16          8             0       -5.039112   -0.902964   -1.849351
 ---------------------------------------------------------------------
                    Distance matrix (angstroms):
                    1          2          3          4          5
     1  C    0.000000
     2  H    1.097866   0.000000
     3  H    1.097975   1.765965   0.000000
     4  O    1.414011   2.012402   2.089126   0.000000
     5  H    1.926025   2.806650   2.338584   0.964417   0.000000
     6  C    1.510911   2.123834   2.142144   2.458384   2.622038
     7  C    2.569304   2.931251   3.479534   2.936050   3.104644
     8  H    3.489777   3.933425   4.260758   3.890977   3.876475
     9  H    2.949704   2.895928   3.931321   3.402049   3.823228
    10  H    2.733303   3.182498   3.708238   2.532594   2.611162
    11  C    2.512022   3.027457   2.608974   3.680345   3.723334
    12  H    2.685980   3.072090   2.385732   4.005317   4.114811
    13  H    3.465350   3.842644   3.678240   4.577921   4.623547
    14  H    3.006857   3.846234   2.913567   3.854467   3.553415
    15  O    2.822877   3.881312   2.977188   2.885207   2.205264
    16  O    3.508681   4.522370   3.384486   3.938543   3.341557
                    6          7          8          9         10
     6  C    0.000000
     7  C    1.496941   0.000000
     8  H    2.152821   1.090823   0.000000
     9  H    2.124195   1.098475   1.770800   0.000000
    10  H    2.145076   1.089389   1.783824   1.762143   0.000000
    11  C    1.392411   2.526766   2.688380   3.047635   3.375284
    12  H    2.133580   3.474276   3.759387   3.866187   4.265538
    13  H    2.134435   2.726338   2.517687   3.105570   3.723677
    14  H    2.033925   3.030183   2.983899   3.871074   3.613320
    15  O    2.328736   2.867308   3.024420   3.923126   2.809027
    16  O    2.788995   3.548055   3.452790   4.560316   3.797332
                   11         12         13         14         15
    11  C    0.000000
    12  H    1.089158   0.000000
    13  H    1.087797   1.835873   0.000000
    14  H    1.341595   1.881593   1.904812   0.000000
    15  O    2.775994   3.404719   3.450509   1.932980   0.000000
    16  O    2.560445   3.049674   3.091914   1.277927   1.278472
                   16
    16  O    0.000000
 Symmetry turned off by external request.
 Stoichiometry    C4H9O3(2)
 Framework group  C1[X(C4H9O3)]
 Deg. of freedom    42
 Full point group                 C1
 Rotational constants (GHZ):      3.0193689      2.0749101      1.7123104
 Standard basis: CBSB7 (5D, 7F)
 Integral buffers will be    131072 words long.
 Raffenetti 2 integral format.
 Two-electron integral symmetry is turned off.
   180 basis functions,   296 primitive gaussians,   187 cartesian basis functions
    29 alpha electrons       28 beta electrons
       nuclear repulsion energy       327.8897631050 Hartrees.
 NAtoms=   16 NActive=   16 NUniq=   16 SFac= 7.50D-01 NAtFMM=   80 NAOKFM=F Big=F
 One-electron integrals computed using PRISM.
 NBasis=   180 RedAO= T  NBF=   180
 NBsUse=   180 1.00D-06 NBFU=   180
 Harris functional with IExCor=  402 diagonalized for initial guess.
 ExpMin= 1.03D-01 ExpMax= 8.59D+03 ExpMxC= 1.30D+03 IAcc=1 IRadAn=         1 AccDes= 1.00D-06
 HarFok:  IExCor= 402 AccDes= 1.00D-06 IRadAn=         1 IDoV=1
 ScaDFX=  1.000000  1.000000  1.000000  1.000000
 <S**2> of initial guess= 0.7500
 Requested convergence on RMS density matrix=1.00D-08 within 128 cycles.
 Requested convergence on MAX density matrix=1.00D-06.
 Requested convergence on             energy=1.00D-06.
 No special actions if energy rises.
 Integral accuracy reduced to 1.0D-05 until final iterations.
 EnCoef did     2 forward-backward iterations
 Initial convergence to 1.0D-05 achieved.  Increase integral accuracy.
 SCF Done:  E(UB+HF-LYP) =  -383.451900411     A.U. after   21 cycles
             Convg  =    0.7448D-08             -V/T =  2.0033
             S**2   =   0.7586
 Annihilation of the first spin contaminant:
 S**2 before annihilation     0.7586,   after     0.7500
 Range of M.O.s used for correlation:     1   180
 NBasis=   180 NAE=    29 NBE=    28 NFC=     0 NFV=     0
 NROrb=    180 NOA=    29 NOB=    28 NVA=   151 NVB=   152
 Symmetrizing basis deriv contribution to polar:
 IMax=3 JMax=2 DiffMx= 0.00D+00
 G2DrvN: will do   17 centers at a time, making    1 passes doing MaxLOS=2.
 FoFDir/FoFCou used for L=0 through L=2.
 DoAtom=TTTTTTTTTTTTTTTT
          Differentiating once with respect to electric field.
                with respect to dipole field.
          Differentiating once with respect to nuclear coordinates.
 Symmetry not used in FoFDir.
 MinBra= 0 MaxBra= 2 Meth= 1.
 IRaf=       0 NMat=  51 IRICut=      51 DoRegI=T DoRafI=T ISym2E= 0 JSym2E=0.
          There are  51 degrees of freedom in the 1st order CPHF.
    48 vectors were produced by pass  0.
 AX will form  48 AO Fock derivatives at one time.
    48 vectors were produced by pass  1.
    48 vectors were produced by pass  2.
    48 vectors were produced by pass  3.
    48 vectors were produced by pass  4.
    48 vectors were produced by pass  5.
    28 vectors were produced by pass  6.
     3 vectors were produced by pass  7.
     3 vectors were produced by pass  8.
 Inv2:  IOpt= 1 Iter= 1 AM= 2.48D-15 Conv= 1.00D-12.
 Inverted reduced A of dimension  322 with in-core refinement.
 Isotropic polarizability for W=    0.000000       63.94 Bohr**3.
 End of Minotr Frequency-dependent properties file   721 does not exist.

 **********************************************************************

            Population analysis using the SCF density.

 **********************************************************************

 Alpha  occ. eigenvalues --  -19.21373 -19.20094 -19.12084 -10.23392 -10.23132
 Alpha  occ. eigenvalues --  -10.17981 -10.17427  -1.20104  -1.03200  -0.83236
 Alpha  occ. eigenvalues --   -0.81039  -0.71590  -0.69851  -0.56566  -0.53703
 Alpha  occ. eigenvalues --   -0.51823  -0.49148  -0.48550  -0.47576  -0.45164
 Alpha  occ. eigenvalues --   -0.44155  -0.41967  -0.39412  -0.38488  -0.34339
 Alpha  occ. eigenvalues --   -0.32270  -0.28850  -0.27616  -0.25830
 Alpha virt. eigenvalues --   -0.05185   0.03887   0.06008   0.07312   0.07927
 Alpha virt. eigenvalues --    0.09766   0.10568   0.12480   0.14027   0.14725
 Alpha virt. eigenvalues --    0.18399   0.19205   0.21241   0.23728   0.25122
 Alpha virt. eigenvalues --    0.28839   0.31086   0.31670   0.34360   0.38072
 Alpha virt. eigenvalues --    0.40539   0.42401   0.45005   0.46331   0.48838
 Alpha virt. eigenvalues --    0.50205   0.54690   0.56345   0.56678   0.57689
 Alpha virt. eigenvalues --    0.57772   0.58554   0.59957   0.60913   0.64265
 Alpha virt. eigenvalues --    0.66225   0.67765   0.73134   0.77005   0.77531
 Alpha virt. eigenvalues --    0.78749   0.85132   0.85943   0.87737   0.89842
 Alpha virt. eigenvalues --    0.91618   0.98402   1.01195   1.05063   1.07402
 Alpha virt. eigenvalues --    1.12683   1.16884   1.24622   1.25652   1.27742
 Alpha virt. eigenvalues --    1.32169   1.35116   1.38356   1.38841   1.41656
 Alpha virt. eigenvalues --    1.42779   1.44891   1.46420   1.48710   1.50203
 Alpha virt. eigenvalues --    1.54057   1.55538   1.58500   1.59696   1.61571
 Alpha virt. eigenvalues --    1.63426   1.66798   1.67844   1.69884   1.71185
 Alpha virt. eigenvalues --    1.73984   1.81596   1.82159   1.85494   1.90749
 Alpha virt. eigenvalues --    1.97472   1.97692   2.00529   2.03887   2.04486
 Alpha virt. eigenvalues --    2.10555   2.12705   2.16547   2.24266   2.25424
 Alpha virt. eigenvalues --    2.29309   2.33213   2.35839   2.37652   2.40784
 Alpha virt. eigenvalues --    2.42421   2.43468   2.46368   2.50096   2.51414
 Alpha virt. eigenvalues --    2.51993   2.54994   2.57043   2.58447   2.63818
 Alpha virt. eigenvalues --    2.69659   2.72107   2.74525   2.75603   2.80890
 Alpha virt. eigenvalues --    2.84570   2.88112   2.88941   2.92189   2.92500
 Alpha virt. eigenvalues --    3.00570   3.09390   3.13862   3.17859   3.23299
 Alpha virt. eigenvalues --    3.30664   3.35151   3.37573   3.42019   3.65541
 Alpha virt. eigenvalues --    3.67206   3.69468   3.75382   3.78567   3.81745
 Alpha virt. eigenvalues --    3.87288   3.90485   3.93134   4.23362   4.31957
 Alpha virt. eigenvalues --    4.62879   4.71433   4.85004   4.88278   4.90993
 Alpha virt. eigenvalues --    5.11846   5.27003   5.63395   6.03162  23.69535
 Alpha virt. eigenvalues --   23.79790  23.92109  24.04646  49.70447  49.73437
 Alpha virt. eigenvalues --   49.88631
  Beta  occ. eigenvalues --  -19.19933 -19.18378 -19.12078 -10.23387 -10.23212
  Beta  occ. eigenvalues --  -10.17975 -10.17412  -1.16995  -1.03188  -0.83331
  Beta  occ. eigenvalues --   -0.76811  -0.71464  -0.69787  -0.56568  -0.52740
  Beta  occ. eigenvalues --   -0.51539  -0.48374  -0.46243  -0.45044  -0.43988
  Beta  occ. eigenvalues --   -0.42301  -0.40023  -0.39391  -0.38488  -0.34325
  Beta  occ. eigenvalues --   -0.31421  -0.28818  -0.24568
  Beta virt. eigenvalues --   -0.10391  -0.05028   0.03908   0.06229   0.07387
  Beta virt. eigenvalues --    0.07926   0.09797   0.10620   0.12481   0.14541
  Beta virt. eigenvalues --    0.15101   0.18503   0.19322   0.22015   0.24108
  Beta virt. eigenvalues --    0.25161   0.28848   0.31204   0.31800   0.34487
  Beta virt. eigenvalues --    0.38175   0.40546   0.42414   0.45145   0.46340
  Beta virt. eigenvalues --    0.48900   0.50458   0.54640   0.56386   0.56716
  Beta virt. eigenvalues --    0.57753   0.57965   0.58571   0.60115   0.60956
  Beta virt. eigenvalues --    0.64362   0.66310   0.67890   0.73321   0.77802
  Beta virt. eigenvalues --    0.79102   0.80840   0.85785   0.86922   0.87909
  Beta virt. eigenvalues --    0.90631   0.91874   0.98609   1.02161   1.05590
  Beta virt. eigenvalues --    1.07937   1.12784   1.16895   1.24679   1.25992
  Beta virt. eigenvalues --    1.28158   1.32879   1.35248   1.38421   1.38825
  Beta virt. eigenvalues --    1.41698   1.43241   1.44935   1.46536   1.48799
  Beta virt. eigenvalues --    1.50246   1.54023   1.55661   1.58735   1.59847
  Beta virt. eigenvalues --    1.61580   1.63487   1.66799   1.67851   1.69884
  Beta virt. eigenvalues --    1.71242   1.73959   1.81598   1.82187   1.85612
  Beta virt. eigenvalues --    1.90689   1.97416   1.97729   2.00782   2.03932
  Beta virt. eigenvalues --    2.04531   2.10570   2.12705   2.16577   2.24287
  Beta virt. eigenvalues --    2.25638   2.29408   2.35221   2.36422   2.38674
  Beta virt. eigenvalues --    2.41031   2.42611   2.43494   2.46551   2.50267
  Beta virt. eigenvalues --    2.51410   2.52047   2.55407   2.57271   2.58462
  Beta virt. eigenvalues --    2.63899   2.70472   2.72586   2.77124   2.77597
  Beta virt. eigenvalues --    2.82630   2.85528   2.88455   2.89492   2.92958
  Beta virt. eigenvalues --    2.96157   3.01532   3.09821   3.13939   3.18564
  Beta virt. eigenvalues --    3.23406   3.31595   3.37614   3.39979   3.43510
  Beta virt. eigenvalues --    3.65670   3.67521   3.70460   3.75514   3.78597
  Beta virt. eigenvalues --    3.81785   3.87949   3.90830   3.93351   4.23288
  Beta virt. eigenvalues --    4.31891   4.69116   4.72539   4.86492   4.89781
  Beta virt. eigenvalues --    4.96154   5.13316   5.27029   5.63413   6.04783
  Beta virt. eigenvalues --   23.69494  23.79778  23.92112  24.04628  49.72004
  Beta virt. eigenvalues --   49.75006  49.88652
          Condensed to atoms (all electrons):
              1          2          3          4          5          6
     1  C    4.667473   0.390043   0.403928   0.302460  -0.049541   0.324001
     2  H    0.390043   0.592999  -0.038011  -0.032481   0.008760  -0.039111
     3  H    0.403928  -0.038011   0.606723  -0.029192  -0.008192  -0.055212
     4  O    0.302460  -0.032481  -0.029192   7.857096   0.321144  -0.051916
     5  H   -0.049541   0.008760  -0.008192   0.321144   0.468266  -0.001061
     6  C    0.324001  -0.039111  -0.055212  -0.051916  -0.001061   5.492183
     7  C   -0.055536  -0.007598   0.008897  -0.006687  -0.001239   0.317989
     8  H    0.006117  -0.000251  -0.000413  -0.000217  -0.000013  -0.031814
     9  H   -0.000757   0.002874  -0.000334  -0.000673  -0.000168  -0.034269
    10  H   -0.011855  -0.001289   0.001779   0.026755  -0.001310  -0.041775
    11  C   -0.043636   0.000782  -0.000064   0.005670  -0.000128   0.398762
    12  H   -0.004502   0.000366   0.004640   0.000124  -0.000161  -0.047264
    13  H    0.004548  -0.000711   0.000210  -0.000169  -0.000050  -0.033473
    14  H   -0.000907  -0.000240  -0.000113  -0.000025   0.001130  -0.004558
    15  O   -0.008999   0.001611  -0.000593  -0.004295   0.014703   0.069316
    16  O    0.003702  -0.000264   0.001444   0.000262  -0.001366  -0.066678
              7          8          9         10         11         12
     1  C   -0.055536   0.006117  -0.000757  -0.011855  -0.043636  -0.004502
     2  H   -0.007598  -0.000251   0.002874  -0.001289   0.000782   0.000366
     3  H    0.008897  -0.000413  -0.000334   0.001779  -0.000064   0.004640
     4  O   -0.006687  -0.000217  -0.000673   0.026755   0.005670   0.000124
     5  H   -0.001239  -0.000013  -0.000168  -0.001310  -0.000128  -0.000161
     6  C    0.317989  -0.031814  -0.034269  -0.041775   0.398762  -0.047264
     7  C    4.817597   0.406631   0.389986   0.400669  -0.054453   0.006051
     8  H    0.406631   0.555360  -0.025500  -0.025430  -0.006008   0.000155
     9  H    0.389986  -0.025500   0.576009  -0.027088  -0.004049  -0.000498
    10  H    0.400669  -0.025430  -0.027088   0.541718   0.008040  -0.000108
    11  C   -0.054453  -0.006008  -0.004049   0.008040   5.046513   0.414919
    12  H    0.006051   0.000155  -0.000498  -0.000108   0.414919   0.538204
    13  H   -0.005025   0.002185   0.000185   0.000153   0.405139  -0.029215
    14  H   -0.000599   0.000563  -0.000116  -0.000230   0.218695  -0.011599
    15  O   -0.006828  -0.000194   0.001632   0.000556  -0.021002   0.001839
    16  O    0.002096   0.001066  -0.000294   0.000381  -0.062405  -0.000027
             13         14         15         16
     1  C    0.004548  -0.000907  -0.008999   0.003702
     2  H   -0.000711  -0.000240   0.001611  -0.000264
     3  H    0.000210  -0.000113  -0.000593   0.001444
     4  O   -0.000169  -0.000025  -0.004295   0.000262
     5  H   -0.000050   0.001130   0.014703  -0.001366
     6  C   -0.033473  -0.004558   0.069316  -0.066678
     7  C   -0.005025  -0.000599  -0.006828   0.002096
     8  H    0.002185   0.000563  -0.000194   0.001066
     9  H    0.000185  -0.000116   0.001632  -0.000294
    10  H    0.000153  -0.000230   0.000556   0.000381
    11  C    0.405139   0.218695  -0.021002  -0.062405
    12  H   -0.029215  -0.011599   0.001839  -0.000027
    13  H    0.534070  -0.010510   0.001622   0.000073
    14  H   -0.010510   0.469080  -0.063999   0.143671
    15  O    0.001622  -0.063999   8.157546   0.055840
    16  O    0.000073   0.143671   0.055840   8.059401
 Mulliken atomic charges:
              1
     1  C    0.073459
     2  H    0.122522
     3  H    0.104503
     4  O   -0.387856
     5  H    0.249224
     6  C   -0.195123
     7  C   -0.211952
     8  H    0.117762
     9  H    0.123058
    10  H    0.129033
    11  C   -0.306775
    12  H    0.127074
    13  H    0.130967
    14  H    0.259759
    15  O   -0.198753
    16  O   -0.136902
 Sum of Mulliken charges=   0.00000
 Atomic charges with hydrogens summed into heavy atoms:
              1
     1  C    0.300485
     2  H    0.000000
     3  H    0.000000
     4  O   -0.138632
     5  H    0.000000
     6  C   -0.195123
     7  C    0.157901
     8  H    0.000000
     9  H    0.000000
    10  H    0.000000
    11  C   -0.048734
    12  H    0.000000
    13  H    0.000000
    14  H    0.000000
    15  O   -0.198753
    16  O    0.122857
 Sum of Mulliken charges=   0.00000
          Atomic-Atomic Spin Densities.
              1          2          3          4          5          6
     1  C    0.000452  -0.000023  -0.000425  -0.000533   0.000120   0.003831
     2  H   -0.000023  -0.005389   0.000451   0.000558   0.000087   0.001420
     3  H   -0.000425   0.000451  -0.001086  -0.000070   0.000001   0.000817
     4  O   -0.000533   0.000558  -0.000070   0.002677  -0.000685   0.000844
     5  H    0.000120   0.000087   0.000001  -0.000685   0.000384  -0.000257
     6  C    0.003831   0.001420   0.000817   0.000844  -0.000257  -0.072763
     7  C   -0.000428   0.000236  -0.000003  -0.000195   0.000251   0.003428
     8  H    0.000012   0.000040   0.000009  -0.000017   0.000018   0.000557
     9  H    0.000213  -0.000471   0.000039   0.000052  -0.000051   0.001991
    10  H   -0.000046   0.000075  -0.000028  -0.000015  -0.000188   0.000824
    11  C   -0.000668  -0.000028  -0.000284   0.000008  -0.000038   0.003539
    12  H    0.000192  -0.000072   0.000244   0.000004   0.000020  -0.000346
    13  H    0.000052  -0.000053  -0.000016   0.000004  -0.000002  -0.000366
    14  H   -0.000290   0.000132  -0.000171  -0.000032  -0.000086   0.006122
    15  O    0.002463  -0.000017  -0.000153  -0.000841   0.001507  -0.010890
    16  O   -0.000550  -0.000010  -0.000295   0.000051  -0.000366   0.003281
              7          8          9         10         11         12
     1  C   -0.000428   0.000012   0.000213  -0.000046  -0.000668   0.000192
     2  H    0.000236   0.000040  -0.000471   0.000075  -0.000028  -0.000072
     3  H   -0.000003   0.000009   0.000039  -0.000028  -0.000284   0.000244
     4  O   -0.000195  -0.000017   0.000052  -0.000015   0.000008   0.000004
     5  H    0.000251   0.000018  -0.000051  -0.000188  -0.000038   0.000020
     6  C    0.003428   0.000557   0.001991   0.000824   0.003539  -0.000346
     7  C    0.003074  -0.000107  -0.001252  -0.001010  -0.000169   0.000028
     8  H   -0.000107  -0.000467   0.000141  -0.000238  -0.000118  -0.000008
     9  H   -0.001252   0.000141  -0.004454   0.001135  -0.000015  -0.000062
    10  H   -0.001010  -0.000238   0.001135  -0.001262  -0.000023   0.000004
    11  C   -0.000169  -0.000118  -0.000015  -0.000023   0.006117  -0.000009
    12  H    0.000028  -0.000008  -0.000062   0.000004  -0.000009  -0.001439
    13  H    0.000079   0.000152  -0.000041   0.000036  -0.000011  -0.000093
    14  H   -0.000370  -0.000146   0.000131  -0.000126   0.002903   0.000804
    15  O    0.001334  -0.000447   0.000013   0.000625   0.001381  -0.000101
    16  O   -0.000455  -0.000138  -0.000016  -0.000130  -0.001204   0.000128
             13         14         15         16
     1  C    0.000052  -0.000290   0.002463  -0.000550
     2  H   -0.000053   0.000132  -0.000017  -0.000010
     3  H   -0.000016  -0.000171  -0.000153  -0.000295
     4  O    0.000004  -0.000032  -0.000841   0.000051
     5  H   -0.000002  -0.000086   0.001507  -0.000366
     6  C   -0.000366   0.006122  -0.010890   0.003281
     7  C    0.000079  -0.000370   0.001334  -0.000455
     8  H    0.000152  -0.000146  -0.000447  -0.000138
     9  H   -0.000041   0.000131   0.000013  -0.000016
    10  H    0.000036  -0.000126   0.000625  -0.000130
    11  C   -0.000011   0.002903   0.001381  -0.001204
    12  H   -0.000093   0.000804  -0.000101   0.000128
    13  H   -0.001111   0.000785  -0.000059   0.000095
    14  H    0.000785  -0.019986   0.002453  -0.007821
    15  O   -0.000059   0.002453   0.759395  -0.170295
    16  O    0.000095  -0.007821  -0.170295   0.651381
 Mulliken atomic spin densities:
              1
     1  C    0.004370
     2  H   -0.003066
     3  H   -0.000971
     4  O    0.001808
     5  H    0.000717
     6  C   -0.057969
     7  C    0.004442
     8  H   -0.000757
     9  H   -0.002648
    10  H   -0.000370
    11  C    0.011379
    12  H   -0.000706
    13  H   -0.000552
    14  H   -0.015699
    15  O    0.586369
    16  O    0.473655
 Sum of Mulliken spin densities=   1.00000
 APT atomic charges:
              1
     1  C    0.400783
     2  H   -0.024322
     3  H   -0.052164
     4  O   -0.578491
     5  H    0.277406
     6  C    0.400474
     7  C   -0.057921
     8  H    0.005116
     9  H   -0.002277
    10  H    0.038433
    11  C   -0.226503
    12  H    0.032730
    13  H    0.033991
    14  H    0.292092
    15  O   -0.144187
    16  O   -0.395161
 Sum of APT charges=   0.00000
 APT Atomic charges with hydrogens summed into heavy atoms:
              1
     1  C    0.324297
     2  H    0.000000
     3  H    0.000000
     4  O   -0.301085
     5  H    0.000000
     6  C    0.400474
     7  C   -0.016648
     8  H    0.000000
     9  H    0.000000
    10  H    0.000000
    11  C   -0.159782
    12  H    0.000000
    13  H    0.000000
    14  H    0.000000
    15  O   -0.144187
    16  O   -0.103069
 Sum of APT charges=   0.00000
 Electronic spatial extent (au):  <R**2>=  3751.3676
 Charge=     0.0000 electrons
 Dipole moment (field-independent basis, Debye):
    X=     2.4450    Y=    -0.3543    Z=    -0.3517  Tot=     2.4954
 Quadrupole moment (field-independent basis, Debye-Ang):
   XX=   -61.9880   YY=   -43.9751   ZZ=   -45.1605
   XY=    -0.0886   XZ=    -0.8594   YZ=    -3.9520
 Traceless Quadrupole moment (field-independent basis, Debye-Ang):
   XX=   -11.6134   YY=     6.3995   ZZ=     5.2140
   XY=    -0.0886   XZ=    -0.8594   YZ=    -3.9520
 Octapole moment (field-independent basis, Debye-Ang**2):
  XXX=   586.7758  YYY=    -4.0148  ZZZ=    26.1901  XYY=   166.8010
  XXY=    12.3724  XXZ=    27.5303  XZZ=   173.3865  YZZ=    -1.1590
  YYZ=     3.6897  XYZ=    18.8114
 Hexadecapole moment (field-independent basis, Debye-Ang**3):
 XXXX= -4405.7392 YYYY=  -337.2542 ZZZZ=  -383.0066 XXXY=  -121.7533
 XXXZ=  -285.5753 YYYX=    22.2630 YYYZ=   -65.2201 ZZZX=  -132.1476
 ZZZY=   -66.5620 XXYY=  -735.1074 XXZZ=  -781.7033 YYZZ=  -125.5644
 XXYZ=  -104.6938 YYXZ=   -21.6822 ZZXY=     3.5562
 N-N= 3.278897631050D+02 E-N=-1.555278462861D+03  KE= 3.821971295083D+02
  Exact polarizability:  66.165   1.839  56.142   4.175   6.362  69.509
 Approx polarizability: 111.372   7.823  76.864  11.989  17.268 113.678
                          Isotropic Fermi Contact Couplings
        Atom                 a.u.       MegaHertz       Gauss      10(-4) cm-1
     1  C(13)              0.00218       2.44770       0.87340       0.81646
     2  H(1)              -0.00141      -6.28921      -2.24415      -2.09785
     3  H(1)              -0.00033      -1.49429      -0.53320      -0.49844
     4  O(17)             -0.00128       0.77800       0.27761       0.25951
     5  H(1)              -0.00018      -0.79874      -0.28501      -0.26643
     6  C(13)             -0.00407      -4.57370      -1.63201      -1.52562
     7  C(13)              0.00219       2.46220       0.87858       0.82130
     8  H(1)              -0.00019      -0.84979      -0.30323      -0.28346
     9  H(1)              -0.00135      -6.04145      -2.15574      -2.01521
    10  H(1)              -0.00038      -1.70667      -0.60898      -0.56928
    11  C(13)              0.00098       1.09633       0.39120       0.36570
    12  H(1)              -0.00040      -1.77407      -0.63303      -0.59177
    13  H(1)              -0.00032      -1.45271      -0.51836      -0.48457
    14  H(1)              -0.00709     -31.69457     -11.30941     -10.57217
    15  O(17)              0.04929     -29.87710     -10.66089      -9.96593
    16  O(17)              0.04324     -26.21011      -9.35242      -8.74275
 --------------------------------------------------------
       Center         ----  Spin Dipole Couplings  ----
                      3XX-RR        3YY-RR        3ZZ-RR
 --------------------------------------------------------
     1   Atom        0.002657      0.000249     -0.002906
     2   Atom        0.001316     -0.000697     -0.000619
     3   Atom        0.000610      0.003416     -0.004026
     4   Atom       -0.004049     -0.002119      0.006168
     5   Atom       -0.009728      0.005188      0.004540
     6   Atom       -0.040234      0.020822      0.019413
     7   Atom        0.003768     -0.004795      0.001027
     8   Atom        0.002332     -0.002423      0.000092
     9   Atom        0.001814     -0.001919      0.000106
    10   Atom       -0.001338     -0.004665      0.006002
    11   Atom        0.017849     -0.008890     -0.008959
    12   Atom        0.006549     -0.002711     -0.003838
    13   Atom        0.007447     -0.003223     -0.004224
    14   Atom        0.059804     -0.029555     -0.030249
    15   Atom       -1.142060      2.032270     -0.890210
    16   Atom       -0.940114      1.701558     -0.761444
 --------------------------------------------------------
                        XY            XZ            YZ
 --------------------------------------------------------
     1   Atom        0.006706      0.003781      0.002951
     2   Atom        0.002487      0.001669      0.001129
     3   Atom        0.007186      0.000415      0.001443
     4   Atom        0.008250      0.013556      0.008906
     5   Atom        0.002461      0.002233      0.014705
     6   Atom       -0.013550     -0.017610     -0.003681
     7   Atom       -0.001443      0.006941     -0.000337
     8   Atom       -0.004463      0.005289     -0.002835
     9   Atom       -0.000241      0.002674      0.000255
    10   Atom       -0.000570      0.006563     -0.000203
    11   Atom        0.005112      0.006281      0.001313
    12   Atom        0.003598     -0.002060     -0.000946
    13   Atom       -0.002386      0.000073     -0.000143
    14   Atom        0.003410     -0.012022     -0.001431
    15   Atom       -0.286581      0.157834     -1.294913
    16   Atom       -0.250226      0.117153     -1.099261
 --------------------------------------------------------


 ---------------------------------------------------------------------------------
              Anisotropic Spin Dipole Couplings in Principal Axis System
 ---------------------------------------------------------------------------------

       Atom             a.u.   MegaHertz   Gauss  10(-4) cm-1        Axes

              Baa    -0.0054    -0.724    -0.258    -0.241 -0.6805  0.7058  0.1969
     1 C(13)  Bbb    -0.0046    -0.624    -0.223    -0.208 -0.1272 -0.3784  0.9169
              Bcc     0.0100     1.347     0.481     0.449  0.7217  0.5988  0.3472
 
              Baa    -0.0024    -1.266    -0.452    -0.422 -0.5580  0.8298 -0.0031
     2 H(1)   Bbb    -0.0015    -0.810    -0.289    -0.270 -0.3399 -0.2252  0.9131
              Bcc     0.0039     2.077     0.741     0.693  0.7570  0.5106  0.4077
 
              Baa    -0.0056    -2.968    -1.059    -0.990  0.6874 -0.6128  0.3898
     3 H(1)   Bbb    -0.0039    -2.088    -0.745    -0.697 -0.3627  0.1754  0.9153
              Bcc     0.0095     5.056     1.804     1.686  0.6293  0.7705  0.1017
 
              Baa    -0.0139     1.003     0.358     0.335  0.8500 -0.2427 -0.4674
     4 O(17)  Bbb    -0.0078     0.563     0.201     0.188 -0.0366  0.8581 -0.5121
              Bcc     0.0216    -1.566    -0.559    -0.522  0.5254  0.4524  0.7206
 
              Baa    -0.0101    -5.415    -1.932    -1.806  0.9208 -0.3366  0.1969
     5 H(1)   Bbb    -0.0098    -5.226    -1.865    -1.743 -0.3738 -0.6177  0.6919
              Bcc     0.0199    10.641     3.797     3.550  0.1112  0.7107  0.6946
 
              Baa    -0.0479    -6.429    -2.294    -2.145  0.9451  0.2001  0.2582
     6 C(13)  Bbb     0.0237     3.179     1.134     1.060 -0.1832  0.9791 -0.0882
              Bcc     0.0242     3.251     1.160     1.084 -0.2704  0.0361  0.9621
 
              Baa    -0.0055    -0.733    -0.262    -0.244  0.4591  0.7651 -0.4515
     7 C(13)  Bbb    -0.0041    -0.555    -0.198    -0.185 -0.4397  0.6373  0.6329
              Bcc     0.0096     1.288     0.459     0.429  0.7720 -0.0921  0.6290
 
              Baa    -0.0052    -2.749    -0.981    -0.917  0.5895  0.7903 -0.1673
     8 H(1)   Bbb    -0.0039    -2.070    -0.739    -0.691 -0.3704  0.4485  0.8134
              Bcc     0.0090     4.819     1.720     1.608  0.7179 -0.4176  0.5571
 
              Baa    -0.0022    -1.192    -0.425    -0.398  0.3996  0.7425 -0.5377
     9 H(1)   Bbb    -0.0015    -0.818    -0.292    -0.273 -0.4334  0.6698  0.6029
              Bcc     0.0038     2.010     0.717     0.671  0.8078 -0.0079  0.5894
 
              Baa    -0.0054    -2.880    -1.028    -0.961  0.7658  0.4760 -0.4324
    10 H(1)   Bbb    -0.0045    -2.384    -0.851    -0.795 -0.3964  0.8789  0.2655
              Bcc     0.0099     5.264     1.878     1.756  0.5064 -0.0319  0.8617
 
              Baa    -0.0104    -1.397    -0.498    -0.466 -0.1595 -0.2813  0.9463
    11 C(13)  Bbb    -0.0098    -1.315    -0.469    -0.439 -0.2293  0.9429  0.2417
              Bcc     0.0202     2.711     0.967     0.904  0.9602  0.1784  0.2149
 
              Baa    -0.0044    -2.334    -0.833    -0.779  0.0044  0.4868  0.8735
    12 H(1)   Bbb    -0.0038    -2.043    -0.729    -0.682 -0.3709  0.8120 -0.4506
              Bcc     0.0082     4.378     1.562     1.460  0.9286  0.3220 -0.1841
 
              Baa    -0.0043    -2.270    -0.810    -0.757  0.0405  0.2286  0.9727
    13 H(1)   Bbb    -0.0037    -1.975    -0.705    -0.659  0.2050  0.9509 -0.2320
              Bcc     0.0080     4.246     1.515     1.416  0.9779 -0.2088  0.0083
 
              Baa    -0.0322   -17.183    -6.131    -5.732  0.1076  0.3617  0.9261
    14 H(1)   Bbb    -0.0293   -15.642    -5.581    -5.218 -0.0834  0.9315 -0.3541
              Bcc     0.0615    32.825    11.713    10.949  0.9907  0.0391 -0.1304
 
              Baa    -1.3909   100.645    35.913    33.572 -0.2025  0.3316  0.9214
    15 O(17)  Bbb    -1.1610    84.007    29.976    28.022  0.9754  0.1523  0.1596
              Bcc     2.5519  -184.652   -65.889   -61.593 -0.0874  0.9311 -0.3543
 
              Baa    -1.1826    85.570    30.533    28.543 -0.0921  0.3477  0.9331
    16 O(17)  Bbb    -0.9628    69.671    24.860    23.240  0.9918  0.1157  0.0547
              Bcc     2.1454  -155.241   -55.394   -51.783 -0.0890  0.9305 -0.3554
 

 ---------------------------------------------------------------------------------

 Use density number 0.
 Entering OneElI...
 Calculate overlap and kinetic energy integrals
    NBasis = 187  MinDer = 2  MaxDer = 2
 Requested accuracy = 0.1000D-12
 PrsmSu:  NPrtUS=   1 ThrOK=F
 PRISM was handed   130758840 working-precision words and  2552 shell-pairs
 Entering OneElI...
 Calculate potential energy integrals
    NBasis = 187  MinDer = 2  MaxDer = 2
 Requested accuracy = 0.1000D-12
 PrsmSu:  NPrtUS=   8 ThrOK=T
 PRISM was handed    16301133 working-precision words and  2416 shell-pairs
 PRISM was handed    16301133 working-precision words and  2416 shell-pairs
 PRISM was handed    16301133 working-precision words and  2416 shell-pairs
 PRISM was handed    16301133 working-precision words and  2416 shell-pairs
 PRISM was handed    16301133 working-precision words and  2416 shell-pairs
 PRISM was handed    16301133 working-precision words and  2416 shell-pairs
 PRISM was handed    16301133 working-precision words and  2416 shell-pairs
 PRISM was handed    16301133 working-precision words and  2416 shell-pairs
 Polarizability after L701:
                1             2             3
      1  0.661647D+02
      2  0.183881D+01  0.561420D+02
      3  0.417515D+01  0.636190D+01  0.695091D+02
 Dipole Derivatives after L701:
               1            2            3            4            5
      1 0.445295D+00-0.463262D-01-0.184309D+00-0.648883D-01-0.753974D-01
      2-0.177127D+00 0.307730D+00 0.499848D-01-0.185254D-01-0.515064D-02
      3-0.328307D+00 0.992943D-01 0.449325D+00-0.106827D-01-0.761234D-01
               6            7            8            9           10
      1-0.828734D-01 0.131863D-01 0.854256D-02 0.401334D-01-0.592751D+00
      2-0.766303D-01 0.452749D-01-0.196371D-01 0.102190D+00 0.220519D+00
      3-0.292731D-02 0.186629D-02 0.529136D-01-0.150041D+00 0.341775D+00
              11           12           13           14           15
      1 0.128879D+00 0.224109D+00 0.259310D+00-0.109830D+00-0.729240D-01
      2-0.592215D+00-0.455367D-01-0.721805D-01 0.341637D+00-0.232926D-01
      3-0.555840D-01-0.550508D+00-0.429651D-01 0.109130D-02 0.231271D+00
              16           17           18           19           20
      1 0.344809D+00-0.657962D-01-0.864340D-01 0.207000D-02 0.388983D-02
      2 0.164374D-02 0.267657D+00 0.497310D-01 0.186270D-01-0.480884D-01
      3 0.528600D-01-0.281820D-01 0.588957D+00-0.755368D-01 0.597481D-01
              21           22           23           24           25
      1-0.905518D-02 0.852440D-01 0.102433D-01-0.125918D-01-0.588851D-01
      2 0.666133D-01-0.124554D-01-0.974678D-01-0.717462D-01-0.247398D-01
      3-0.127744D+00 0.182753D-01-0.113291D-01 0.275712D-01-0.863841D-01
              26           27           28           29           30
      1-0.125932D-01-0.102368D+00-0.982522D-03 0.459703D-01 0.354159D-01
      2 0.706897D-01-0.950148D-03 0.639781D-02 0.945452D-01-0.725357D-02
      3 0.373902D-01-0.186352D-01 0.100524D+00-0.540207D-02 0.217372D-01
              31           32           33           34           35
      1-0.134964D+00-0.107847D-01 0.212622D-01 0.554144D-01-0.132771D-01
      2-0.871981D-01-0.629156D-01-0.159007D+00 0.605654D-02-0.182726D-01
      3-0.200410D+00-0.202523D+00-0.481630D+00 0.106476D+00 0.113226D+00
              36           37           38           39           40
      1 0.473180D-01 0.400270D-01 0.672936D-01 0.296976D-01 0.482748D+00
      2 0.697510D-01 0.913647D-01-0.446707D-01 0.402344D-01 0.121145D+00
      3 0.610479D-01 0.902088D-01 0.175409D-01 0.106617D+00 0.266831D+00
              41           42           43           44           45
      1 0.128454D+00 0.249993D+00-0.526772D+00 0.235615D+00 0.650528D+00
      2 0.171088D+00 0.493358D-01-0.177700D-01-0.145266D+00 0.205016D+00
      3 0.519951D-01 0.222442D+00 0.399034D-02 0.151154D+00 0.239479D+00
              46           47           48
      1-0.348859D+00-0.294883D+00-0.747901D+00
      2-0.101033D+00-0.219663D+00-0.248440D+00
      3-0.238521D+00-0.205210D+00-0.616961D+00
 Hessian after L701:
                1             2             3             4             5
      1  0.164345D+02
      2  0.155830D+01  0.162802D+02
      3  0.328738D+01 -0.206079D+01  0.171219D+02
      4 -0.220543D+01  0.993238D+00  0.973627D+00  0.186670D+01
      5  0.110242D+01 -0.411446D+01  0.456877D+00 -0.134149D+01  0.375947D+01
      6  0.919512D+00  0.390369D+00 -0.417680D+01 -0.112267D+01 -0.451032D+00
      7 -0.471865D+01 -0.136686D+00  0.257949D+00  0.137017D-01  0.126931D-01
      8 -0.212060D+00 -0.395448D+01 -0.161332D+01  0.226372D-01  0.152834D+00
      9  0.328653D+00 -0.135384D+01 -0.223055D+01 -0.175508D+00  0.547963D-02
     10 -0.298896D+01 -0.125193D+01 -0.457276D+01 -0.185392D-01  0.106754D+00
     11 -0.141223D+01 -0.793795D+01  0.120591D+01  0.818191D-01  0.836880D-01
     12 -0.471852D+01  0.115066D+01 -0.432449D+01  0.248089D+00  0.107249D-01
     13  0.260152D-02 -0.732056D-01 -0.616670D-01  0.194396D+00  0.594434D-01
     14  0.459165D-01  0.165754D+00 -0.468835D-02  0.458695D-01 -0.299191D-01
     15  0.672740D-01  0.251382D-01  0.203206D+00  0.553210D-04 -0.186363D-02
     16 -0.643955D+01 -0.136348D+01 -0.316283D+00  0.114899D+00 -0.393117D-01
     17 -0.121526D+01 -0.105262D+01  0.145157D+01  0.178215D-01  0.109131D+00
     18 -0.241216D+00  0.141258D+01 -0.630299D+01 -0.390155D-01 -0.124901D+00
     19  0.218114D-01 -0.265205D-01  0.297509D-01  0.879478D-02  0.451616D-02
     20 -0.102490D+00  0.241943D+00 -0.767331D-01  0.145907D-01 -0.554378D-01
     21  0.559851D-01 -0.515688D-01 -0.190587D-02  0.674464D-04  0.584095D-02
     22 -0.451616D-01 -0.392527D-02  0.117920D-02 -0.544058D-04  0.137403D-02
     23 -0.116583D-01  0.185292D+00 -0.251344D-01  0.102336D-01  0.750130D-02
     24 -0.316120D-03 -0.302893D-01 -0.451571D-01  0.169183D-02  0.150400D-02
     25  0.176100D-01 -0.491435D-01  0.300401D-01 -0.210335D-01 -0.169608D-01
     26 -0.348508D-01  0.770409D-02 -0.195632D-01  0.341075D-02  0.338300D-01
     27  0.338980D-01 -0.313571D-01 -0.999693D-02 -0.576369D-02 -0.251845D-01
     28  0.166226D-01  0.123435D-01 -0.117954D-01  0.880928D-02  0.481704D-02
     29 -0.986878D-02 -0.475921D-01  0.345572D-01 -0.703094D-03 -0.407159D-02
     30  0.785580D-02  0.343513D-01 -0.204329D-02 -0.709789D-02 -0.345842D-02
     31 -0.463829D-02 -0.181280D-01  0.334386D-01 -0.206655D-01  0.354814D-01
     32 -0.965600D-01  0.162969D+00  0.144892D+00  0.579843D-01  0.388884D-01
     33 -0.662971D-02  0.586658D-01 -0.812614D-01  0.516678D-01  0.715199D-01
     34 -0.179978D-01 -0.407641D-02 -0.565398D-02 -0.821395D-02 -0.292150D-02
     35  0.127559D-01 -0.126145D-01 -0.198335D-01 -0.373888D-02 -0.483138D-02
     36 -0.178791D-01  0.129087D-01 -0.155268D-02  0.102085D-01  0.149681D-01
     37  0.655539D-02 -0.680196D-01 -0.415444D-01 -0.413951D-02 -0.493159D-03
     38 -0.720402D-01  0.909108D-01  0.785641D-01  0.856517D-02  0.605795D-03
     39 -0.341135D-01  0.690059D-01 -0.349098D-02  0.238254D-02 -0.314875D-02
     40 -0.162581D-01  0.274802D-01  0.277306D-01  0.159280D-02  0.203342D-02
     41  0.103281D-01 -0.653883D-02  0.283830D-01  0.252874D-02  0.739651D-03
     42  0.107014D-01  0.204882D-01  0.124443D-01  0.174599D-02  0.260106D-02
     43 -0.961197D-02  0.229440D+00  0.184944D+00  0.561262D-01  0.580735D-01
     44  0.249221D+00 -0.581238D-01  0.171303D+00  0.662627D-01  0.204879D-01
     45  0.156301D+00  0.145705D+00 -0.176942D+00  0.402800D-01  0.323088D-01
     46 -0.534858D-01  0.174312D+00  0.183671D+00  0.130560D-01  0.135778D-01
     47  0.188086D+00  0.496144D-01  0.248013D+00  0.209732D-01  0.154292D-02
     48  0.151116D+00  0.207984D+00  0.196777D-01  0.202393D-01  0.776410D-02
                6             7             8             9            10
      6  0.429826D+01
      7 -0.177879D+00  0.478128D+01
      8  0.213354D-01  0.322106D-01  0.346354D+01
      9 -0.816822D-01 -0.307467D+00  0.158791D+01  0.210336D+01
     10  0.322915D+00 -0.808078D-01  0.196491D-01  0.171286D+00  0.651219D+01
     11  0.846111D-02  0.332898D-01  0.143403D+00 -0.163812D+00 -0.116332D+00
     12 -0.603458D-01  0.204760D+00 -0.184787D+00  0.214407D+00  0.243472D+01
     13  0.734262D-02 -0.416344D-01 -0.225277D-01  0.535800D-01 -0.253079D+01
     14  0.643975D-03 -0.210715D-01  0.272456D-01  0.114927D-01  0.161918D+01
     15 -0.410075D-01  0.673907D-01  0.306407D-01 -0.318120D-01  0.140643D+01
     16 -0.299355D-01  0.142011D+00  0.170680D+00 -0.710227D-01 -0.160187D+00
     17 -0.807949D-01  0.114529D+00 -0.155853D+00  0.160526D+00 -0.223199D+00
     18  0.261552D-01 -0.574399D-01  0.228174D+00  0.114547D+00  0.179488D+00
     19 -0.282569D-03 -0.481547D-01 -0.493770D-01  0.337653D-01 -0.108459D+00
     20  0.198694D-02 -0.376741D-01  0.145863D+00 -0.141568D+00 -0.274691D+00
     21  0.530692D-02  0.262560D-01 -0.134568D+00  0.271335D-01 -0.976492D-01
     22  0.459645D-03 -0.617942D-04  0.808555D-03 -0.427564D-03 -0.152494D-01
     23  0.415889D-02 -0.987943D-03  0.132722D-02 -0.721325D-02 -0.155001D-01
     24 -0.468341D-03 -0.614786D-03  0.473465D-02 -0.129354D-02 -0.203969D-02
     25  0.844322D-03  0.124758D-02 -0.547455D-02  0.787332D-02  0.251735D-01
     26 -0.127712D-01 -0.118440D-03 -0.922169D-03 -0.793162D-03 -0.301646D-01
     27 -0.832672D-02  0.156187D-02 -0.358501D-02  0.458639D-02  0.194000D-01
     28  0.252217D-02 -0.814514D-02  0.929392D-02 -0.108581D-01 -0.178173D+00
     29  0.234061D-02  0.377606D-02  0.172655D-01 -0.247247D-01 -0.705320D-01
     30 -0.191958D-02 -0.265107D-02 -0.308498D-01  0.228990D-01  0.194829D-01
     31  0.304448D-01 -0.211167D-01 -0.448617D-01  0.127246D-01 -0.323841D-01
     32  0.691994D-01 -0.439886D-01  0.444653D-01 -0.402313D-01 -0.164465D+00
     33  0.299063D-01 -0.251879D-02  0.507713D-02 -0.519261D-01 -0.219067D+00
     34 -0.397477D-02 -0.362309D-02 -0.313909D-01 -0.107375D-01 -0.235871D-02
     35  0.213515D-02 -0.157669D-01  0.138382D-02  0.175021D-01  0.369593D-03
     36  0.171657D-01 -0.235284D-01  0.400280D-01 -0.139805D-01 -0.311429D-01
     37 -0.124757D-02  0.371337D-05 -0.984831D-02  0.386980D-02 -0.247121D-02
     38  0.155925D-02 -0.783764D-02  0.174722D-01 -0.737980D-02 -0.152402D-01
     39 -0.108645D-02 -0.136218D-02  0.355148D-02 -0.368716D-02 -0.676455D-02
     40  0.321393D-02 -0.410079D-02  0.665615D-02 -0.227808D-02 -0.250515D-01
     41  0.194241D-02 -0.672223D-03  0.513867D-02 -0.216911D-02 -0.434972D-02
     42  0.110201D-02 -0.559714D-03  0.398430D-02 -0.452921D-02 -0.603356D-02
     43  0.364661D-01  0.354953D-03  0.599245D-01 -0.335198D-01 -0.251651D+00
     44  0.287148D-01  0.308458D-01  0.290313D-01 -0.426770D-01  0.337329D+00
     45 -0.566832D-02 -0.203638D-02  0.268415D-03 -0.364493D-01  0.278824D+00
     46  0.122690D-01 -0.123063D-01  0.536804D-01  0.660376D-04 -0.142277D+00
     47  0.117514D-01  0.374589D-01  0.622876D-01  0.149828D-02  0.831205D-01
     48 -0.596904D-03  0.181399D-01  0.414036D-01 -0.310184D-01  0.102918D+00
               11            12            13            14            15
     11  0.129131D+02
     12 -0.283951D+01  0.109305D+02
     13  0.199828D+01  0.173382D+01  0.246785D+01
     14 -0.637979D+01  0.671627D+00 -0.171086D+01  0.620493D+01
     15  0.660857D+00 -0.642671D+01 -0.165150D+01 -0.849896D+00  0.639364D+01
     16 -0.233499D+00  0.184697D+00  0.496405D-01 -0.179310D-01  0.728045D-01
     17  0.390563D+00  0.651139D-01 -0.789961D-01  0.911093D-02 -0.359660D-01
     18  0.592578D-01 -0.245343D+00  0.434345D-01 -0.334134D-01 -0.769208D-01
     19 -0.368391D+00 -0.849548D-01  0.786451D-03  0.129154D-01  0.183619D-01
     20  0.253491D+00  0.112679D+00 -0.185438D-01 -0.181929D-01 -0.183446D-01
     21  0.183197D+00 -0.234935D+00 -0.489622D-02 -0.348800D-02 -0.148228D-01
     22 -0.134386D-01 -0.341616D-02  0.101761D-02 -0.121590D-02  0.836055D-03
     23  0.689973D-01  0.173582D-01 -0.144424D-01 -0.292608D-03 -0.446063D-02
     24  0.121246D-01 -0.138793D-01 -0.224899D-02  0.114414D-03 -0.235627D-02
     25 -0.661612D-01  0.869726D-02  0.130342D-01  0.676428D-03  0.551809D-02
     26  0.849962D-02 -0.729016D-02 -0.323567D-02 -0.795293D-03 -0.103357D-02
     27 -0.278452D-01 -0.227287D-01  0.661693D-02  0.708101D-03  0.899979D-03
     28  0.911438D-03 -0.392994D-02 -0.704579D-02 -0.125575D-03 -0.206937D-02
     29  0.200271D+00 -0.435915D-01 -0.771611D-02 -0.205320D-02 -0.482372D-02
     30 -0.154580D+00 -0.162548D+00  0.139922D-01 -0.243248D-03  0.495526D-02
     31 -0.185473D+00 -0.240541D+00  0.243667D-01 -0.906828D-02 -0.120674D-01
     32 -0.446450D-02  0.257901D+00 -0.328303D-01 -0.780991D-02  0.946240D-02
     33  0.259102D+00  0.138907D+00 -0.358243D-01  0.969513D-02 -0.259369D-02
     34 -0.139795D-01 -0.357706D-01  0.479532D-02  0.145280D-02  0.874542D-03
     35 -0.243698D-01 -0.856710D-02  0.581279D-02  0.496535D-03  0.755850D-03
     36  0.272288D-01  0.458686D-01 -0.967602D-02 -0.242981D-02 -0.225661D-02
     37 -0.219823D-01 -0.182185D-01  0.553815D-02  0.835549D-03  0.127066D-02
     38  0.227695D-01  0.271243D-01 -0.992137D-02 -0.252425D-02 -0.189823D-02
     39  0.111825D-01 -0.312810D-03 -0.286445D-02 -0.305053D-03 -0.128900D-02
     40  0.728817D-02  0.767566D-02 -0.411902D-02 -0.441800D-02 -0.534837D-02
     41  0.415480D-02  0.258493D-01 -0.856751D-02  0.285649D-02  0.100582D-01
     42  0.245585D-01  0.139642D-01 -0.104397D-01  0.107327D-01  0.802911D-02
     43  0.256461D+00  0.215049D+00 -0.162835D+00  0.414378D-01  0.343263D-01
     44  0.206203D+00  0.493844D+00 -0.554929D-01  0.401263D-01  0.173056D+00
     45  0.487802D+00  0.105860D-01 -0.461943D-01  0.185647D+00  0.633252D-03
     46  0.534434D-01  0.678467D-01 -0.175977D-01 -0.359213D-02 -0.415262D-02
     47  0.514055D-01  0.250869D+00 -0.271946D-01 -0.914256D-02  0.831873D-02
     48  0.246072D+00  0.137040D+00 -0.334691D-01  0.380339D-02 -0.115889D-01
               16            17            18            19            20
     16  0.211306D+02
     17  0.216901D+01  0.132447D+02
     18  0.249772D+01 -0.565970D+00  0.119647D+02
     19 -0.651551D+01  0.468023D-01 -0.293320D-02  0.159540D+02
     20  0.144677D+00 -0.423962D+01 -0.290362D+01  0.367444D+00  0.144896D+02
     21 -0.151909D+00 -0.289247D+01 -0.273913D+01 -0.182878D+00  0.191966D+01
     22  0.514238D-01 -0.127317D-01  0.757018D-02 -0.440955D+01  0.164375D+00
     23 -0.363783D-01  0.544144D-01 -0.232648D-01  0.275243D+00 -0.164371D+01
     24  0.201961D-01  0.616424D-01  0.706998D-01  0.492586D-01  0.579625D+00
     25  0.973608D-01 -0.189939D-01  0.507861D-01 -0.216447D+01  0.272060D+00
     26  0.219751D-01  0.662651D-01  0.378743D-02  0.149963D+00 -0.416477D+01
     27  0.522910D-02 -0.306041D-01  0.865755D-01  0.129229D+01  0.178288D+00
     28  0.109473D+00 -0.801265D-03 -0.181825D-01 -0.288746D+01 -0.516447D+00
     29 -0.575929D-01  0.803962D-01  0.806598D-01 -0.356837D+00 -0.448557D+01
     30  0.562286D-01  0.193882D-01 -0.244822D-02 -0.164084D+01  0.524566D+00
     31 -0.952370D+01 -0.116100D+01 -0.296035D+01  0.323045D-01  0.296479D-01
     32 -0.109966D+01 -0.773979D+01  0.182521D+01  0.526007D-01 -0.273359D-01
     33 -0.270686D+01  0.179994D+01 -0.189100D+01 -0.769010D-01 -0.473486D-01
     34  0.734252D-01 -0.253596D-01  0.820546D-01 -0.242501D-01  0.251577D-01
     35  0.444731D-02  0.148577D+00 -0.306549D-01  0.239730D-01 -0.768685D-02
     36  0.753400D-01  0.444601D-01  0.382683D-01 -0.423735D-01 -0.794487D-01
     37  0.220320D-01  0.117268D-01  0.321409D-01 -0.119510D-01 -0.457480D-02
     38  0.652329D-02  0.136560D+00  0.286902D-01 -0.162511D-01 -0.798080D-02
     39  0.674588D-01 -0.368896D-01  0.427268D-01 -0.902756D-02 -0.847736D-02
     40 -0.428247D-01  0.415820D-01  0.101988D+00 -0.132244D-01 -0.268076D-02
     41  0.209248D-01 -0.654965D-01  0.138729D+00 -0.203960D-03 -0.224913D-01
     42  0.491068D-01  0.134071D+00  0.263600D+00  0.164182D-01  0.759384D-02
     43  0.678389D+00  0.345116D+00  0.367126D+00  0.191409D+00 -0.690897D-01
     44  0.367036D+00 -0.105681D+01  0.724065D-01 -0.956237D-01 -0.276232D+00
     45  0.418551D+00  0.744112D-01 -0.104376D+01  0.348315D+00 -0.499814D-01
     46  0.212487D+00 -0.102467D-01 -0.431646D-01 -0.260536D-01  0.823694D-02
     47 -0.574224D-01  0.705152D-01 -0.167670D+00 -0.202541D-01 -0.181853D+00
     48 -0.171319D+00 -0.168425D+00 -0.305700D+00  0.252023D+00  0.111293D-02
               21            22            23            24            25
     21  0.134283D+02
     22  0.444763D-01  0.434751D+01
     23  0.826405D+00 -0.888752D-01  0.130926D+01
     24 -0.427977D+01 -0.938614D-01 -0.474007D+00  0.420602D+01
     25  0.121600D+01  0.253751D-01 -0.572595D-01 -0.338360D-01  0.200963D+01
     26  0.942772D-01 -0.819132D-01  0.113867D-01 -0.557447D-01 -0.424267D-01
     27 -0.339468D+01 -0.515409D-01 -0.553307D-01  0.350844D-01 -0.145764D+01
     28 -0.138611D+01  0.537708D-01  0.359682D-01  0.204297D-01 -0.829301D-01
     29  0.317982D+00  0.719159D-01 -0.731899D-03 -0.692648D-01 -0.688457D-02
     30 -0.324216D+01  0.482731D-01 -0.685012D-01  0.244916D-01  0.208003D-02
     31 -0.156253D-01 -0.128619D-01  0.772355D-02 -0.361117D-03  0.838315D-02
     32 -0.120181D+00  0.916617D-02  0.940827D-02  0.971616D-02 -0.462536D-02
     33  0.191586D+00 -0.987837D-02 -0.331546D-01 -0.172385D-01  0.634898D-01
     34 -0.526012D-01 -0.217938D-02  0.613666D-02 -0.226732D-02 -0.288732D-02
     35 -0.840110D-01  0.302958D-02  0.124841D-01 -0.534572D-02 -0.558205D-02
     36  0.121780D+00 -0.357903D-02 -0.169650D-01  0.399255D-02  0.730558D-02
     37 -0.166723D-01 -0.371492D-02  0.167042D-01 -0.178787D-01 -0.872388D-02
     38  0.197705D-01 -0.913792D-03 -0.228996D-01 -0.229852D-02  0.866273D-02
     39  0.176891D-03 -0.159958D-01 -0.209879D-01  0.168825D-01  0.591506D-02
     40  0.398191D-01 -0.497981D-02 -0.867153D-02  0.500875D-02  0.191335D-02
     41  0.520755D-02 -0.145427D-02 -0.795061D-03 -0.486880D-02 -0.122833D-03
     42  0.172596D-01  0.264099D-02 -0.127320D-01  0.719148D-02  0.390795D-02
     43  0.294343D+00  0.165948D-01 -0.760517D-01  0.206228D-01  0.663100D-01
     44 -0.581034D-01 -0.312680D-01  0.136168D-01 -0.858990D-02 -0.803360D-02
     45 -0.827774D-01  0.302039D-01 -0.489963D-01 -0.263122D-01  0.659037D-01
     46  0.231391D+00 -0.188281D-02 -0.421843D-01  0.362162D-01  0.140058D-01
     47 -0.279562D-01 -0.149337D-01 -0.526092D-02 -0.190517D-01  0.268918D-03
     48  0.198677D+00  0.430598D-01 -0.571739D-01  0.221188D-01  0.231101D-01
               26            27            28            29            30
     26  0.401975D+01
     27 -0.172978D-01  0.313455D+01
     28  0.266234D-01  0.262368D-01  0.300849D+01
     29  0.777237D-01  0.196590D-02  0.418995D+00  0.429504D+01
     30  0.651541D-03  0.915140D-01  0.151377D+01 -0.293171D+00  0.297810D+01
     31 -0.235433D-02  0.469297D-01  0.122956D-01  0.146645D-01 -0.113469D+00
     32 -0.197427D-01  0.757081D-02  0.136775D-01 -0.546869D-01 -0.192350D-01
     33  0.147426D-01  0.292243D-01 -0.120505D+00 -0.179076D-01  0.139909D+00
     34 -0.646551D-03 -0.282125D-03  0.176237D-02 -0.151108D-03 -0.359450D-02
     35 -0.642911D-03 -0.470211D-02  0.540908D-02 -0.115458D-02 -0.618329D-02
     36  0.124420D-02  0.293068D-02 -0.738144D-02  0.165998D-02  0.470821D-02
     37 -0.109948D-02 -0.647103D-02  0.558674D-02 -0.303049D-02 -0.112371D-01
     38 -0.220093D-02  0.132829D-01 -0.952259D-02 -0.529362D-03  0.115509D-01
     39  0.327970D-02  0.138945D-01 -0.852918D-02  0.228750D-02  0.972709D-02
     40  0.978578D-03  0.509592D-02 -0.441558D-02 -0.621731D-03  0.475084D-02
     41 -0.184242D-02  0.460083D-03 -0.458114D-03 -0.120718D-02  0.365416D-04
     42  0.129310D-04  0.504401D-02 -0.323349D-02  0.121816D-02 -0.180238D-02
     43 -0.843005D-02  0.660086D-01 -0.240218D-01  0.141352D-02  0.881093D-01
     44 -0.256048D-01 -0.482093D-02  0.299282D-03 -0.524108D-01 -0.132103D-01
     45 -0.780823D-02  0.249561D-01  0.158083D-01  0.356778D-02  0.673747D-01
     46  0.228890D-02  0.184265D-01 -0.246163D-01  0.317256D-02  0.243479D-01
     47 -0.863183D-02 -0.154821D-02 -0.984148D-03 -0.206925D-01 -0.111224D-02
     48  0.430638D-02  0.646515D-02 -0.616579D-02  0.724474D-02  0.692457D-01
               31            32            33            34            35
     31  0.168568D+02
     32  0.129713D+01  0.155179D+02
     33  0.293563D+01 -0.116258D+01  0.115679D+02
     34 -0.415545D+01  0.743735D+00 -0.660331D+00  0.392110D+01
     35  0.585362D+00 -0.303110D+01 -0.134290D+01 -0.766535D+00  0.304670D+01
     36 -0.573429D+00 -0.150854D+01 -0.305706D+01  0.772305D+00  0.143648D+01
     37 -0.363738D+01 -0.134085D+01 -0.961029D-01  0.995770D-01  0.218214D-01
     38 -0.120554D+01 -0.210687D+01  0.205152D+00  0.242724D-01 -0.121186D+00
     39 -0.160051D+00  0.346139D+00 -0.435022D+01 -0.194453D-01  0.794886D-01
     40 -0.117827D+00  0.517804D+00  0.841041D+00 -0.659560D-02 -0.935019D-04
     41  0.629071D+00 -0.240136D+01  0.198164D+00 -0.333184D-01  0.136310D-01
     42  0.110427D+01  0.215805D+00 -0.219538D+01  0.860299D-02  0.406803D-02
     43  0.494601D+00  0.837028D-01  0.598856D-01  0.691449D-01  0.566813D-01
     44  0.654138D-01 -0.233180D+00 -0.263497D-01  0.334433D-01 -0.197613D-01
     45  0.295457D-01 -0.334624D-01 -0.336818D+00 -0.557342D-01 -0.284810D-01
     46  0.973258D-01  0.717648D-02 -0.170939D-01  0.537568D-01  0.720541D-01
     47 -0.380666D-01 -0.147249D+00  0.818501D-02  0.441815D-01  0.718037D-04
     48 -0.117086D+00 -0.166041D-02 -0.113963D+00 -0.134442D-01 -0.975282D-02
               36            37            38            39            40
     36  0.276683D+01
     37 -0.181657D-01  0.337077D+01
     38  0.779960D-01  0.145146D+01  0.199990D+01
     39  0.722018D-01  0.213080D+00 -0.459868D+00  0.424594D+01
     40 -0.147368D-01 -0.863432D-02 -0.156307D-01 -0.968703D-02 -0.564283D+00
     41 -0.667859D-02  0.233957D-01  0.225501D-01  0.909405D-02 -0.963560D+00
     42  0.292249D-01 -0.942254D-02  0.213691D-03  0.200079D-01 -0.141201D+01
     43 -0.838483D-01  0.866942D-01 -0.779801D-01 -0.320919D-01  0.197076D+00
     44 -0.243475D-01 -0.435229D-01 -0.914623D-02  0.930706D-02  0.148977D+00
     45  0.217748D-02 -0.284615D-01  0.165699D-01 -0.284595D-01  0.433150D+00
     46 -0.394182D-01  0.802537D-01 -0.686118D-01  0.110960D-01  0.611732D+00
     47 -0.185629D-01 -0.325307D-01 -0.174255D-01 -0.365987D-02  0.242876D+00
     48 -0.303000D-01  0.150604D-01 -0.903002D-02 -0.330153D-01 -0.254168D-01
               41            42            43            44            45
     41  0.457206D+01
     42 -0.236190D+00  0.443468D+01
     43  0.155249D+00  0.436818D+00  0.674547D+01
     44  0.330155D+00 -0.184004D+00 -0.402695D+00  0.904649D+01
     45 -0.189318D+00 -0.200524D+00  0.558924D+00 -0.581183D+01 -0.296043D+01
     46  0.171209D+00 -0.192519D+00 -0.815405D+01 -0.662191D+00 -0.224338D+01
     47 -0.245156D+01  0.757755D-02 -0.653252D+00 -0.795485D+01  0.522360D+01
     48  0.213000D-01 -0.241031D+01 -0.221316D+01  0.522530D+01  0.479241D+01
               46            47            48
     46  0.734966D+01
     47  0.227674D+00  0.105612D+02
     48  0.195440D+01 -0.552025D+01 -0.230914D+01
 ReadGW:  IGet=0 IStart=         114 Next=        7220 LGW=        7106.
 ICntrl=12127.
 Symmetry not used in FoFDir.
 MinBra= 0 MaxBra= 2 Meth= 1.
 IRaf=       0 NMat=   1 IRICut=       1 DoRegI=T DoRafI=F ISym2E= 0 JSym2E=0.
 PrsmSu:  NPrtUS=   8 ThrOK=T
 PRISM was handed    16286675 working-precision words and  2495 shell-pairs
 PRISM was handed    16286675 working-precision words and  2495 shell-pairs
 PRISM was handed    16286675 working-precision words and  2495 shell-pairs
 PRISM was handed    16286675 working-precision words and  2495 shell-pairs
 PRISM was handed    16286675 working-precision words and  2495 shell-pairs
 PRISM was handed    16286675 working-precision words and  2495 shell-pairs
 PRISM was handed    16286675 working-precision words and  2495 shell-pairs
 PRISM was handed    16286675 working-precision words and  2495 shell-pairs
 Pruned (  75, 302) grid will be used in CalDFT.
 CkSvGd:  ISavGI=        -1 IRadAn=       4 IRASav=       4 ISavGd=        -1.
 CalDSu:  NPrtUS=   8 ThrOK=T
 IPart= 0 IRanGd=          0 ScrnBf=T ScrnGd=T RCrit=4.00D+00 DoMicB=T.
 IPart= 2 IRanGd=          0 ScrnBf=T ScrnGd=T RCrit=4.00D+00 DoMicB=T.
 IPart= 1 IRanGd=          0 ScrnBf=T ScrnGd=T RCrit=4.00D+00 DoMicB=T.
 IPart= 6 IRanGd=          0 ScrnBf=T ScrnGd=T RCrit=4.00D+00 DoMicB=T.
 CutRad = 1000.00    CtRdIn =    0.00    XCrit =  15.00   ICut = 0
 CutRad = 1000.00    CtRdIn =    0.00    XCrit =  15.00   ICut = 0
 CutRad = 1000.00    CtRdIn =    0.00    XCrit =  15.00   ICut = 0
 CutRad = 1000.00    CtRdIn =    0.00    XCrit =  15.00   ICut = 0
 IPart= 4 IRanGd=          0 ScrnBf=T ScrnGd=T RCrit=4.00D+00 DoMicB=T.
 IPart= 5 IRanGd=          0 ScrnBf=T ScrnGd=T RCrit=4.00D+00 DoMicB=T.
 IPart= 3 IRanGd=          0 ScrnBf=T ScrnGd=T RCrit=4.00D+00 DoMicB=T.
 CutRad = 1000.00    CtRdIn =    0.00    XCrit =  15.00   ICut = 0
 IPart= 7 IRanGd=          0 ScrnBf=T ScrnGd=T RCrit=4.00D+00 DoMicB=T.
 CutRad = 1000.00    CtRdIn =    0.00    XCrit =  15.00   ICut = 0
 CutRad = 1000.00    CtRdIn =    0.00    XCrit =  15.00   ICut = 0
 CutRad = 1000.00    CtRdIn =    0.00    XCrit =  15.00   ICut = 0
 IPart= 3        14581 of        16662 points in      34 batches and       94 microbatches, Max-NSigAt=      16 Max-NSgAt2=      16
 IPart= 2        12543 of        13940 points in      27 batches and       74 microbatches, Max-NSigAt=      16 Max-NSgAt2=      16
 IPart= 1        14152 of        16332 points in      34 batches and      109 microbatches, Max-NSigAt=      16 Max-NSgAt2=      16
 IPart= 0        13259 of        14674 points in      28 batches and       86 microbatches, Max-NSigAt=      16 Max-NSgAt2=      16
 IPart= 7        14468 of        16074 points in      33 batches and      104 microbatches, Max-NSigAt=      16 Max-NSgAt2=      16
 IPart= 4        15110 of        17648 points in      39 batches and      121 microbatches, Max-NSigAt=      16 Max-NSgAt2=      16
 IPart= 6        14283 of        16540 points in      34 batches and       92 microbatches, Max-NSigAt=      16 Max-NSgAt2=      16
 IPart= 5        13671 of        15774 points in      32 batches and       91 microbatches, Max-NSigAt=      16 Max-NSgAt2=      16
 Polarizability after L703:
                1             2             3
      1  0.661647D+02
      2  0.183881D+01  0.561420D+02
      3  0.417515D+01  0.636190D+01  0.695091D+02
 Dipole Derivatives after L703:
               1            2            3            4            5
      1 0.445295D+00-0.463262D-01-0.184309D+00-0.648883D-01-0.753974D-01
      2-0.177127D+00 0.307730D+00 0.499848D-01-0.185254D-01-0.515064D-02
      3-0.328307D+00 0.992943D-01 0.449325D+00-0.106827D-01-0.761234D-01
               6            7            8            9           10
      1-0.828734D-01 0.131863D-01 0.854256D-02 0.401334D-01-0.592751D+00
      2-0.766303D-01 0.452749D-01-0.196371D-01 0.102190D+00 0.220519D+00
      3-0.292731D-02 0.186629D-02 0.529136D-01-0.150041D+00 0.341775D+00
              11           12           13           14           15
      1 0.128879D+00 0.224109D+00 0.259310D+00-0.109830D+00-0.729240D-01
      2-0.592215D+00-0.455367D-01-0.721805D-01 0.341637D+00-0.232926D-01
      3-0.555840D-01-0.550508D+00-0.429651D-01 0.109130D-02 0.231271D+00
              16           17           18           19           20
      1 0.344809D+00-0.657962D-01-0.864340D-01 0.207000D-02 0.388983D-02
      2 0.164374D-02 0.267657D+00 0.497310D-01 0.186270D-01-0.480884D-01
      3 0.528600D-01-0.281820D-01 0.588957D+00-0.755368D-01 0.597481D-01
              21           22           23           24           25
      1-0.905518D-02 0.852440D-01 0.102433D-01-0.125918D-01-0.588851D-01
      2 0.666133D-01-0.124554D-01-0.974678D-01-0.717462D-01-0.247398D-01
      3-0.127744D+00 0.182753D-01-0.113291D-01 0.275712D-01-0.863841D-01
              26           27           28           29           30
      1-0.125932D-01-0.102368D+00-0.982522D-03 0.459703D-01 0.354159D-01
      2 0.706897D-01-0.950148D-03 0.639781D-02 0.945452D-01-0.725357D-02
      3 0.373902D-01-0.186352D-01 0.100524D+00-0.540207D-02 0.217372D-01
              31           32           33           34           35
      1-0.134964D+00-0.107847D-01 0.212622D-01 0.554144D-01-0.132771D-01
      2-0.871981D-01-0.629156D-01-0.159007D+00 0.605654D-02-0.182726D-01
      3-0.200410D+00-0.202523D+00-0.481630D+00 0.106476D+00 0.113226D+00
              36           37           38           39           40
      1 0.473180D-01 0.400270D-01 0.672936D-01 0.296976D-01 0.482748D+00
      2 0.697510D-01 0.913647D-01-0.446707D-01 0.402344D-01 0.121145D+00
      3 0.610479D-01 0.902088D-01 0.175409D-01 0.106617D+00 0.266831D+00
              41           42           43           44           45
      1 0.128454D+00 0.249993D+00-0.526772D+00 0.235615D+00 0.650528D+00
      2 0.171088D+00 0.493358D-01-0.177700D-01-0.145266D+00 0.205016D+00
      3 0.519951D-01 0.222442D+00 0.399034D-02 0.151154D+00 0.239479D+00
              46           47           48
      1-0.348859D+00-0.294883D+00-0.747901D+00
      2-0.101033D+00-0.219663D+00-0.248440D+00
      3-0.238521D+00-0.205210D+00-0.616961D+00
 Hessian after L703:
                1             2             3             4             5
      1  0.526072D+00
      2  0.243450D-01  0.475458D+00
      3  0.494537D-01 -0.373060D-01  0.555687D+00
      4 -0.203592D+00 -0.730366D-01 -0.849814D-01  0.240166D+00
      5 -0.850269D-01 -0.871450D-01 -0.403187D-01  0.856989D-01  0.918009D-01
      6 -0.962927D-01 -0.412929D-01 -0.949323D-01  0.875126D-01  0.472257D-01
      7 -0.611420D-01  0.252859D-01 -0.458157D-01 -0.419483D-02  0.129518D-01
      8  0.242024D-01 -0.105546D+00  0.987371D-01 -0.258263D-02  0.715777D-02
      9 -0.437244D-01  0.102804D+00 -0.223143D+00 -0.485661D-02  0.715466D-02
     10 -0.161280D+00  0.194254D-01  0.868605D-01 -0.347130D-01  0.697486D-02
     11 -0.141235D-02 -0.689989D-01 -0.152337D-01 -0.912202D-02  0.473960D-02
     12  0.472014D-01 -0.254625D-01 -0.149550D+00 -0.199811D-02  0.218231D-02
     13 -0.342818D-01 -0.117041D-01 -0.107459D-01 -0.264968D-02  0.123662D-02
     14  0.741743D-02  0.168014D-02  0.151203D-02  0.153174D-02  0.456725D-03
     15  0.312036D-01  0.103738D-01  0.742880D-02  0.424482D-02 -0.110431D-02
     16 -0.678849D-01  0.109565D-01 -0.223302D-02  0.455448D-02 -0.243043D-01
     17  0.194950D-01 -0.184393D+00 -0.471327D-02 -0.239644D-02 -0.155919D-01
     18  0.413831D-02 -0.524447D-02 -0.866979D-01 -0.634130D-03 -0.163485D-01
     19  0.469192D-02  0.248819D-02 -0.805094D-03 -0.196597D-03  0.756786D-03
     20  0.379378D-02 -0.229773D-01  0.272116D-01 -0.157582D-03  0.136659D-02
     21 -0.531388D-03  0.248374D-02  0.102184D-01 -0.371303D-03  0.471641D-03
     22  0.439021D-03  0.459956D-03  0.900746D-03  0.921661D-04  0.430280D-03
     23 -0.124768D-03  0.978602D-04  0.365607D-02 -0.209705D-03  0.269802D-03
     24  0.501133D-03  0.182712D-02 -0.565793D-02  0.166725D-03 -0.116279D-03
     25 -0.242430D-03 -0.237726D-03 -0.414495D-03  0.179670D-03  0.326562D-03
     26 -0.703113D-03  0.184364D-03 -0.550154D-03 -0.452489D-04 -0.722938D-03
     27  0.131489D-03 -0.668413D-03  0.595310D-03  0.145565D-03  0.548020D-03
     28 -0.855251D-03  0.621343D-03  0.128798D-02 -0.325373D-04 -0.987733D-04
     29 -0.154153D-02 -0.717475D-04  0.105098D-02  0.197321D-03 -0.387908D-04
     30  0.931404D-03 -0.121121D-02 -0.108058D-02 -0.596462D-04 -0.121010D-03
     31  0.327099D-02  0.458608D-02  0.719063D-02  0.110744D-02  0.166261D-02
     32  0.838658D-02 -0.813364D-02 -0.269296D-01  0.590180D-03 -0.149764D-02
     33  0.472362D-02 -0.908631D-02 -0.574450D-02  0.159148D-02  0.135893D-02
     34 -0.259341D-02 -0.226771D-02  0.478427D-03 -0.298263D-03 -0.248249D-03
     35  0.412653D-03  0.143709D-04 -0.235483D-02 -0.516676D-04 -0.865913D-04
     36 -0.277359D-02  0.713277D-03 -0.106951D-03 -0.613698D-04 -0.490163D-03
     37  0.671518D-02  0.109528D-02  0.176367D-02 -0.600915D-03  0.133338D-02
     38  0.353019D-02  0.241745D-02 -0.155576D-03 -0.388039D-03  0.359895D-03
     39  0.296128D-02  0.267134D-02 -0.338441D-02 -0.220158D-03 -0.120530D-03
     40  0.117585D-02  0.146060D-02 -0.116712D-02 -0.166014D-02 -0.136955D-02
     41  0.102589D-02  0.382611D-03 -0.113333D-02 -0.762776D-04 -0.311251D-04
     42  0.337687D-02  0.373857D-03 -0.241162D-03 -0.751119D-03  0.642149D-03
     43 -0.941426D-02 -0.369303D-02 -0.193650D-02  0.416858D-03 -0.666466D-03
     44 -0.246519D-02 -0.451529D-02 -0.311451D-02 -0.251808D-03 -0.194560D-03
     45  0.736985D-02 -0.328431D-02 -0.921380D-03 -0.917433D-03  0.271985D-02
     46 -0.107813D-02  0.215022D-03  0.163602D-03  0.142090D-02  0.342372D-03
     47 -0.133501D-02  0.154588D-02 -0.358190D-03  0.299875D-03 -0.842677D-03
     48 -0.867054D-02  0.230910D-02 -0.246976D-02  0.119004D-02 -0.368382D-02
                6             7             8             9            10
      6  0.101384D+00
      7 -0.216714D-01  0.643281D-01
      8 -0.103664D-01 -0.274400D-01  0.115700D+00
      9 -0.107207D-01  0.363359D-01 -0.107546D+00  0.252967D+00
     10  0.283555D-01 -0.249375D-02 -0.128417D-02  0.131349D-01  0.567240D+00
     11  0.884716D-02 -0.102937D-01  0.696558D-02  0.525981D-02  0.131858D+00
     12  0.787814D-02  0.336560D-01 -0.801164D-02 -0.257457D-01  0.380502D-01
     13  0.497364D-02  0.193543D-02 -0.709228D-03 -0.895201D-03 -0.355780D+00
     14 -0.482117D-03 -0.404064D-03 -0.697557D-04 -0.113403D-02 -0.166276D+00
     15 -0.233196D-02  0.110020D-02  0.785947D-03  0.774812D-04 -0.178692D+00
     16 -0.368982D-02  0.394255D-03  0.787413D-02 -0.242982D-03 -0.161145D-01
     17 -0.286846D-02 -0.199041D-02 -0.209036D-01 -0.323126D-02  0.889832D-02
     18 -0.228603D-02 -0.473696D-02  0.291417D-01  0.312260D-02  0.152170D-01
     19 -0.105982D-03  0.948787D-03  0.369081D-03  0.807398D-04  0.846627D-03
     20  0.365662D-04  0.123774D-02 -0.478634D-02 -0.150400D-02 -0.578000D-03
     21  0.645365D-04  0.753484D-03 -0.372433D-02  0.240371D-03  0.203552D-02
     22  0.377962D-04  0.259762D-03 -0.525431D-05 -0.254517D-04  0.322222D-03
     23 -0.563503D-04  0.244560D-03 -0.100573D-02 -0.159772D-03 -0.605986D-04
     24 -0.757315D-05 -0.346987D-03  0.144056D-02  0.367047D-03 -0.193289D-03
     25  0.530732D-04  0.120537D-03  0.206662D-03  0.000000D+00  0.291693D-03
     26  0.545665D-04 -0.333553D-03  0.272123D-03 -0.117526D-03 -0.408472D-03
     27  0.189404D-03  0.370176D-03 -0.828421D-04  0.973807D-04  0.701095D-04
     28  0.979412D-04 -0.734209D-04 -0.132002D-03 -0.817497D-04 -0.197732D-03
     29 -0.518897D-04  0.350636D-03  0.390753D-03 -0.324592D-03  0.953791D-03
     30  0.247857D-04 -0.475740D-04 -0.299835D-04  0.115127D-03 -0.979196D-03
     31  0.382316D-03 -0.730209D-04 -0.171040D-02  0.753081D-03  0.123194D-02
     32 -0.969033D-03  0.919651D-03  0.606700D-03 -0.182719D-02  0.445056D-02
     33  0.389435D-03 -0.132808D-03  0.651226D-03  0.103790D-02 -0.288293D-03
     34 -0.298951D-03 -0.686319D-05  0.955364D-03 -0.783486D-03 -0.112697D-03
     35  0.451990D-04 -0.330439D-05  0.558548D-03  0.333754D-03 -0.851957D-03
     36 -0.352404D-03  0.401450D-03 -0.696546D-03  0.270386D-03 -0.609916D-03
     37  0.396169D-03 -0.322867D-03 -0.197231D-03  0.908074D-04 -0.257275D-03
     38  0.627410D-04 -0.208903D-03  0.457016D-03  0.560208D-04  0.348098D-03
     39  0.203826D-03  0.266175D-04 -0.168280D-03  0.544161D-03  0.888508D-03
     40  0.211303D-04  0.568707D-04  0.496147D-03  0.421141D-03 -0.422183D-02
     41  0.181954D-04 -0.261020D-03 -0.297042D-03  0.205209D-03 -0.108614D-02
     42  0.334260D-03  0.777352D-04  0.134915D-03  0.734913D-05 -0.126415D-02
     43  0.448603D-03  0.324925D-03  0.576935D-03 -0.237373D-03  0.317032D-02
     44 -0.341587D-03 -0.270254D-03  0.117393D-02 -0.542379D-03 -0.319892D-02
     45  0.143066D-02  0.127645D-03  0.978073D-03 -0.349104D-04 -0.500457D-02
     46 -0.219918D-03 -0.618815D-04 -0.619767D-03  0.304014D-04  0.206798D-02
     47  0.138517D-03  0.214945D-03 -0.673634D-03  0.572972D-03  0.835337D-03
     48 -0.126813D-02 -0.978378D-04 -0.124400D-02  0.797461D-03  0.241899D-02
               11            12            13            14            15
     11  0.158628D+00
     12  0.130744D+00  0.295848D+00
     13 -0.142968D+00 -0.132330D+00  0.389934D+00
     14 -0.858807D-01 -0.845737D-01  0.155810D+00  0.840659D-01
     15 -0.940614D-01 -0.117587D+00  0.142241D+00  0.833420D-01  0.112929D+00
     16  0.275441D-01  0.158642D-01  0.104011D-02  0.420484D-02  0.200682D-02
     17 -0.730819D-02 -0.981615D-02 -0.471175D-03  0.263267D-02 -0.531244D-03
     18 -0.288012D-01 -0.139715D-01 -0.113311D-02  0.128299D-03  0.944986D-03
     19 -0.109840D-02 -0.104732D-03 -0.396450D-03 -0.121972D-03 -0.605171D-03
     20  0.232079D-04  0.132273D-02  0.144965D-03 -0.787897D-03 -0.402923D-05
     21  0.792445D-03 -0.110074D-02 -0.315343D-03 -0.461948D-03  0.967699D-04
     22  0.861514D-03 -0.993572D-03  0.167640D-03 -0.138491D-03  0.222718D-03
     23  0.159918D-03  0.328724D-04 -0.139958D-03 -0.381894D-04 -0.535977D-04
     24 -0.119678D-02  0.110537D-02 -0.751386D-04  0.162883D-03 -0.100674D-03
     25  0.639189D-03  0.903039D-04  0.109929D-03 -0.367409D-03  0.133822D-03
     26 -0.141104D-03 -0.114647D-03  0.000000D+00  0.311522D-03  0.105247D-03
     27 -0.157015D-03 -0.141499D-03 -0.448264D-04 -0.760788D-04 -0.275399D-03
     28  0.162099D-02 -0.128924D-02 -0.136674D-03  0.590478D-03 -0.374629D-03
     29 -0.330340D-03 -0.109838D-02  0.926755D-03 -0.621917D-03  0.703357D-03
     30 -0.190246D-02  0.128421D-02 -0.528534D-03  0.887814D-03 -0.361625D-03
     31  0.994438D-03  0.216410D-02  0.321803D-03 -0.320606D-03 -0.489416D-03
     32 -0.565057D-02 -0.323004D-02 -0.778702D-03 -0.494751D-03 -0.365579D-03
     33  0.746342D-03  0.261369D-02  0.591148D-04 -0.271617D-03 -0.605630D-03
     34  0.702420D-03 -0.335170D-03  0.110905D-04 -0.196352D-03  0.893329D-04
     35  0.297102D-03  0.520320D-03  0.972643D-04  0.721774D-04  0.101846D-03
     36  0.108306D-03  0.937722D-03  0.673143D-04  0.238633D-03  0.205366D-04
     37 -0.631399D-03 -0.395248D-03 -0.651433D-05 -0.133601D-03  0.295551D-04
     38 -0.875621D-03 -0.115105D-02 -0.223319D-03 -0.127040D-03  0.553483D-04
     39 -0.198590D-02 -0.105749D-02 -0.248790D-03  0.104195D-03  0.771104D-05
     40  0.366039D-03  0.420059D-03  0.809917D-04  0.136522D-02  0.161704D-02
     41 -0.480079D-03  0.369973D-03 -0.356366D-05  0.506345D-03  0.374201D-03
     42  0.201930D-03  0.457030D-03  0.524574D-03  0.397467D-03  0.454562D-03
     43  0.251453D-02  0.765074D-03  0.706844D-03 -0.232906D-02 -0.175931D-02
     44  0.670367D-05 -0.108158D-02 -0.820370D-03 -0.229933D-02  0.559879D-03
     45 -0.111198D-02 -0.261447D-03  0.807929D-03 -0.215792D-03  0.483829D-03
     46 -0.157543D-02 -0.765227D-03 -0.105631D-02 -0.631678D-03 -0.968528D-03
     47 -0.115458D-02 -0.632548D-03 -0.396743D-03  0.594105D-03 -0.281588D-03
     48 -0.224961D-02 -0.709235D-03 -0.235663D-02  0.441875D-03 -0.118141D-02
               16            17            18            19            20
     16  0.230699D+00
     17 -0.615411D-01  0.512767D+00
     18 -0.110810D+00  0.186452D-01  0.641044D+00
     19 -0.689734D-01  0.946061D-03  0.114123D-01  0.532472D+00
     20  0.969248D-03 -0.139855D+00  0.646281D-01 -0.347606D-02  0.557339D+00
     21  0.913225D-02  0.578718D-01 -0.159103D+00 -0.293897D-01  0.483024D-01
     22 -0.190805D-02  0.204691D-02 -0.234023D-02 -0.470309D-01 -0.200535D-01
     23 -0.769707D-03 -0.208253D-01 -0.637996D-02 -0.185488D-01 -0.288514D+00
     24  0.170216D-02  0.282232D-01  0.833746D-02 -0.331009D-02 -0.784177D-01
     25  0.293151D-03  0.200890D-02 -0.199068D-02 -0.228043D+00 -0.261190D-01
     26  0.174839D-01  0.193421D-02  0.944465D-02 -0.225746D-01 -0.480260D-01
     27 -0.220308D-01 -0.173399D-02 -0.178214D-01 -0.109893D+00 -0.148563D-01
     28  0.117244D-02 -0.191023D-02 -0.160231D-02 -0.197043D+00  0.439298D-01
     29 -0.175980D-01  0.795014D-02  0.112291D-01  0.465029D-01 -0.637818D-01
     30  0.196711D-01 -0.551403D-02 -0.208952D-01  0.126599D+00 -0.379431D-01
     31 -0.109294D+00  0.456822D-01  0.130118D+00  0.674761D-02  0.842972D-03
     32  0.281944D-01 -0.123112D+00 -0.541292D-01 -0.557965D-02  0.900615D-02
     33  0.749295D-01 -0.579518D-01 -0.291966D+00  0.822184D-02 -0.291027D-02
     34  0.972806D-03 -0.750923D-02 -0.339512D-02  0.648796D-02  0.142248D-02
     35  0.311680D-02  0.920856D-02 -0.714427D-02  0.407835D-03 -0.332531D-03
     36  0.955591D-02  0.223072D-01 -0.215820D-01  0.517397D-02 -0.290515D-02
     37 -0.111439D-03  0.348554D-02 -0.767123D-02 -0.252332D-02  0.185777D-03
     38  0.564752D-02 -0.911801D-02 -0.297236D-02 -0.257234D-02  0.970872D-03
     39  0.158850D-01 -0.295970D-01 -0.323510D-02 -0.223947D-02 -0.128662D-02
     40  0.424616D-01 -0.163860D-01 -0.585548D-01 -0.186794D-02 -0.196285D-02
     41  0.121683D-02 -0.810258D-02 -0.112172D-01  0.104415D-02  0.504473D-04
     42 -0.616217D-02 -0.681426D-02 -0.203441D-01  0.180247D-02 -0.241350D-03
     43  0.265561D-01  0.522811D-02  0.383805D-02 -0.651229D-02 -0.811015D-03
     44 -0.416658D-02 -0.105502D-01  0.452529D-02  0.566585D-02  0.147033D-02
     45 -0.158390D-01  0.499158D-02 -0.254344D-02 -0.863605D-03  0.125953D-02
[...]
    X9       -3.92366   0.00000   0.00000  -0.00010  -0.00013  -3.92380
    Y9       -1.73474   0.00000   0.00000   0.00029   0.00029  -1.73445
    Z9        3.05637   0.00000   0.00000   0.00018   0.00015   3.05652
   X10       -7.23641   0.00000   0.00000  -0.00014  -0.00017  -7.23658
   Y10       -1.50459   0.00000   0.00000  -0.00025  -0.00026  -1.50485
   Z10        3.30425   0.00000   0.00000  -0.00016  -0.00020   3.30405
   X11       -4.83075  -0.00003   0.00000  -0.00028  -0.00030  -4.83106
   Y11       -0.95945  -0.00001   0.00000   0.00003   0.00003  -0.95942
   Z11       -2.57785  -0.00001   0.00000  -0.00011  -0.00014  -2.57799
   X12       -4.21211   0.00000   0.00000  -0.00035  -0.00038  -4.21249
   Y12        0.49640   0.00000   0.00000   0.00002   0.00003   0.49642
   Z12       -3.89467   0.00000   0.00000  -0.00015  -0.00018  -3.89486
   X13       -3.82490  -0.00001   0.00000  -0.00016  -0.00018  -3.82508
   Y13       -2.74625   0.00000   0.00000   0.00009   0.00009  -2.74616
   Z13       -2.72364   0.00000   0.00000  -0.00010  -0.00013  -2.72376
   X14       -7.11471   0.00002   0.00000   0.00037   0.00035  -7.11436
   Y14       -1.52340   0.00000   0.00000  -0.00017  -0.00018  -1.52358
   Z14       -3.52282   0.00001   0.00000   0.00020   0.00016  -3.52266
   X15       -9.90452  -0.00001   0.00000  -0.00030  -0.00033  -9.90484
   Y15       -0.90989  -0.00001   0.00000  -0.00003  -0.00005  -0.90994
   Z15       -1.24608  -0.00002   0.00000  -0.00038  -0.00042  -1.24649
   X16       -9.52254   0.00000   0.00000   0.00001  -0.00001  -9.52255
   Y16       -1.70635   0.00001   0.00000  -0.00050  -0.00052  -1.70687
   Z16       -3.49477   0.00003   0.00000  -0.00007  -0.00011  -3.49488
         Item               Value     Threshold  Converged?
 Maximum Force            0.000033     0.000450     YES
 RMS     Force            0.000010     0.000300     YES
 Maximum Displacement     0.000516     0.001800     YES
 RMS     Displacement     0.000219     0.001200     YES
 Predicted change in Energy=-2.184600D-08
 Optimization completed.
    -- Stationary point found.
 GradGradGradGradGradGradGradGradGradGradGradGradGradGradGradGradGradGrad


 Test job not archived.
 1\1\GINC-NODE31\Freq\UB3LYP\CBSB7\C4H9O3(2)\NYEE\09-Jun-2013\0\\# freq
  nosymm b3lyp/cbsb7 iop(7/33=1)\\Title Card Required\\0,2\C,-3.263492,
 1.357177,0.163056\H,-2.353235,1.781605,0.606455\H,-3.433542,1.88062,-0
 .787017\O,-4.297444,1.60546,1.095111\H,-5.104097,1.235907,0.717166\C,-
 3.00945,-0.106982,-0.109989\C,-3.017342,-1.036644,1.063254\H,-3.094298
 ,-2.078709,0.750087\H,-2.076314,-0.917985,1.61736\H,-3.829342,-0.79619
 6,1.748535\C,-2.556325,-0.507719,-1.364141\H,-2.228953,0.262683,-2.060
 972\H,-2.02405,-1.453253,-1.441287\H,-3.764944,-0.806149,-1.864197\O,-
 5.241244,-0.481492,-0.659395\O,-5.039112,-0.902964,-1.849351\\Version=
 AM64L-G03RevD.01\HF=-383.4519004\S2=0.758644\S2-1=0.\S2A=0.750046\RMSD
 =7.448e-09\RMSF=1.040e-05\ZeroPoint=0.1259993\Thermal=0.1343499\Dipole
 =0.9619286,-0.1393773,-0.1383652\DipoleDeriv=0.4452948,-0.1771266,-0.3
 283069,-0.0463262,0.3077301,0.0992943,-0.1843094,0.0499848,0.4493251,-
 0.0648883,-0.0185254,-0.0106827,-0.0753974,-0.0051506,-0.0761234,-0.08
 28734,-0.0766303,-0.0029273,0.0131863,0.0452749,0.0018663,0.0085426,-0
 .0196371,0.0529136,0.0401334,0.10219,-0.1500406,-0.5927507,0.2205195,0
 .3417748,0.1288787,-0.5922146,-0.055584,0.2241086,-0.0455367,-0.550508
 ,0.2593099,-0.0721805,-0.0429651,-0.1098297,0.3416367,0.0010913,-0.072
 924,-0.0232926,0.2312707,0.3448086,0.0016437,0.05286,-0.0657962,0.2676
 569,-0.028182,-0.086434,0.049731,0.5889566,0.00207,0.018627,-0.0755368
 ,0.0038898,-0.0480884,0.0597481,-0.0090552,0.0666133,-0.1277436,0.0852
 44,-0.0124554,0.0182753,0.0102433,-0.0974678,-0.0113291,-0.0125918,-0.
 0717462,0.0275712,-0.0588851,-0.0247398,-0.0863841,-0.0125932,0.070689
 7,0.0373902,-0.1023681,-0.0009501,-0.0186352,-0.0009825,0.0063978,0.10
 05241,0.0459703,0.0945452,-0.0054021,0.0354159,-0.0072536,0.0217372,-0
 .1349644,-0.0871981,-0.2004098,-0.0107847,-0.0629156,-0.2025235,0.0212
 622,-0.1590073,-0.4816299,0.0554144,0.0060565,0.1064759,-0.0132771,-0.
 0182726,0.1132264,0.047318,0.069751,0.0610479,0.040027,0.0913647,0.090
 2088,0.0672936,-0.0446707,0.0175409,0.0296976,0.0402344,0.1066167,0.48
 27477,0.1211451,0.2668311,0.1284536,0.1710877,0.0519951,0.2499931,0.04
 93358,0.2224417,-0.5267723,-0.01777,0.0039903,0.2356154,-0.1452662,0.1
 511541,0.6505283,0.2050164,0.2394787,-0.3488594,-0.1010335,-0.2385211,
 -0.294883,-0.2196628,-0.20521,-0.7479014,-0.2484398,-0.6169611\Polar=6
 6.1647313,1.8388145,56.1420376,4.1751503,6.3619045,69.5090838\PG=C01 [
 X(C4H9O3)]\NImag=1\\0.52607157,0.02434496,0.47545790,0.04945367,-0.037
 30598,0.55568737,-0.20359198,-0.07303662,-0.08498140,0.24016645,-0.085
 02689,-0.08714505,-0.04031870,0.08569894,0.09180086,-0.09629271,-0.041
 29287,-0.09493229,0.08751264,0.04722574,0.10138410,-0.06114200,0.02528
 589,-0.04581567,-0.00419483,0.01295181,-0.02167141,0.06432807,0.024202
 36,-0.10554581,0.09873709,-0.00258263,0.00715777,-0.01036638,-0.027439
 99,0.11569952,-0.04372440,0.10280383,-0.22314313,-0.00485661,0.0071546
 6,-0.01072075,0.03633589,-0.10754551,0.25296718,-0.16128044,0.01942543
 ,0.08686046,-0.03471304,0.00697486,0.02835549,-0.00249375,-0.00128417,
 0.01313494,0.56724042,-0.00141235,-0.06899889,-0.01523368,-0.00912202,
 0.00473960,0.00884716,-0.01029372,0.00696558,0.00525981,0.13185790,0.1
 5862802,0.04720142,-0.02546253,-0.14954990,-0.00199811,0.00218231,0.00
 787814,0.03365605,-0.00801164,-0.02574566,0.03805020,0.13074401,0.2958
 4806,-0.03428177,-0.01170415,-0.01074590,-0.00264968,0.00123662,0.0049
 7364,0.00193543,-0.00070923,-0.00089520,-0.35577995,-0.14296777,-0.132
 33008,0.38993352,0.00741743,0.00168014,0.00151203,0.00153174,0.0004567
 2,-0.00048212,-0.00040406,-0.00006976,-0.00113403,-0.16627604,-0.08588
 074,-0.08457365,0.15580956,0.08406593,0.03120359,0.01037384,0.00742880
 ,0.00424482,-0.00110431,-0.00233196,0.00110020,0.00078595,0.00007748,-
 0.17869182,-0.09406136,-0.11758678,0.14224098,0.08334204,0.11292880,-0
 .06788485,0.01095649,-0.00223302,0.00455448,-0.02430428,-0.00368982,0.
 00039426,0.00787413,-0.00024298,-0.01611447,0.02754408,0.01586417,0.00
 104011,0.00420484,0.00200682,0.23069937,0.01949501,-0.18439285,-0.0047
 1327,-0.00239644,-0.01559186,-0.00286846,-0.00199041,-0.02090362,-0.00
 323126,0.00889832,-0.00730819,-0.00981615,-0.00047118,0.00263267,-0.00
 053124,-0.06154106,0.51276698,0.00413831,-0.00524447,-0.08669791,-0.00
 063413,-0.01634849,-0.00228603,-0.00473696,0.02914169,0.00312260,0.015
 21702,-0.02880121,-0.01397148,-0.00113311,0.00012830,0.00094499,-0.110
 80956,0.01864517,0.64104433,0.00469192,0.00248819,-0.00080509,-0.00019
 660,0.00075679,-0.00010598,0.00094879,0.00036908,0.00008074,0.00084663
 ,-0.00109840,-0.00010473,-0.00039645,-0.00012197,-0.00060517,-0.068973
 40,0.00094606,0.01141234,0.53247161,0.00379378,-0.02297730,0.02721163,
 -0.00015758,0.00136659,0.00003657,0.00123774,-0.00478634,-0.00150400,-
 0.00057800,0.00002321,0.00132273,0.00014497,-0.00078790,-0.00000403,0.
 00096925,-0.13985474,0.06462813,-0.00347606,0.55733919,-0.00053139,0.0
 0248374,0.01021843,-0.00037130,0.00047164,0.00006454,0.00075348,-0.003
 72433,0.00024037,0.00203552,0.00079245,-0.00110074,-0.00031534,-0.0004
 6195,0.00009677,0.00913225,0.05787176,-0.15910335,-0.02938974,0.048302
 36,0.50633991,0.00043902,0.00045996,0.00090075,0.00009217,0.00043028,0
 .00003780,0.00025976,-0.00000525,-0.00002545,0.00032222,0.00086151,-0.
 00099357,0.00016764,-0.00013849,0.00022272,-0.00190805,0.00204691,-0.0
 0234023,-0.04703093,-0.02005346,-0.00243561,0.04601430,-0.00012477,0.0
 0009786,0.00365607,-0.00020970,0.00026980,-0.00005635,0.00024456,-0.00
 100573,-0.00015977,-0.00006060,0.00015992,0.00003287,-0.00013996,-0.00
 003819,-0.00005360,-0.00076971,-0.02082528,-0.00637996,-0.01854882,-0.
 28851446,-0.07518960,0.02038425,0.31417544,0.00050113,0.00182712,-0.00
 565793,0.00016673,-0.00011628,-0.00000757,-0.00034699,0.00144056,0.000
 36705,-0.00019329,-0.00119678,0.00110537,-0.00007514,0.00016288,-0.000
 10067,0.00170216,0.02822319,0.00833746,-0.00331009,-0.07841766,-0.0711
 4425,0.00578169,0.08075107,0.07662713,-0.00024243,-0.00023773,-0.00041
 449,0.00017967,0.00032656,0.00005307,0.00012054,0.00020666,0.00000025,
 0.00029169,0.00063919,0.00009030,0.00010993,-0.00036741,0.00013382,0.0
 0029315,0.00200890,-0.00199068,-0.22804341,-0.02611904,-0.10595462,-0.
 00168246,-0.00043767,-0.00005585,0.24995308,-0.00070311,0.00018436,-0.
 00055015,-0.00004525,-0.00072294,0.00005457,-0.00033355,0.00027212,-0.
 00011753,-0.00040847,-0.00014110,-0.00011465,-0.00000018,0.00031152,0.
 00010525,0.01748390,0.00193421,0.00944465,-0.02257462,-0.04802598,-0.0
 1175325,-0.02690908,-0.00225065,-0.01498489,0.02696834,0.04849984,0.00
 013149,-0.00066841,0.00059531,0.00014556,0.00054802,0.00018940,0.00037
 018,-0.00008284,0.00009738,0.00007011,-0.00015701,-0.00014150,-0.00004
 483,-0.00007608,-0.00027540,-0.02203077,-0.00173399,-0.01782144,-0.109
 89327,-0.01485627,-0.10438873,-0.00757832,-0.00089695,-0.00518061,0.12
 034820,0.01277779,0.11613179,-0.00085525,0.00062134,0.00128798,-0.0000
 3254,-0.00009877,0.00009794,-0.00007342,-0.00013200,-0.00008175,-0.000
 19773,0.00162099,-0.00128924,-0.00013667,0.00059048,-0.00037463,0.0011
 7244,-0.00191023,-0.00160231,-0.19704312,0.04392975,0.12891072,0.00337
 182,-0.00055334,-0.00406599,-0.02094682,0.00615895,0.01699260,0.213823
 09,-0.00154153,-0.00007175,0.00105098,0.00019732,-0.00003879,-0.000051
 89,0.00035064,0.00039075,-0.00032459,0.00095379,-0.00033034,-0.0010983
 8,0.00092675,-0.00062192,0.00070336,-0.01759801,0.00795014,0.01122913,
 0.04650294,-0.06378177,-0.03881771,0.02323789,-0.00481573,-0.01768772,
 -0.00348254,0.00027819,0.00272230,-0.05062512,0.06357206,0.00093140,-0
 .00121121,-0.00108058,-0.00005965,-0.00012101,0.00002479,-0.00004757,-
 0.00002998,0.00011513,-0.00097920,-0.00190246,0.00128421,-0.00052853,0
 .00088781,-0.00036163,0.01967113,-0.00551403,-0.02089520,0.12659908,-0
 .03794314,-0.14839640,0.00537628,-0.00122759,-0.00545237,-0.01261076,0
 .00380194,0.01109649,-0.13862783,0.03882500,0.16520797,0.00327099,0.00
 458608,0.00719063,0.00110744,0.00166261,0.00038232,-0.00007302,-0.0017
 1040,0.00075308,0.00123194,0.00099444,0.00216410,0.00032180,-0.0003206
 1,-0.00048942,-0.10929440,0.04568220,0.13011812,0.00674761,0.00084297,
 0.00039078,0.00024116,0.00103150,-0.00089494,0.00078378,-0.00019973,0.
 00133253,0.00096196,0.00176159,0.00064274,0.31671517,0.00838658,-0.008
 13364,-0.02692958,0.00059018,-0.00149764,-0.00096903,0.00091965,0.0006
 0670,-0.00182719,0.00445056,-0.00565057,-0.00323004,-0.00077870,-0.000
 49475,-0.00036558,0.02819442,-0.12311171,-0.05412924,-0.00557965,0.009
 00615,0.01839688,-0.00061899,0.00174711,0.00041565,0.00047964,-0.00027
 911,0.00245573,0.00039889,-0.00224559,0.00436091,-0.11723660,0.5935370
 2,0.00472362,-0.00908631,-0.00574450,0.00159148,0.00135893,0.00038944,
 -0.00013281,0.00065123,0.00103790,-0.00028829,0.00074634,0.00261369,0.
 00005911,-0.00027162,-0.00060563,0.07492946,-0.05795181,-0.29196584,0.
 00822184,-0.00291027,-0.02810621,0.00077776,-0.00127681,0.00065323,0.0
 0174431,0.00025032,-0.00005757,-0.00010005,0.00261380,-0.00148327,-0.2
 0968594,-0.05388823,0.53608430,-0.00259341,-0.00226771,0.00047843,-0.0
 0029826,-0.00024825,-0.00029895,-0.00000686,0.00095536,-0.00078349,-0.
 00011270,0.00070242,-0.00033517,0.00001109,-0.00019635,0.00008933,0.00
 097281,-0.00750923,-0.00339512,0.00648796,0.00142248,0.00116214,-0.000
 31850,0.00008185,-0.00011566,-0.00050812,-0.00071281,0.00144906,0.0000
 1396,0.00024202,-0.00059270,-0.05964988,-0.05114882,0.07096083,0.06356
 400,0.00041265,0.00001437,-0.00235483,-0.00005167,-0.00008659,0.000045
 20,-0.00000330,0.00055855,0.00033375,-0.00085196,0.00029710,0.00052032
 ,0.00009726,0.00007218,0.00010185,0.00311680,0.00920856,-0.00714427,0.
 00040784,-0.00033253,-0.00142247,0.00014901,0.00036520,-0.00016952,0.0
 0001834,0.00009855,0.00003250,0.00016002,0.00028840,-0.00019245,-0.049
 78834,-0.19020623,0.12746649,0.05923404,0.19736082,-0.00277359,0.00071
 328,-0.00010695,-0.00006137,-0.00049016,-0.00035240,0.00040145,-0.0006
 9655,0.00027039,-0.00060992,0.00010831,0.00093772,0.00006731,0.0002386
 3,0.00002054,0.00955591,0.02230718,-0.02158202,0.00517397,-0.00290515,
 -0.00183789,-0.00016892,-0.00005100,0.00042525,-0.00017912,-0.00015409
 ,0.00018143,-0.00033382,0.00086684,-0.00158580,0.06083406,0.12089296,-
 0.14729762,-0.06523391,-0.13385102,0.16623199,0.00671518,0.00109528,0.
 00176367,-0.00060091,0.00133338,0.00039617,-0.00032287,-0.00019723,0.0
 0009081,-0.00025728,-0.00063140,-0.00039525,-0.00000651,-0.00013360,0.
 00002956,-0.00011144,0.00348554,-0.00767123,-0.00252332,0.00018578,-0.
 00060526,-0.00008714,-0.00087322,0.00046924,-0.00015102,-0.00004342,-0
 .00047691,-0.00010760,-0.00050677,0.00009403,-0.10213275,0.12739733,0.
 02515887,0.00486955,-0.01021222,-0.00200817,0.10853665,0.00353019,0.00
 241745,-0.00015558,-0.00038804,0.00035989,0.00006274,-0.00020890,0.000
 45702,0.00005602,0.00034810,-0.00087562,-0.00115105,-0.00022332,-0.000
 12704,0.00005535,0.00564752,-0.00911801,-0.00297236,-0.00257234,0.0009
 7087,0.00138778,0.00015440,0.00029184,-0.00047892,-0.00003998,-0.00006
 235,-0.00060176,-0.00004360,-0.00007840,0.00026562,0.11977353,-0.25438
 446,-0.00840878,0.01001213,-0.01360951,-0.00282743,-0.13211016,0.27201
 840,0.00296128,0.00267134,-0.00338441,-0.00022016,-0.00012053,0.000203
 83,0.00002662,-0.00016828,0.00054416,0.00088851,-0.00198590,-0.0010574
 9,-0.00024879,0.00010419,0.00000771,0.01588505,-0.02959695,-0.00323510
 ,-0.00223947,-0.00128662,0.00116685,0.00032069,0.00044789,0.00004390,-
 0.00001570,0.00001754,-0.00053103,-0.00016472,-0.00012215,0.00049143,0
 .01674001,-0.00341003,-0.04517996,-0.01134760,0.01380275,0.00187359,-0
 .01736269,0.01447629,0.04923433,0.00117585,0.00146060,-0.00116712,-0.0
 0166014,-0.00136955,0.00002113,0.00005687,0.00049615,0.00042114,-0.004
 22183,0.00036604,0.00042006,0.00008099,0.00136522,0.00161704,0.0424616
 4,-0.01638597,-0.05855480,-0.00186794,-0.00196285,0.00255927,0.0000811
 2,-0.00001056,0.00040971,-0.00187903,0.00071202,-0.00075135,-0.0008812
 0,-0.00094452,0.00064815,0.01588978,0.02812231,0.06659977,-0.01337445,
 -0.00298805,-0.00592279,-0.01414464,-0.00430568,-0.00592973,-0.0136609
 3,0.00102589,0.00038261,-0.00113333,-0.00007628,-0.00003113,0.00001820
 ,-0.00026102,-0.00029704,0.00020521,-0.00108614,-0.00048008,0.00036997
 ,-0.00000356,0.00050635,0.00037420,0.00121683,-0.00810258,-0.01121719,
 0.00104415,0.00005045,0.00147087,0.00016903,-0.00022051,0.00024111,-0.
 00037810,-0.00027250,0.00020787,-0.00007681,-0.00021983,0.00008642,0.0
 0091787,-0.02413897,0.00768521,-0.01195321,-0.00451246,-0.00467407,0.0
 1230080,0.00168381,0.00607354,-0.01052854,0.05387154,0.00337687,0.0003
 7386,-0.00024116,-0.00075112,0.00064215,0.00033426,0.00007774,0.000134
 92,0.00000735,-0.00126415,0.00020193,0.00045703,0.00052457,0.00039747,
 0.00045456,-0.00616217,-0.00681426,-0.02034413,0.00180247,-0.00024135,
 -0.00032754,-0.00014865,0.00020990,-0.00017462,-0.00050807,-0.00018022
 ,0.00076343,-0.00001285,0.00019563,0.00030043,-0.00728273,0.00132443,-
 0.01969149,0.00804222,0.00359175,0.00317892,0.00001453,-0.00006379,0.0
 0008664,-0.01603508,0.01062328,0.08061088,-0.00941426,-0.00369303,-0.0
 0193650,0.00041686,-0.00066647,0.00044860,0.00032493,0.00057693,-0.000
 23737,0.00317032,0.00251453,0.00076507,0.00070684,-0.00232906,-0.00175
 931,0.02655611,0.00522811,0.00383805,-0.00651229,-0.00081101,-0.003042
 71,0.00003351,-0.00038835,0.00039716,0.00075093,0.00036668,-0.00032686
 ,0.00061002,-0.00017615,-0.00020487,0.00460916,0.01107312,0.02951197,-
 0.00487170,0.00045041,-0.00163789,-0.00418475,-0.00240765,-0.00059754,
 -0.05261852,0.00768843,0.03254235,0.08274078,-0.00246519,-0.00451529,-
 0.00311451,-0.00025181,-0.00019456,-0.00034159,-0.00027025,0.00117393,
 -0.00054238,-0.00319892,0.00000670,-0.00108158,-0.00082037,-0.00229933
 ,0.00055988,-0.00416658,-0.01055021,0.00452529,0.00566585,0.00147033,0
 .00248454,-0.00017439,0.00029211,0.00025672,0.00049871,-0.00096692,0.0
 0177374,-0.00006813,-0.00056271,-0.00014032,-0.00613900,0.00129997,-0.
 00169528,0.00050374,-0.00058509,-0.00047044,0.00017309,-0.00001906,-0.
 00043314,0.00885059,0.00690898,-0.01097089,-0.02669484,0.07583339,0.00
 736985,-0.00328431,-0.00092138,-0.00091743,0.00271985,0.00143066,0.000
 12764,0.00097807,-0.00003491,-0.00500457,-0.00111198,-0.00026145,0.000
 80793,-0.00021579,0.00048383,-0.01583905,0.00499158,-0.00254344,-0.000
 86360,0.00125953,-0.00132227,0.00011366,-0.00112193,0.00058766,-0.0003
 9462,-0.00109256,0.00174417,-0.00080781,-0.00051732,0.00085135,-0.0173
 9485,-0.00465387,-0.00811879,0.00190204,-0.00103407,-0.00061595,0.0012
 9222,0.00061427,-0.00146638,0.03785239,-0.01029520,-0.02604437,-0.0923
 3409,0.16164891,0.46940914,-0.00107813,0.00021502,0.00016360,0.0014209
 0,0.00034237,-0.00021992,-0.00006188,-0.00061977,0.00003040,0.00206798
 ,-0.00157543,-0.00076523,-0.00105631,-0.00063168,-0.00096853,-0.043857
 75,0.00441347,0.02814429,0.00039294,0.00063129,-0.00229818,0.00000435,
 0.00037454,-0.00036988,0.00097050,0.00024035,0.00026259,0.00032106,0.0
 0070171,-0.00031171,-0.08073074,-0.03464992,-0.07407192,0.00581450,-0.
 00015086,0.00289680,0.00450885,0.00283379,0.00130424,0.04456241,0.0000
 0068,-0.01421593,-0.04231794,0.02855748,0.08409029,0.10903924,-0.00133
 501,0.00154588,-0.00035819,0.00029987,-0.00084268,0.00013852,0.0002149
 5,-0.00067363,0.00057297,0.00083534,-0.00115458,-0.00063255,-0.0003967
 4,0.00059411,-0.00028159,0.00117138,0.00526649,-0.00550517,-0.00420903
 ,-0.00116577,-0.00229272,0.00000643,0.00027128,-0.00026654,-0.00008388
 ,0.00114276,-0.00144462,0.00002757,0.00028727,0.00005448,-0.00185811,0
 .00394571,-0.00528321,0.00088234,0.00106870,0.00099269,-0.00126318,0.0
 0007516,-0.00046993,-0.00287721,-0.02512864,0.00057521,0.00926834,-0.0
 6729225,-0.14888517,-0.00068306,0.08206019,-0.00867054,0.00230910,-0.0
 0246976,0.00119004,-0.00368382,-0.00126813,-0.00009784,-0.00124400,0.0
 0079746,0.00241899,-0.00224961,-0.00070923,-0.00235663,0.00044188,-0.0
 0118141,0.01226041,-0.00926747,-0.01300343,-0.00597331,-0.00269245,-0.
 00239949,0.00015943,0.00131574,-0.00042904,-0.00024604,0.00249527,-0.0
 0240312,0.00017176,0.00041274,-0.00011654,0.01519951,0.00155624,0.0074
 7233,-0.00198145,0.00027400,0.00025881,-0.00078958,-0.00025841,0.00120
 193,-0.02218778,-0.00003610,-0.01937019,0.03457394,-0.15245893,-0.4331
 7787,-0.02367090,0.16308582,0.46679769\\0.00001114,-0.00000025,-0.0000
 0598,-0.00000183,0.00000403,0.00000085,-0.00000484,-0.00000018,0.00000
 117,0.00001291,-0.00000731,0.00001013,-0.00002309,-0.00001083,-0.00001
 647,-0.00001049,0.00000853,0.00000936,-0.00000429,0.00000103,0.0000014
 6,-0.00000043,-0.00000072,-0.00000080,-0.00000099,-0.00000069,0.000001
 73,-0.00000247,-0.00000082,-0.00000009,0.00002864,0.00000511,0.0000146
 0,0.00000380,0.00000458,0.00000178,0.00000525,0.00000235,0.00000236,-0
 .00002119,-0.00000340,-0.00000891,0.00000724,0.00000693,0.00002205,0.0
 0000063,-0.00000836,-0.00003326\\\@


 THE TRULY SUCCESSFUL PERFORMANCE OF RESEARCHES IN
 INORGANIC CHEMISTRY IS POSSIBLE ONLY TO ONE WHO IS NOT
 ONLY A THEORETICAL CHEMIST, BUT ALSO AN ACCOMPLISHED
 ANALYST AND, MOREOVER, NOT MERELY A PRACTICALLY TRAINED,
 MECHANICAL WORKER, BUT A THINKING CREATIVE ARTIST.
   --  CLEMENS WINKLER, BER. 33, 1697(1900)
 Job cpu time:  0 days  1 hours 10 minutes 34.7 seconds.
 File lengths (MBytes):  RWF=    125 Int=      0 D2E=      0 Chk=      8 Scr=      1
 Normal termination of Gaussian 03 at Sun Jun  9 15:24:59 2013.
