 Entering Gaussian System, Link 0=g03
 Input=p13bmkfreq.gjf
 Output=p13bmkfreq.log
 Initial command:
 /opt/g03/l1.exe /scratch/nyee/Gau-29475.inp -scrdir=/scratch/nyee/
 Entering Link 1 = /opt/g03/l1.exe PID=     29477.
  
 Copyright (c) 1988,1990,1992,1993,1995,1998,2003,2004, Gaussian, Inc.
                  All Rights Reserved.
  
 This is the Gaussian(R) 03 program.  It is based on the
 the Gaussian(R) 98 system (copyright 1998, Gaussian, Inc.),
 the Gaussian(R) 94 system (copyright 1995, Gaussian, Inc.),
 the Gaussian 92(TM) system (copyright 1992, Gaussian, Inc.),
 the Gaussian 90(TM) system (copyright 1990, Gaussian, Inc.),
 the Gaussian 88(TM) system (copyright 1988, Gaussian, Inc.),
 the Gaussian 86(TM) system (copyright 1986, Carnegie Mellon
 University), and the Gaussian 82(TM) system (copyright 1983,
 Carnegie Mellon University). Gaussian is a federally registered
 trademark of Gaussian, Inc.
  
 This software contains proprietary and confidential information,
 including trade secrets, belonging to Gaussian, Inc.
  
 This software is provided under written license and may be
 used, copied, transmitted, or stored only in accord with that
 written license.
  
 The following legend is applicable only to US Government
 contracts under FAR:
  
                    RESTRICTED RIGHTS LEGEND
  
 Use, reproduction and disclosure by the US Government is
 subject to restrictions as set forth in subparagraphs (a)
 and (c) of the Commercial Computer Software - Restricted
 Rights clause in FAR 52.227-19.
  
 Gaussian, Inc.
 340 Quinnipiac St., Bldg. 40, Wallingford CT 06492
  
  
 ---------------------------------------------------------------
 Warning -- This program may not be used in any manner that
 competes with the business of Gaussian, Inc. or will provide
 assistance to any competitor of Gaussian, Inc.  The licensee
 of this program is prohibited from giving any competitor of
 Gaussian, Inc. access to this program.  By using this program,
 the user acknowledges that Gaussian, Inc. is engaged in the
 business of creating and licensing software in the field of
 computational chemistry and represents and warrants to the
 licensee that it is not a competitor of Gaussian, Inc. and that
 it will not use this program in any manner prohibited above.
 ---------------------------------------------------------------
  

 Cite this work as:
 Gaussian 03, Revision D.01,
 M. J. Frisch, G. W. Trucks, H. B. Schlegel, G. E. Scuseria, 
 M. A. Robb, J. R. Cheeseman, J. A. Montgomery, Jr., T. Vreven, 
 K. N. Kudin, J. C. Burant, J. M. Millam, S. S. Iyengar, J. Tomasi, 
 V. Barone, B. Mennucci, M. Cossi, G. Scalmani, N. Rega, 
 G. A. Petersson, H. Nakatsuji, M. Hada, M. Ehara, K. Toyota, 
 R. Fukuda, J. Hasegawa, M. Ishida, T. Nakajima, Y. Honda, O. Kitao, 
 H. Nakai, M. Klene, X. Li, J. E. Knox, H. P. Hratchian, J. B. Cross, 
 V. Bakken, C. Adamo, J. Jaramillo, R. Gomperts, R. E. Stratmann, 
 O. Yazyev, A. J. Austin, R. Cammi, C. Pomelli, J. W. Ochterski, 
 P. Y. Ayala, K. Morokuma, G. A. Voth, P. Salvador, J. J. Dannenberg, 
 V. G. Zakrzewski, S. Dapprich, A. D. Daniels, M. C. Strain, 
 O. Farkas, D. K. Malick, A. D. Rabuck, K. Raghavachari, 
 J. B. Foresman, J. V. Ortiz, Q. Cui, A. G. Baboul, S. Clifford, 
 J. Cioslowski, B. B. Stefanov, G. Liu, A. Liashenko, P. Piskorz, 
 I. Komaromi, R. L. Martin, D. J. Fox, T. Keith, M. A. Al-Laham, 
 C. Y. Peng, A. Nanayakkara, M. Challacombe, P. M. W. Gill, 
 B. Johnson, W. Chen, M. W. Wong, C. Gonzalez, and J. A. Pople, 
 Gaussian, Inc., Wallingford CT, 2004.
 
 ******************************************
 Gaussian 03:  AM64L-G03RevD.01 13-Oct-2005
                 8-Jul-2014 
 ******************************************
 %chk=p13bmk.chk
 %mem=1000mb
 %nproc=8
 Will use up to    8 processors via shared memory.
 -----------------------------------
 # freq nosymm bmk/cbsb7 iop(7/33=1)
 -----------------------------------
 1/10=4,30=1,38=1/1,3;
 2/15=1,17=6,18=5,40=1/2;
 3/5=4,6=6,7=700,11=2,16=1,25=1,30=1,74=-34/1,2,3;
 4//1;
 5/5=2,38=5/2;
 8/6=4,10=90,11=11/1;
 11/6=1,8=1,9=11,15=111,16=1,31=1/1,2,10;
 10/6=1,31=1/2;
 6/7=2,8=2,9=2,10=2,18=1,28=1/1;
 7/8=1,10=1,25=1,30=1,33=1/1,2,3,16;
 1/10=4,30=1/3;
 99//99;
 -------------------
 Title Card Required
 -------------------
 Symbolic Z-matrix:
 Charge =  0 Multiplicity = 2
 O                    -1.78207   2.69002  -0.3335 
 H                    -2.06704   2.65422   0.58814 
 O                    -0.37174   2.58594  -0.2068 
 C                    -0.05346   1.22802  -0.00022 
 H                    -0.43226   0.63325  -0.86097 
 O                    -0.61838   0.69848   1.07842 
 C                     1.506     1.13596   0.02388 
 H                     1.83243   1.65466  -0.88396 
 C                     2.06703   1.86087   1.25977 
 H                     3.16103   1.85237   1.23167 
 H                     1.72896   2.89912   1.29427 
 H                     1.74426   1.35706   2.17709 
 C                     1.94218  -0.33454  -0.0307 
 H                     1.5849   -0.82826  -0.94031 
 H                     3.03453  -0.39856  -0.01756 
 H                     1.55322  -0.88204   0.83282 
 

 GradGradGradGradGradGradGradGradGradGradGradGradGradGradGradGradGradGrad
 Berny optimization.
 Initialization pass.
 Trust Radius=3.00D-01 FncErr=1.00D-07 GrdErr=1.00D-07
 Number of steps in this run=   2 maximum allowed number of steps=   2.
 GradGradGradGradGradGradGradGradGradGradGradGradGradGradGradGradGradGrad

                          Input orientation:                          
 ---------------------------------------------------------------------
 Center     Atomic     Atomic              Coordinates (Angstroms)
 Number     Number      Type              X           Y           Z
 ---------------------------------------------------------------------
    1          8             0       -1.782065    2.690020   -0.333497
    2          1             0       -2.067044    2.654224    0.588144
    3          8             0       -0.371741    2.585938   -0.206800
    4          6             0       -0.053462    1.228019   -0.000224
    5          1             0       -0.432257    0.633247   -0.860971
    6          8             0       -0.618375    0.698476    1.078416
    7          6             0        1.505999    1.135955    0.023876
    8          1             0        1.832430    1.654658   -0.883957
    9          6             0        2.067028    1.860867    1.259766
   10          1             0        3.161033    1.852370    1.231667
   11          1             0        1.728961    2.899120    1.294270
   12          1             0        1.744262    1.357064    2.177091
   13          6             0        1.942183   -0.334535   -0.030696
   14          1             0        1.584898   -0.828262   -0.940313
   15          1             0        3.034529   -0.398561   -0.017556
   16          1             0        1.553219   -0.882039    0.832820
 ---------------------------------------------------------------------
                    Distance matrix (angstroms):
                    1          2          3          4          5
     1  O    0.000000
     2  H    0.965358   0.000000
     3  O    1.419824   1.873673   0.000000
     4  C    2.288359   2.536681   1.409936   0.000000
     5  H    2.516054   2.976039   2.060244   1.112711   0.000000
     6  O    2.704426   2.482732   2.296763   1.327783   1.949389
     7  C    3.654340   3.923031   2.383604   1.562362   2.189179
     8  H    3.799941   4.286270   2.486804   2.125934   2.484475
     9  C    4.247529   4.262751   2.936688   2.546478   3.500143
    10  H    5.252201   5.328216   3.884302   3.498621   4.333258
    11  H    3.875649   3.868881   2.600816   2.765018   3.801330
    12  H    4.529327   4.328213   3.416217   2.826511   3.806700
    13  C    4.807249   5.038804   3.730204   2.534779   2.695167
    14  H    4.907441   5.272625   4.002904   2.792182   2.492232
    15  H    5.730509   5.975987   4.532739   3.490237   3.714106
    16  H    5.024343   5.066688   4.100384   2.779880   3.017803
                    6          7          8          9         10
     6  O    0.000000
     7  C    2.411723   0.000000
     8  H    3.282017   1.095340   0.000000
     9  C    2.931796   1.538725   2.166358   0.000000
    10  H    3.954603   2.170518   2.506021   1.094399   0.000000
    11  H    3.224812   2.184574   2.510790   1.092451   1.774946
    12  H    2.687541   2.177612   3.076744   1.095208   1.773808
    13  C    2.975516   1.534788   2.167254   2.549641   2.803874
    14  H    3.355683   2.189528   2.495865   3.507736   3.793084
    15  H    3.968419   2.166301   2.532074   2.769950   2.577451
    16  H    2.697066   2.174608   3.075730   2.823086   3.197051
                   11         12         13         14         15
    11  H    0.000000
    12  H    1.776948   0.000000
    13  C    3.501075   2.788369   0.000000
    14  H    4.348275   3.810414   1.094907   0.000000
    15  H    3.781547   3.092488   1.094300   1.771314   0.000000
    16  H    3.813264   2.618615   1.093944   1.774231   1.775153
                   16
    16  H    0.000000
 Symmetry turned off by external request.
 Stoichiometry    C4H9O3(2)
 Framework group  C1[X(C4H9O3)]
 Deg. of freedom    42
 Full point group                 C1
 Rotational constants (GHZ):      4.7052310      1.6733353      1.5284124
 Standard basis: CBSB7 (5D, 7F)
 Integral buffers will be    131072 words long.
 Raffenetti 2 integral format.
 Two-electron integral symmetry is turned off.
   180 basis functions,   296 primitive gaussians,   187 cartesian basis functions
    29 alpha electrons       28 beta electrons
       nuclear repulsion energy       331.8895336324 Hartrees.
 NAtoms=   16 NActive=   16 NUniq=   16 SFac= 7.50D-01 NAtFMM=   80 NAOKFM=F Big=F
 One-electron integrals computed using PRISM.
 NBasis=   180 RedAO= T  NBF=   180
 NBsUse=   180 1.00D-06 NBFU=   180
 Harris functional with IExCor= 3226 diagonalized for initial guess.
 ExpMin= 1.03D-01 ExpMax= 8.59D+03 ExpMxC= 1.30D+03 IAcc=1 IRadAn=         1 AccDes= 1.00D-06
 HarFok:  IExCor=3226 AccDes= 1.00D-06 IRadAn=         1 IDoV=1
 ScaDFX=  1.000000  1.000000  1.000000  1.000000
 <S**2> of initial guess= 0.7500
 Requested convergence on RMS density matrix=1.00D-08 within 128 cycles.
 Requested convergence on MAX density matrix=1.00D-06.
 Requested convergence on             energy=1.00D-06.
 No special actions if energy rises.
 Integral accuracy reduced to 1.0D-05 until final iterations.
 Initial convergence to 1.0D-05 achieved.  Increase integral accuracy.
 SCF Done:  E(UBMK+HF-BMK) =  -383.236833658     A.U. after   31 cycles
             Convg  =    0.3041D-08             -V/T =  2.0028
             S**2   =   0.7540
 Annihilation of the first spin contaminant:
 S**2 before annihilation     0.7540,   after     0.7500
 Range of M.O.s used for correlation:     1   180
 NBasis=   180 NAE=    29 NBE=    28 NFC=     0 NFV=     0
 NROrb=    180 NOA=    29 NOB=    28 NVA=   151 NVB=   152
 Symmetrizing basis deriv contribution to polar:
 IMax=3 JMax=2 DiffMx= 0.00D+00
 G2DrvN: will do   17 centers at a time, making    1 passes doing MaxLOS=2.
 FoFDir/FoFCou used for L=0 through L=2.
 DoAtom=TTTTTTTTTTTTTTTT
          Differentiating once with respect to electric field.
                with respect to dipole field.
          Differentiating once with respect to nuclear coordinates.
 Symmetry not used in FoFDir.
 MinBra= 0 MaxBra= 2 Meth= 1.
 IRaf=       0 NMat=  51 IRICut=      51 DoRegI=T DoRafI=T ISym2E= 0 JSym2E=0.
          There are  51 degrees of freedom in the 1st order CPHF.
    48 vectors were produced by pass  0.
 AX will form  48 AO Fock derivatives at one time.
    48 vectors were produced by pass  1.
    48 vectors were produced by pass  2.
    48 vectors were produced by pass  3.
    48 vectors were produced by pass  4.
    48 vectors were produced by pass  5.
    36 vectors were produced by pass  6.
    12 vectors were produced by pass  7.
     3 vectors were produced by pass  8.
 Inv2:  IOpt= 1 Iter= 1 AM= 5.14D-15 Conv= 1.00D-12.
 Inverted reduced A of dimension  339 with in-core refinement.
 Isotropic polarizability for W=    0.000000       58.03 Bohr**3.
 End of Minotr Frequency-dependent properties file   721 does not exist.

 **********************************************************************

            Population analysis using the SCF density.

 **********************************************************************

 Alpha  occ. eigenvalues --  -19.58671 -19.58633 -19.58063 -10.58158 -10.49384
 Alpha  occ. eigenvalues --  -10.46164 -10.45764  -1.24775  -1.15302  -0.99879
 Alpha  occ. eigenvalues --   -0.88298  -0.76678  -0.73141  -0.64098  -0.62178
 Alpha  occ. eigenvalues --   -0.57440  -0.54287  -0.52470  -0.50187  -0.48220
 Alpha  occ. eigenvalues --   -0.45923  -0.44106  -0.43979  -0.39889  -0.39724
 Alpha  occ. eigenvalues --   -0.38793  -0.37294  -0.34704  -0.33679
 Alpha virt. eigenvalues --    0.07149   0.08214   0.11617   0.11726   0.13171
 Alpha virt. eigenvalues --    0.14831   0.15453   0.16456   0.18728   0.19535
 Alpha virt. eigenvalues --    0.21433   0.22604   0.25954   0.27247   0.29107
 Alpha virt. eigenvalues --    0.32925   0.34553   0.38307   0.42378   0.45097
 Alpha virt. eigenvalues --    0.46060   0.47624   0.49222   0.54131   0.55266
 Alpha virt. eigenvalues --    0.59506   0.60639   0.62217   0.62879   0.63318
 Alpha virt. eigenvalues --    0.64237   0.64994   0.66043   0.68340   0.69493
 Alpha virt. eigenvalues --    0.70105   0.74587   0.78062   0.80808   0.82208
 Alpha virt. eigenvalues --    0.90987   0.92343   0.93102   0.95395   0.97576
 Alpha virt. eigenvalues --    1.00461   1.01978   1.03083   1.05540   1.11390
 Alpha virt. eigenvalues --    1.22089   1.25756   1.29273   1.34478   1.38502
 Alpha virt. eigenvalues --    1.43169   1.45297   1.47936   1.48620   1.52175
 Alpha virt. eigenvalues --    1.53024   1.53932   1.55102   1.57358   1.57813
 Alpha virt. eigenvalues --    1.60813   1.61600   1.63315   1.65009   1.69585
 Alpha virt. eigenvalues --    1.70771   1.73974   1.78909   1.80685   1.83041
 Alpha virt. eigenvalues --    1.84176   1.87682   1.90029   1.95621   2.01110
 Alpha virt. eigenvalues --    2.02476   2.03314   2.08268   2.11522   2.15198
 Alpha virt. eigenvalues --    2.16293   2.20674   2.30019   2.34469   2.36253
 Alpha virt. eigenvalues --    2.43836   2.45881   2.50250   2.50888   2.54479
 Alpha virt. eigenvalues --    2.56155   2.57967   2.58837   2.61648   2.63007
 Alpha virt. eigenvalues --    2.65274   2.69766   2.70937   2.71829   2.74712
 Alpha virt. eigenvalues --    2.75946   2.78426   2.83002   2.84825   2.88494
 Alpha virt. eigenvalues --    2.89144   2.92961   2.98990   2.99874   3.01166
 Alpha virt. eigenvalues --    3.15170   3.16578   3.21508   3.22661   3.31001
 Alpha virt. eigenvalues --    3.37117   3.40349   3.49651   3.53138   3.74131
 Alpha virt. eigenvalues --    3.87254   3.88069   3.89524   3.91887   3.92629
 Alpha virt. eigenvalues --    3.93133   4.03963   4.09526   4.30513   4.36226
 Alpha virt. eigenvalues --    4.83366   4.93406   4.97619   5.00345   5.06104
 Alpha virt. eigenvalues --    5.34898   5.45917   5.66332   5.90242  23.86313
 Alpha virt. eigenvalues --   23.99758  24.11650  24.13757  50.05990  50.12173
 Alpha virt. eigenvalues --   50.16122
  Beta  occ. eigenvalues --  -19.58680 -19.58051 -19.56367 -10.58232 -10.49169
  Beta  occ. eigenvalues --  -10.46174 -10.45761  -1.24474  -1.10619  -0.99225
  Beta  occ. eigenvalues --   -0.87877  -0.76615  -0.72098  -0.63031  -0.61312
  Beta  occ. eigenvalues --   -0.55559  -0.53284  -0.51460  -0.49508  -0.47695
  Beta  occ. eigenvalues --   -0.45107  -0.43969  -0.40456  -0.39621  -0.39397
  Beta  occ. eigenvalues --   -0.37666  -0.34327  -0.33618
  Beta virt. eigenvalues --   -0.12355   0.07239   0.08436   0.11695   0.11814
  Beta virt. eigenvalues --    0.13228   0.14890   0.15547   0.16607   0.18748
  Beta virt. eigenvalues --    0.19559   0.21723   0.22922   0.26422   0.27741
  Beta virt. eigenvalues --    0.29495   0.33075   0.34634   0.38545   0.42812
  Beta virt. eigenvalues --    0.45393   0.46331   0.47778   0.50174   0.54660
  Beta virt. eigenvalues --    0.55701   0.59787   0.61000   0.62367   0.62999
  Beta virt. eigenvalues --    0.63380   0.64403   0.65089   0.66323   0.68418
  Beta virt. eigenvalues --    0.69580   0.70256   0.74702   0.78872   0.81042
  Beta virt. eigenvalues --    0.82341   0.91251   0.92504   0.94510   0.96917
  Beta virt. eigenvalues --    0.98022   1.00782   1.02183   1.03705   1.06565
  Beta virt. eigenvalues --    1.11520   1.22209   1.25896   1.29483   1.34664
  Beta virt. eigenvalues --    1.38759   1.43239   1.45388   1.48046   1.48905
  Beta virt. eigenvalues --    1.52657   1.53247   1.53962   1.55531   1.57423
  Beta virt. eigenvalues --    1.57974   1.61020   1.61941   1.63545   1.65232
  Beta virt. eigenvalues --    1.69804   1.71120   1.74176   1.79138   1.80917
  Beta virt. eigenvalues --    1.83208   1.84271   1.87807   1.90283   1.96263
  Beta virt. eigenvalues --    2.01686   2.02646   2.03481   2.08412   2.12117
  Beta virt. eigenvalues --    2.15389   2.16388   2.20867   2.30293   2.34579
  Beta virt. eigenvalues --    2.37036   2.43873   2.46118   2.50350   2.50996
  Beta virt. eigenvalues --    2.54614   2.56406   2.58109   2.58992   2.61822
  Beta virt. eigenvalues --    2.63250   2.65514   2.69969   2.71158   2.71967
  Beta virt. eigenvalues --    2.74916   2.76238   2.78826   2.83893   2.87389
  Beta virt. eigenvalues --    2.90253   2.92332   2.95234   2.99935   3.01599
  Beta virt. eigenvalues --    3.02358   3.16263   3.17171   3.21947   3.24291
  Beta virt. eigenvalues --    3.32299   3.38652   3.41310   3.49984   3.54120
  Beta virt. eigenvalues --    3.74176   3.87304   3.88089   3.89595   3.91924
  Beta virt. eigenvalues --    3.92715   3.94533   4.04898   4.09716   4.30833
  Beta virt. eigenvalues --    4.36321   4.83413   4.93648   4.99087   5.05915
  Beta virt. eigenvalues --    5.07551   5.35180   5.46055   5.67203   5.90352
  Beta virt. eigenvalues --   23.86238  23.99880  24.11653  24.13755  50.06043
  Beta virt. eigenvalues --   50.12555  50.16619
          Condensed to atoms (all electrons):
              1          2          3          4          5          6
     1  O    7.945324   0.295226   0.073135  -0.053646   0.006234  -0.004470
     2  H    0.295226   0.450352  -0.035727  -0.004513   0.000133   0.013284
     3  O    0.073135  -0.035727   8.133559   0.216079  -0.043006  -0.061564
     4  C   -0.053646  -0.004513   0.216079   4.812940   0.393756   0.319442
     5  H    0.006234   0.000133  -0.043006   0.393756   0.539277  -0.042447
     6  O   -0.004470   0.013284  -0.061564   0.319442  -0.042447   8.045318
     7  C    0.007516  -0.000087  -0.047234   0.272635  -0.030563  -0.055429
     8  H   -0.000290   0.000006   0.007742  -0.046297  -0.007970   0.005004
     9  C   -0.000073   0.000006  -0.005458  -0.063085   0.008091  -0.004967
    10  H    0.000013  -0.000005  -0.000111   0.007974  -0.000098  -0.000007
    11  H   -0.000446   0.000090   0.010733  -0.006672   0.000759  -0.000678
    12  H   -0.000016   0.000001   0.000021  -0.008238   0.000140   0.005959
    13  C   -0.000216   0.000027   0.003357  -0.072184  -0.004504   0.001663
    14  H   -0.000032   0.000001  -0.000034  -0.002839   0.003612  -0.000486
    15  H    0.000006  -0.000001  -0.000125   0.007477   0.000289  -0.000103
    16  H   -0.000007  -0.000030   0.000431  -0.008396  -0.001520   0.011278
              7          8          9         10         11         12
     1  O    0.007516  -0.000290  -0.000073   0.000013  -0.000446  -0.000016
     2  H   -0.000087   0.000006   0.000006  -0.000005   0.000090   0.000001
     3  O   -0.047234   0.007742  -0.005458  -0.000111   0.010733   0.000021
     4  C    0.272635  -0.046297  -0.063085   0.007974  -0.006672  -0.008238
     5  H   -0.030563  -0.007970   0.008091  -0.000098   0.000759   0.000140
     6  O   -0.055429   0.005004  -0.004967  -0.000007  -0.000678   0.005959
     7  C    5.328077   0.402310   0.300802  -0.035203  -0.033141  -0.043057
     8  H    0.402310   0.543296  -0.038795  -0.006408  -0.004405   0.006966
     9  C    0.300802  -0.038795   4.998804   0.406502   0.405354   0.409296
    10  H   -0.035203  -0.006408   0.406502   0.542622  -0.021856  -0.025068
    11  H   -0.033141  -0.004405   0.405354  -0.021856   0.515127  -0.024161
    12  H   -0.043057   0.006966   0.409296  -0.025068  -0.024161   0.541003
    13  C    0.311710  -0.028575  -0.071639  -0.005342   0.007060  -0.004029
    14  H   -0.034079  -0.005315   0.007509   0.000046  -0.000353  -0.000053
    15  H   -0.033213  -0.005472  -0.004445   0.002973   0.000172  -0.000647
    16  H   -0.040196   0.007172  -0.004894  -0.000699  -0.000192   0.004166
             13         14         15         16
     1  O   -0.000216  -0.000032   0.000006  -0.000007
     2  H    0.000027   0.000001  -0.000001  -0.000030
     3  O    0.003357  -0.000034  -0.000125   0.000431
     4  C   -0.072184  -0.002839   0.007477  -0.008396
     5  H   -0.004504   0.003612   0.000289  -0.001520
     6  O    0.001663  -0.000486  -0.000103   0.011278
     7  C    0.311710  -0.034079  -0.033213  -0.040196
     8  H   -0.028575  -0.005315  -0.005472   0.007172
     9  C   -0.071639   0.007509  -0.004445  -0.004894
    10  H   -0.005342   0.000046   0.002973  -0.000699
    11  H    0.007060  -0.000353   0.000172  -0.000192
    12  H   -0.004029  -0.000053  -0.000647   0.004166
    13  C    4.988095   0.402436   0.404714   0.406489
    14  H    0.402436   0.548644  -0.024149  -0.025300
    15  H    0.404714  -0.024149   0.538571  -0.024150
    16  H    0.406489  -0.025300  -0.024150   0.530207
 Mulliken atomic charges:
              1
     1  O   -0.268259
     2  H    0.281237
     3  O   -0.251800
     4  C    0.235567
     5  H    0.177816
     6  O   -0.231796
     7  C   -0.270849
     8  H    0.171030
     9  C   -0.343008
    10  H    0.134668
    11  H    0.152608
    12  H    0.137716
    13  C   -0.339065
    14  H    0.130392
    15  H    0.138102
    16  H    0.145641
 Sum of Mulliken charges=   0.00000
 Atomic charges with hydrogens summed into heavy atoms:
              1
     1  O    0.012978
     2  H    0.000000
     3  O   -0.251800
     4  C    0.413383
     5  H    0.000000
     6  O   -0.231796
     7  C   -0.099819
     8  H    0.000000
     9  C    0.081984
    10  H    0.000000
    11  H    0.000000
    12  H    0.000000
    13  C    0.075069
    14  H    0.000000
    15  H    0.000000
    16  H    0.000000
 Sum of Mulliken charges=   0.00000
          Atomic-Atomic Spin Densities.
              1          2          3          4          5          6
     1  O    0.005595   0.000180  -0.001426  -0.000266  -0.000821   0.000191
     2  H    0.000180  -0.000654   0.000556  -0.000322   0.000082  -0.001140
     3  O   -0.001426   0.000556  -0.009064   0.011594  -0.004020   0.002458
     4  C   -0.000266  -0.000322   0.011594  -0.086968   0.028609  -0.047772
     5  H   -0.000821   0.000082  -0.004020   0.028609   0.131929  -0.021182
     6  O    0.000191  -0.001140   0.002458  -0.047772  -0.021182   0.939042
     7  C    0.000834  -0.000136   0.000727   0.022817  -0.029220  -0.023350
     8  H   -0.000074   0.000019  -0.000415   0.001416   0.003102   0.000346
     9  C   -0.000110   0.000009   0.000712  -0.001212   0.002342   0.009024
    10  H    0.000000   0.000000   0.000031  -0.000510  -0.000048  -0.000131
    11  H   -0.000025  -0.000003  -0.000157   0.000888   0.000131   0.000664
    12  H   -0.000021   0.000008   0.000191  -0.001500   0.000356   0.002735
    13  C    0.000002   0.000003  -0.000205   0.005364   0.000827  -0.000088
    14  H    0.000000   0.000000  -0.000003  -0.000050   0.000492   0.000045
    15  H    0.000000   0.000000   0.000004  -0.000258  -0.000155  -0.000106
    16  H   -0.000001   0.000004  -0.000041  -0.000175   0.000548  -0.000312
              7          8          9         10         11         12
     1  O    0.000834  -0.000074  -0.000110   0.000000  -0.000025  -0.000021
     2  H   -0.000136   0.000019   0.000009   0.000000  -0.000003   0.000008
     3  O    0.000727  -0.000415   0.000712   0.000031  -0.000157   0.000191
     4  C    0.022817   0.001416  -0.001212  -0.000510   0.000888  -0.001500
     5  H   -0.029220   0.003102   0.002342  -0.000048   0.000131   0.000356
     6  O   -0.023350   0.000346   0.009024  -0.000131   0.000664   0.002735
     7  C    0.145952  -0.008380  -0.022888   0.001189  -0.002118  -0.001891
     8  H   -0.008380   0.003720   0.005025  -0.000390   0.000383   0.000252
     9  C   -0.022888   0.005025   0.014895   0.000370   0.000487   0.001334
    10  H    0.001189  -0.000390   0.000370  -0.000893   0.000153  -0.000886
    11  H   -0.002118   0.000383   0.000487   0.000153  -0.000555   0.000460
    12  H   -0.001891   0.000252   0.001334  -0.000886   0.000460  -0.000510
    13  C   -0.003287  -0.001047  -0.000719   0.000476  -0.000118   0.000197
    14  H   -0.000486   0.000276   0.000059  -0.000008   0.000002   0.000033
    15  H   -0.000720  -0.000450  -0.000156   0.000019  -0.000008  -0.000196
    16  H   -0.000582   0.000106   0.000498  -0.000031   0.000022   0.000199
             13         14         15         16
     1  O    0.000002   0.000000   0.000000  -0.000001
     2  H    0.000003   0.000000   0.000000   0.000004
     3  O   -0.000205  -0.000003   0.000004  -0.000041
     4  C    0.005364  -0.000050  -0.000258  -0.000175
     5  H    0.000827   0.000492  -0.000155   0.000548
     6  O   -0.000088   0.000045  -0.000106  -0.000312
     7  C   -0.003287  -0.000486  -0.000720  -0.000582
     8  H   -0.001047   0.000276  -0.000450   0.000106
     9  C   -0.000719   0.000059  -0.000156   0.000498
    10  H    0.000476  -0.000008   0.000019  -0.000031
    11  H   -0.000118   0.000002  -0.000008   0.000022
    12  H    0.000197   0.000033  -0.000196   0.000199
    13  C   -0.006307  -0.000173   0.002599  -0.000424
    14  H   -0.000173   0.000118  -0.000192   0.000198
    15  H    0.002599  -0.000192   0.001100  -0.000459
    16  H   -0.000424   0.000198  -0.000459   0.001027
 Mulliken atomic spin densities:
              1
     1  O    0.004058
     2  H   -0.001394
     3  O    0.000942
     4  C   -0.068346
     5  H    0.112972
     6  O    0.860424
     7  C    0.078460
     8  H    0.003887
     9  C    0.009671
    10  H   -0.000656
    11  H    0.000207
    12  H    0.000762
    13  C   -0.002899
    14  H    0.000311
    15  H    0.001022
    16  H    0.000579
 Sum of Mulliken spin densities=   1.00000
 APT atomic charges:
              1
     1  O   -0.297251
     2  H    0.267285
     3  O   -0.358023
     4  C    0.392571
     5  H    0.058957
     6  O   -0.262870
     7  C    0.205052
     8  H   -0.030034
     9  C   -0.026426
    10  H    0.002646
    11  H    0.025021
    12  H    0.011403
    13  C   -0.012200
    14  H   -0.003655
    15  H    0.003235
    16  H    0.024290
 Sum of APT charges=   0.00000
 APT Atomic charges with hydrogens summed into heavy atoms:
              1
     1  O   -0.029966
     2  H    0.000000
     3  O   -0.358023
     4  C    0.451527
     5  H    0.000000
     6  O   -0.262870
     7  C    0.175018
     8  H    0.000000
     9  C    0.012644
    10  H    0.000000
    11  H    0.000000
    12  H    0.000000
    13  C    0.011671
    14  H    0.000000
    15  H    0.000000
    16  H    0.000000
 Sum of APT charges=   0.00000
 Electronic spatial extent (au):  <R**2>=  1311.5088
 Charge=     0.0000 electrons
 Dipole moment (field-independent basis, Debye):
    X=     1.3044    Y=    -1.0476    Z=     0.3178  Tot=     1.7029
 Quadrupole moment (field-independent basis, Debye-Ang):
   XX=   -39.5008   YY=   -48.4989   ZZ=   -43.4341
   XY=     1.0841   XZ=    -2.0358   YZ=     4.5536
 Traceless Quadrupole moment (field-independent basis, Debye-Ang):
   XX=     4.3105   YY=    -4.6876   ZZ=     0.3771
   XY=     1.0841   XZ=    -2.0358   YZ=     4.5536
 Octapole moment (field-independent basis, Debye-Ang**2):
  XXX=   -67.7414  YYY=  -193.3957  ZZZ=   -37.1535  XYY=   -21.5984
  XXY=   -51.2132  XXZ=    -5.1277  XZZ=   -22.2428  YZZ=   -57.8206
  YYZ=     2.5189  XYZ=    -8.7895
 Hexadecapole moment (field-independent basis, Debye-Ang**3):
 XXXX=  -605.4382 YYYY=  -873.4590 ZZZZ=  -183.2204 XXXY=    -1.3000
 XXXZ=   -73.0929 YYYX=    13.1718 YYYZ=    -3.3030 ZZZX=   -58.6347
 ZZZY=   -45.6112 XXYY=  -230.2036 XXZZ=  -139.7133 YYZZ=  -162.9479
 XXYZ=     4.3252 YYXZ=   -45.3903 ZZXY=     0.8528
 N-N= 3.318895336324D+02 E-N=-1.562983732819D+03  KE= 3.821537521339D+02
  Exact polarizability:  66.693  -5.627  55.176   0.675   0.986  52.232
 Approx polarizability:  74.796  -1.942  64.140  -2.439  -2.462  66.833
                          Isotropic Fermi Contact Couplings
        Atom                 a.u.       MegaHertz       Gauss      10(-4) cm-1
     1  O(17)              0.00014      -0.08651      -0.03087      -0.02886
     2  H(1)              -0.00003      -0.11818      -0.04217      -0.03942
     3  O(17)             -0.00590       3.57457       1.27550       1.19235
     4  C(13)             -0.04402     -49.49225     -17.66007     -16.50884
     5  H(1)               0.05242     234.32664      83.61357      78.16295
     6  O(17)              0.13556     -82.17757     -29.32300     -27.41149
     7  C(13)              0.04733      53.21018      18.98671      17.74900
     8  H(1)               0.00067       2.99001       1.06691       0.99736
     9  C(13)             -0.00290      -3.25807      -1.16256      -1.08678
    10  H(1)               0.00019       0.84616       0.30193       0.28225
    11  H(1)               0.00008       0.37666       0.13440       0.12564
    12  H(1)               0.00011       0.47521       0.16957       0.15851
    13  C(13)             -0.00310      -3.48962      -1.24518      -1.16401
    14  H(1)               0.00006       0.28020       0.09998       0.09347
    15  H(1)               0.00089       3.99553       1.42570       1.33276
    16  H(1)               0.00029       1.29317       0.46143       0.43135
 --------------------------------------------------------
       Center         ----  Spin Dipole Couplings  ----
                      3XX-RR        3YY-RR        3ZZ-RR
 --------------------------------------------------------
     1   Atom        0.013109     -0.000610     -0.012499
     2   Atom       -0.000317      0.006673     -0.006355
     3   Atom       -0.016315      0.024671     -0.008355
     4   Atom        0.008354     -0.030967      0.022612
     5   Atom       -0.014272     -0.006856      0.021128
     6   Atom        1.081913     -1.121530      0.039617
     7   Atom        0.126564     -0.065564     -0.061000
     8   Atom        0.002499     -0.006213      0.003714
     9   Atom        0.004100     -0.008286      0.004186
    10   Atom        0.004634     -0.002935     -0.001699
    11   Atom        0.001290      0.002427     -0.003717
    12   Atom        0.009840     -0.007254     -0.002586
    13   Atom        0.005934     -0.002366     -0.003568
    14   Atom        0.001260      0.000022     -0.001283
    15   Atom        0.003465     -0.001091     -0.002374
    16   Atom        0.004476      0.001794     -0.006270
 --------------------------------------------------------
                        XY            XZ            YZ
 --------------------------------------------------------
     1   Atom        0.020749      0.004022     -0.003916
     2   Atom       -0.010240      0.002072     -0.002603
     3   Atom       -0.005516     -0.006951      0.011233
     4   Atom        0.038353      0.008180     -0.015378
     5   Atom        0.003506     -0.002194      0.006050
     6   Atom        1.273248      2.211809      1.009403
     7   Atom        0.002796     -0.019819     -0.001370
     8   Atom        0.004151     -0.006912     -0.006996
     9   Atom        0.005261      0.003975     -0.000131
    10   Atom        0.002364      0.000820      0.000583
    11   Atom        0.006065      0.000793      0.001814
    12   Atom        0.005423      0.007503      0.001661
    13   Atom       -0.005931     -0.003635      0.002095
    14   Atom       -0.004239     -0.003560      0.003242
    15   Atom       -0.002598     -0.001280      0.000485
    16   Atom       -0.009062     -0.000814      0.000503
 --------------------------------------------------------


 ---------------------------------------------------------------------------------
              Anisotropic Spin Dipole Couplings in Principal Axis System
 ---------------------------------------------------------------------------------

       Atom             a.u.   MegaHertz   Gauss  10(-4) cm-1        Axes

              Baa    -0.0198     1.433     0.511     0.478 -0.4764  0.6384  0.6046
     1 O(17)  Bbb    -0.0083     0.602     0.215     0.201  0.3371 -0.5025  0.7961
              Bcc     0.0281    -2.035    -0.726    -0.679  0.8121  0.5831  0.0242
 
              Baa    -0.0077    -4.097    -1.462    -1.367  0.8139  0.5434 -0.2057
     2 H(1)   Bbb    -0.0068    -3.654    -1.304    -1.219  0.0796  0.2463  0.9659
              Bcc     0.0145     7.751     2.766     2.585 -0.5756  0.8025 -0.1572
 
              Baa    -0.0204     1.474     0.526     0.492  0.8552 -0.0244  0.5177
     3 O(17)  Bbb    -0.0090     0.648     0.231     0.216 -0.4929 -0.3474  0.7977
              Bcc     0.0293    -2.121    -0.757    -0.708 -0.1604  0.9374  0.3091
 
              Baa    -0.0581    -7.803    -2.784    -2.603 -0.5077  0.8354  0.2105
     4 C(13)  Bbb     0.0262     3.512     1.253     1.171  0.2600 -0.0843  0.9619
              Bcc     0.0320     4.291     1.531     1.431  0.8214  0.5431 -0.1744
 
              Baa    -0.0162    -8.637    -3.082    -2.881  0.9010 -0.4167  0.1205
     5 H(1)   Bbb    -0.0062    -3.335    -1.190    -1.112  0.4320  0.8873 -0.1614
              Bcc     0.0224    11.971     4.272     3.993 -0.0397  0.1975  0.9795
 
              Baa    -1.7117   123.859    44.196    41.315 -0.5863 -0.1082  0.8028
     6 O(17)  Bbb    -1.7034   123.254    43.980    41.113 -0.3339  0.9352 -0.1179
              Bcc     3.4151  -247.113   -88.176   -82.428  0.7381  0.3372  0.5844
 
              Baa    -0.0660    -8.857    -3.160    -2.954  0.0217  0.9390  0.3432
     7 C(13)  Bbb    -0.0627    -8.411    -3.001    -2.806  0.1028 -0.3435  0.9335
              Bcc     0.1287    17.267     6.161     5.760  0.9945  0.0150 -0.1040
 
              Baa    -0.0099    -5.260    -1.877    -1.755 -0.0599  0.8994  0.4331
     8 H(1)   Bbb    -0.0035    -1.846    -0.659    -0.616  0.7999 -0.2163  0.5598
              Bcc     0.0133     7.106     2.536     2.370 -0.5971 -0.3800  0.7065
 
              Baa    -0.0104    -1.393    -0.497    -0.465 -0.3655  0.9245  0.1081
     9 C(13)  Bbb     0.0014     0.192     0.068     0.064 -0.5492 -0.3080  0.7769
              Bcc     0.0090     1.202     0.429     0.401  0.7515  0.2246  0.6203
 
              Baa    -0.0037    -1.959    -0.699    -0.654 -0.2534  0.9513 -0.1756
    10 H(1)   Bbb    -0.0018    -0.942    -0.336    -0.314 -0.1744  0.1336  0.9756
              Bcc     0.0054     2.902     1.035     0.968  0.9515  0.2778  0.1320
 
              Baa    -0.0048    -2.540    -0.906    -0.847  0.5035 -0.5854  0.6355
    11 H(1)   Bbb    -0.0035    -1.859    -0.663    -0.620 -0.5584  0.3408  0.7564
              Bcc     0.0082     4.399     1.570     1.467  0.6593  0.7357  0.1553
 
              Baa    -0.0089    -4.750    -1.695    -1.584 -0.3278  0.9337  0.1439
    12 H(1)   Bbb    -0.0059    -3.147    -1.123    -1.050 -0.3415 -0.2591  0.9035
              Bcc     0.0148     7.897     2.818     2.634  0.8809  0.2470  0.4038
 
              Baa    -0.0055    -0.738    -0.263    -0.246  0.3857  0.8908 -0.2404
    13 C(13)  Bbb    -0.0048    -0.643    -0.229    -0.214  0.3649  0.0920  0.9265
              Bcc     0.0103     1.381     0.493     0.461  0.8474 -0.4450 -0.2896
 
              Baa    -0.0039    -2.105    -0.751    -0.702  0.1180 -0.5497  0.8270
    14 H(1)   Bbb    -0.0036    -1.923    -0.686    -0.641  0.7413  0.6029  0.2949
              Bcc     0.0075     4.028     1.437     1.344  0.6607 -0.5783 -0.4786
 
              Baa    -0.0026    -1.414    -0.504    -0.472  0.2532  0.1233  0.9595
    15 H(1)   Bbb    -0.0022    -1.200    -0.428    -0.400  0.3645  0.9066 -0.2127
              Bcc     0.0049     2.614     0.933     0.872  0.8961 -0.4036 -0.1846
 
              Baa    -0.0064    -3.405    -1.215    -1.136  0.2900  0.2649  0.9196
    16 H(1)   Bbb    -0.0060    -3.181    -1.135    -1.061  0.5863  0.7103 -0.3895
              Bcc     0.0123     6.586     2.350     2.197  0.7564 -0.6522 -0.0507
 

 ---------------------------------------------------------------------------------

 Use density number 0.
 Entering OneElI...
 Calculate overlap and kinetic energy integrals
    NBasis = 187  MinDer = 2  MaxDer = 2
 Requested accuracy = 0.1000D-12
 PrsmSu:  NPrtUS=   1 ThrOK=F
 PRISM was handed   130760419 working-precision words and  2541 shell-pairs
 Entering OneElI...
 Calculate potential energy integrals
    NBasis = 187  MinDer = 2  MaxDer = 2
 Requested accuracy = 0.1000D-12
 PrsmSu:  NPrtUS=   8 ThrOK=T
 PRISM was handed    16301982 working-precision words and  2361 shell-pairs
 PRISM was handed    16301982 working-precision words and  2361 shell-pairs
 PRISM was handed    16301982 working-precision words and  2361 shell-pairs
 PRISM was handed    16301982 working-precision words and  2361 shell-pairs
 PRISM was handed    16301982 working-precision words and  2361 shell-pairs
 PRISM was handed    16301982 working-precision words and  2361 shell-pairs
 PRISM was handed    16301982 working-precision words and  2361 shell-pairs
 PRISM was handed    16301982 working-precision words and  2361 shell-pairs
 Polarizability after L701:
                1             2             3
      1  0.666929D+02
      2 -0.562726D+01  0.551756D+02
      3  0.675006D+00  0.986292D+00  0.522323D+02
 Dipole Derivatives after L701:
               1            2            3            4            5
      1-0.399861D+00 0.309932D-01 0.118147D+00 0.281033D+00-0.513978D-01
      2 0.167544D+00-0.404006D+00-0.184601D-01-0.140158D-01 0.362903D+00
      3-0.280798D-01-0.410550D-01-0.878871D-01-0.498664D-01 0.450627D-01
               6            7            8            9           10
      1-0.437681D-01-0.154571D+00 0.196133D+00-0.109501D+00 0.229503D-01
      2 0.422581D-01 0.567404D-01-0.633317D+00 0.203211D-02-0.746963D-01
      3 0.157919D+00 0.350478D-01 0.127104D+00-0.286182D+00 0.127994D+00
              11           12           13           14           15
      1-0.383919D+00 0.238040D+00 0.140126D+00 0.324058D-01-0.681305D-01
      2 0.100163D+01-0.656279D-01-0.566597D-01-0.246764D-01-0.600582D-01
      3-0.179582D+00 0.153129D+00-0.470214D-01 0.164696D-01 0.614211D-01
              16           17           18           19           20
      1-0.186382D+00 0.216005D+00-0.150234D+00 0.366870D+00-0.604208D-01
      2-0.811008D-01-0.431915D+00 0.103401D+00 0.435564D-02 0.102876D+00
      3-0.832387D-04-0.342058D-01-0.170314D+00-0.490838D-01 0.871548D-01
              21           22           23           24           25
      1 0.377555D-01-0.180150D-01-0.126773D-01-0.470932D-02-0.300787D-01
      2 0.228568D-01-0.923211D-02-0.955765D-02 0.379276D-01 0.143249D-01
      3 0.145410D+00 0.136409D-01 0.366782D-01-0.625307D-01-0.891622D-02
              26           27           28           29           30
      1 0.238570D-01 0.296802D-01-0.129557D+00 0.137840D-01-0.212926D-01
      2-0.353973D-01-0.357561D-01-0.909752D-02 0.798437D-01-0.189645D-01
      3-0.542598D-01-0.138031D-01-0.200092D-01-0.113072D-01 0.576516D-01
              31           32           33           34           35
      1 0.895995D-01 0.303027D-01 0.753499D-02 0.501357D-01-0.279631D-01
      2 0.502768D-01-0.695365D-01-0.136475D-01-0.440651D-01 0.210212D-01
      3 0.476632D-02-0.325677D-01 0.549992D-01 0.532201D-01 0.804483D-01
              36           37           38           39           40
      1 0.528982D-02-0.453458D-01-0.217442D-01-0.914640D-02 0.538898D-01
      2 0.303344D-01 0.406838D-01-0.208421D-01-0.141171D-01-0.368611D-01
      3-0.369468D-01-0.119103D-01 0.262931D-02 0.295872D-01-0.754437D-01
              41           42           43           44           45
      1-0.433973D-02-0.482569D-01-0.114495D+00 0.183162D-01-0.128072D-01
      2-0.513640D-02-0.888248D-01 0.359138D-01 0.389901D-01 0.189711D-02
      3-0.561894D-01-0.597170D-01-0.755776D-03-0.335782D-02 0.852106D-01
              46           47           48
      1 0.737002D-01 0.665024D-03 0.313985D-01
      2-0.441109D-01 0.271168D-01 0.747494D-01
      3 0.565007D-01 0.169780D-01-0.279468D-01
 Hessian after L701:
                1             2             3             4             5
      1  0.258632D+01
      2  0.206111D+01  0.116352D+02
      3  0.166791D+00  0.854875D+00  0.834672D+01
      4 -0.566980D+01  0.984049D-01 -0.179013D+01  0.595049D+01
      5  0.833837D-02 -0.665149D+01 -0.786196D-01  0.597281D-01  0.642688D+01
      6 -0.148547D+01 -0.248026D+00 -0.236563D+01  0.178212D+01  0.166256D+00
      7  0.299005D+01 -0.100096D+01  0.785892D+00 -0.339379D+00  0.948706D-01
      8 -0.104751D+01 -0.525622D+01  0.710479D-01  0.452181D-01  0.180517D+00
      9  0.673652D+00  0.957353D-01 -0.548771D+01 -0.296839D-01 -0.281488D-01
     10 -0.239019D+00 -0.295015D+00  0.239616D+00 -0.157384D-01  0.215052D-01
     11 -0.188201D+00  0.186136D+00 -0.159627D+00  0.278140D-01 -0.303844D-01
     12  0.272815D+00 -0.200083D+00  0.159493D-01 -0.308754D-01  0.212092D-01
     13 -0.114191D-01 -0.659423D-01  0.699602D-02 -0.540522D-02  0.124004D-02
     14 -0.101546D+00  0.501695D-01 -0.190271D-01 -0.268181D-02 -0.234195D-02
     15 -0.390909D-01  0.595390D-01 -0.901402D-01 -0.609769D-02  0.353243D-02
     16 -0.287907D+00 -0.356005D+00  0.298886D+00  0.205962D-01 -0.161272D+00
     17 -0.314504D+00  0.245649D+00 -0.572497D+00 -0.193390D+00  0.961873D-01
     18  0.230886D+00 -0.513200D+00 -0.518049D-01  0.757662D-01 -0.874411D-01
     19  0.426307D+00 -0.265584D+00  0.102651D+00  0.180407D-01 -0.993014D-02
     20 -0.268662D+00 -0.845182D-01 -0.448917D-01 -0.166680D-01 -0.626113D-02
     21  0.813087D-01 -0.283989D-01 -0.193435D+00  0.174724D-03  0.122040D-02
     22  0.315211D-01 -0.110717D-01 -0.848020D-02  0.494963D-02 -0.984252D-03
     23  0.670546D-03 -0.182305D-01  0.318787D-02  0.481362D-03 -0.116099D-02
     24 -0.267782D-01  0.871129D-02 -0.168294D-01 -0.478727D-02  0.480300D-03
     25  0.108758D+00 -0.444372D-01  0.123524D+00  0.186986D-01 -0.363394D-02
     26 -0.650277D-01 -0.890994D-01 -0.415454D-01 -0.948757D-02 -0.869659D-02
     27  0.699872D-01 -0.116172D-01 -0.751927D-01 -0.976066D-04  0.400474D-03
     28  0.218653D-01 -0.578579D-02  0.184853D-01  0.430871D-02 -0.124792D-03
     29 -0.305614D-02 -0.643061D-02 -0.122316D-02 -0.405545D-03 -0.722339D-03
     30  0.533524D-02 -0.734826D-03 -0.512741D-02  0.259089D-03 -0.807124D-04
     31  0.890572D-02  0.564722D-02  0.153192D-01  0.265153D-02  0.373753D-03
     32  0.254444D-01 -0.129647D-01  0.236305D-01  0.490377D-02 -0.125059D-02
     33  0.157355D-01  0.392431D-02 -0.622699D-02  0.151658D-02  0.257732D-03
     34  0.296825D-02 -0.556743D-02  0.117742D-01  0.993072D-03 -0.687850D-03
     35 -0.127134D-01 -0.465200D-02 -0.163324D-01 -0.280140D-02 -0.771341D-03
     36  0.228986D-01 -0.111764D-01  0.173883D-01  0.434077D-02 -0.645055D-03
     37  0.209751D-01 -0.844995D-01  0.200157D-01  0.713910D-02 -0.767230D-02
     38 -0.600566D-01 -0.147169D-01 -0.572855D-02 -0.562942D-02 -0.120864D-02
     39  0.108104D-01 -0.868042D-02 -0.723287D-01 -0.187580D-02  0.116349D-02
     40 -0.119143D-02 -0.824262D-02 -0.144360D-02 -0.111872D-03 -0.576712D-03
     41 -0.147398D-01  0.111462D-01 -0.288182D-03 -0.241286D-02  0.489648D-03
     42 -0.940082D-02  0.151062D-01 -0.114506D-01 -0.265774D-02  0.104786D-02
     43  0.135048D-01 -0.150436D-01  0.806164D-02  0.315463D-02 -0.938047D-03
     44 -0.618346D-02 -0.951857D-03 -0.177481D-02 -0.921044D-03 -0.128334D-03
     45  0.974779D-03 -0.813048D-03 -0.570278D-02 -0.114648D-03  0.101389D-03
     46 -0.184653D-02 -0.701467D-02  0.204651D-02 -0.590317D-03 -0.236055D-03
     47 -0.133612D-01  0.109540D-01 -0.111861D-01 -0.215267D-02  0.336272D-03
     48  0.954910D-02 -0.151619D-01  0.152409D-02  0.214593D-02 -0.733825D-03
                6             7             8             9            10
      6  0.205334D+01
      7 -0.142996D+00  0.430675D+01
      8 -0.979403D-02  0.412232D+01  0.420660D+01
      9  0.431967D+00 -0.189294D+01  0.213783D+01  0.139230D+02
     10 -0.727527D-01 -0.759379D+01 -0.221012D+01  0.553392D+00  0.206096D+02
     11  0.319377D-01 -0.226874D+01  0.859595D+00 -0.165903D+01  0.138485D+00
     12  0.242423D-01  0.563498D+00 -0.171069D+01 -0.895293D+01  0.241780D+01
     13  0.772817D-03  0.188183D+00  0.341974D-02  0.174686D-01 -0.446483D+01
     14  0.109373D-01 -0.247066D-01 -0.250351D+00  0.127564D+00  0.656745D+00
     15  0.125753D-01  0.360894D-02  0.149149D+00  0.347760D+00  0.885743D+00
     16 -0.327282D-02 -0.196128D+00 -0.135387D+00  0.139981D+00 -0.901349D+01
     17  0.118508D-01 -0.159681D+00  0.521601D+00 -0.462823D+00  0.244681D+01
     18 -0.130698D+00  0.160490D+00 -0.432185D+00  0.127208D+00 -0.420789D+01
     19 -0.276346D-01  0.107608D+00 -0.142543D+00  0.915717D-01 -0.184486D+00
     20  0.196259D-01 -0.187246D+00 -0.120592D+00 -0.777309D-01 -0.724157D+00
     21 -0.136116D-01  0.155297D+00 -0.124204D+00  0.331745D-01 -0.921859D-01
     22 -0.638222D-02  0.160047D+00 -0.107407D+00 -0.110465D-01 -0.101317D+00
     23 -0.207066D-02 -0.580241D-01 -0.708539D-01 -0.423474D-02 -0.843545D-01
     24  0.645343D-02 -0.877267D-01  0.370397D-01 -0.925670D-01  0.144983D+00
     25 -0.168918D-01  0.210819D+00 -0.159985D+00  0.263813D+00  0.415701D+00
     26  0.994962D-02 -0.243362D+00 -0.181219D+00 -0.119602D+00  0.291715D-01
     27 -0.463078D-02  0.227017D+00 -0.564520D-01 -0.149771D+00  0.962688D-01
     28 -0.718468D-02  0.582138D-01 -0.180929D-01  0.254702D-01  0.173111D+00
     29  0.333913D-03 -0.951328D-02 -0.154875D-01 -0.290767D-02  0.403805D-01
     30 -0.773248D-03  0.163214D-01 -0.380960D-02 -0.112242D-01  0.725060D-01
     31 -0.107478D-02  0.788099D-01 -0.841722D-02  0.122230D+00 -0.685477D-02
     32 -0.700280D-02  0.785537D-01 -0.103954D+00  0.519603D-01  0.217253D-01
     33 -0.253681D-02  0.139302D+00 -0.491505D-02 -0.126886D-01 -0.602359D-02
     34 -0.158210D-03 -0.281142D-02 -0.131734D-01  0.268578D-01 -0.170300D-01
     35  0.343640D-02 -0.316970D-01 -0.762813D-02 -0.355846D-01 -0.146684D-01
     36 -0.670583D-02  0.583312D-01 -0.355755D-01  0.385276D-01 -0.189888D-01
     37 -0.127919D-01  0.240334D-01 -0.268498D+00  0.146800D-01  0.307914D+00
     38  0.225971D-02 -0.235122D+00  0.161393D+00 -0.151472D-01  0.695268D-01
     39 -0.369911D-02  0.121744D-01 -0.154448D-01 -0.168621D+00  0.762295D-02
     40 -0.846807D-05 -0.981779D-02 -0.121669D-01 -0.253816D-02 -0.100281D-01
     41  0.449267D-02 -0.290775D-01  0.327913D-01  0.103387D-01 -0.231567D-01
     42  0.520377D-02 -0.196893D-01  0.328232D-01 -0.934825D-02 -0.239353D-01
     43 -0.659068D-02  0.259198D-01 -0.308346D-01  0.221859D-02  0.150282D+00
     44  0.138522D-02 -0.140956D-01  0.409615D-02 -0.989569D-03 -0.974189D-01
     45 -0.360077D-03  0.115347D-02 -0.826708D-03 -0.105612D-01 -0.295923D-02
     46  0.319419D-03 -0.850243D-02 -0.168214D-01  0.487156D-02 -0.999062D-02
     47  0.442815D-02 -0.335287D-01  0.397073D-01 -0.172374D-01  0.245433D-01
     48 -0.513454D-02  0.202659D-01 -0.339956D-01 -0.621927D-02  0.680876D-02
               11            12            13            14            15
     11  0.177820D+02
     12  0.450781D+01  0.202013D+02
     13  0.652815D+00  0.914104D+00  0.411489D+01
     14 -0.371127D+01  0.166608D+01 -0.524691D+00  0.365939D+01
     15  0.162973D+01 -0.252574D+01 -0.936788D+00 -0.203171D+01  0.229489D+01
     16  0.249775D+01 -0.421155D+01  0.176670D+00 -0.291369D-01 -0.124971D-01
     17 -0.948478D+01 -0.448002D+01 -0.732248D-02  0.197121D+00  0.177414D+00
     18 -0.450392D+01 -0.305320D+01  0.237674D-02  0.200429D+00 -0.128493D+00
     19 -0.656363D+00 -0.186109D+00 -0.542927D-01 -0.273985D-01 -0.104378D+00
     20 -0.560366D+01  0.578949D-01 -0.552855D-01  0.798100D-01 -0.397902D-01
     21  0.552440D-01 -0.575590D+01 -0.147492D+00 -0.327764D-01  0.160975D-01
     22 -0.132492D+00  0.165898D+00 -0.584392D-01 -0.370100D-01 -0.590326D-03
     23  0.125133D+00  0.336209D-01 -0.355833D-01  0.117741D-01  0.320783D-02
     24  0.587231D-01  0.877336D-01  0.479981D-03 -0.399891D-02  0.190782D-01
     25  0.390193D-01  0.118119D+00  0.860577D-01  0.817146D-01  0.140464D+00
     26  0.267181D-01  0.129642D-01  0.630741D-01 -0.224412D-01  0.555085D-01
     27  0.166712D-01  0.103766D-01  0.115596D+00  0.592801D-01  0.532911D-01
     28  0.367194D-01  0.799297D-01  0.436136D-02  0.631868D-02  0.972801D-02
     29 -0.443668D-01  0.140467D-01 -0.234095D-03 -0.308247D-03  0.811687D-03
     30  0.109358D-01 -0.219144D-01  0.124411D-03  0.100124D-02  0.398043D-04
     31 -0.418374D-02 -0.128204D-01  0.216919D-02  0.754085D-02  0.699855D-02
     32  0.170278D-01  0.734435D-02  0.126306D-01  0.114704D-01  0.182868D-01
     33 -0.509388D-02 -0.171474D-01  0.797239D-02  0.892017D-02  0.525642D-02
     34 -0.734156D-02 -0.299277D-01 -0.201759D-03  0.821230D-03  0.348971D-02
     35  0.601729D-02 -0.196971D-01 -0.846904D-03 -0.424387D-02 -0.250368D-02
     36 -0.161311D-01 -0.140468D-01  0.877583D-02  0.723347D-02  0.133323D-01
     37 -0.401504D-01 -0.401090D-01 -0.951832D-02  0.112338D-01  0.375074D-01
     38 -0.116027D+00  0.523159D-01 -0.844089D-03 -0.100870D-01 -0.792207D-02
     39  0.354998D-02  0.412174D-01  0.180431D-01 -0.972709D-03  0.288432D-02
     40 -0.125506D-01 -0.914427D-02  0.224334D-01 -0.237810D-01  0.442598D-02
     41  0.161022D-01  0.258526D-01 -0.392652D-01 -0.888158D-03 -0.992107D-02
     42  0.460236D-01  0.314355D-02 -0.130178D-01  0.744582D-03 -0.273344D-01
     43 -0.113314D+00 -0.557106D-02  0.149024D-01  0.258207D-02  0.131530D-01
     44  0.214973D-02 -0.353199D-05 -0.460256D-02 -0.328076D-02 -0.221017D-02
     45  0.117800D-02 -0.482684D-01  0.318418D-02 -0.112485D-04 -0.130940D-02
     46  0.307370D-01 -0.604807D-02 -0.556482D-02  0.399635D-02 -0.567635D-02
     47 -0.303977D-01  0.113568D-01  0.143750D-02 -0.453057D-02 -0.312586D-02
     48 -0.180081D-01  0.519132D-02  0.140399D-02  0.630693D-02  0.781934D-02
               16            17            18            19            20
     16  0.781760D+01
     17 -0.180196D+01  0.896480D+01
     18  0.420936D+01  0.503667D+01  0.400100D+01
     19  0.509152D+00 -0.478721D-01 -0.317232D-01  0.135177D+02
     20 -0.641951D-01 -0.487357D-01  0.192959D+00  0.124652D+01  0.153587D+02
     21  0.684356D-02  0.192953D+00 -0.255532D+00 -0.569255D+00 -0.912939D+00
     22  0.748598D-01  0.696662D-01 -0.112324D+00 -0.452535D+01  0.456140D+00
     23  0.706074D-01 -0.202641D-01 -0.589283D-01  0.349101D+00 -0.410431D+01
     24 -0.130607D+00 -0.612388D-01  0.613044D-01 -0.602136D+00 -0.115071D+01
     25  0.302789D+00  0.243390D+00 -0.645505D-02 -0.500341D+01  0.925698D+00
     26  0.220321D+00 -0.170455D+00  0.161931D-01  0.836761D+00 -0.442988D+01
     27 -0.813796D-01 -0.239499D-01 -0.255667D+00  0.142023D+01  0.184824D+01
     28  0.617377D-01  0.232407D-01 -0.638495D-02  0.801676D-02 -0.231177D-02
     29  0.142073D-01 -0.125346D-01 -0.134482D-02 -0.508934D-01  0.693090D-01
     30  0.182310D-02  0.143500D-02 -0.182683D-01 -0.901733D-01 -0.428260D-02
     31  0.130399D-02  0.262959D-01  0.236061D-02  0.846819D-01 -0.604011D-01
     32  0.731161D-01  0.412055D-01  0.161167D-03  0.129913D-01  0.357072D-01
     33  0.316565D-02  0.369928D-02 -0.275893D-01  0.202173D-01 -0.101698D+00
     34  0.873580D-01  0.574975D-01  0.658395D-01  0.133787D+00  0.590894D-02
     35  0.248880D-01 -0.718425D-01  0.125937D-01  0.756934D-02  0.131193D+00
     36  0.142545D+00  0.482567D-01 -0.267922D-01  0.169313D-01 -0.194631D-01
     37  0.317859D+00 -0.212059D+00 -0.306424D+00 -0.527244D+01 -0.135414D+01
     38 -0.139003D+00 -0.234209D+00  0.685633D-01 -0.129395D+01 -0.121119D+01
     39 -0.324753D+00  0.110237D+00 -0.151454D+00 -0.360938D-01  0.253232D+00
     40 -0.459965D-02 -0.154863D-01 -0.200764D-01  0.819647D-01  0.192616D-01
     41 -0.347680D-01 -0.389756D-02  0.350181D-01 -0.357572D-01 -0.442920D-01
     42 -0.542774D-01  0.344956D-01  0.300113D-01 -0.516794D-02 -0.252500D-01
     43  0.543624D-01 -0.140055D-01 -0.256597D-01  0.333587D-01  0.391154D-01
     44 -0.146599D-01 -0.129393D-01  0.556052D-02  0.991145D-01  0.140456D-01
     45 -0.119683D-01  0.214551D-02 -0.120585D-01  0.461955D-02 -0.827421D-03
     46  0.778443D-01 -0.100618D+00 -0.301373D-01  0.119343D+00  0.404222D-01
     47 -0.164496D+00 -0.691359D-02  0.288683D-01 -0.217649D-01 -0.353398D-01
     48  0.277089D-01 -0.186307D-01 -0.107965D+00 -0.355275D-02  0.563992D-02
               21            22            23            24            25
     21  0.167305D+02
     22 -0.746291D+00  0.426041D+01
     23 -0.108577D+01 -0.314708D+00  0.403962D+01
     24 -0.277650D+01  0.878587D+00  0.131441D+01  0.251676D+01
     25  0.151853D+01  0.111915D+00  0.254842D-03 -0.889607D-01  0.136312D+02
     26  0.180448D+01  0.624863D-02  0.116781D+00 -0.756825D-01 -0.552957D+00
     27 -0.253881D+01 -0.638383D-01 -0.917236D-01 -0.555858D-01 -0.121272D+01
     28 -0.533257D-01 -0.395493D-02 -0.851176D-02 -0.229106D-01 -0.154128D+01
     29 -0.115989D-01 -0.318258D-02  0.158955D-01 -0.645108D-02  0.744755D-01
     30  0.442219D-01 -0.296025D-01 -0.497190D-02 -0.317459D-01  0.819422D-01
     31 -0.198982D-01  0.121113D-01  0.834243D-03 -0.528541D-02 -0.415696D+01
     32 -0.611074D-01 -0.175594D-02 -0.425213D-02 -0.895250D-02 -0.925691D+00
     33  0.150222D-01  0.310474D-02 -0.218297D-01 -0.225462D-01 -0.106347D+00
     34 -0.599385D-01 -0.280206D-01 -0.193181D-03 -0.644894D-02 -0.416964D+01
     35 -0.793547D-01  0.137136D-02 -0.260600D-01 -0.227848D-01  0.363668D+00
     36 -0.656990D-01 -0.174946D-01 -0.273864D-01  0.133158D+00 -0.794442D+00
     37 -0.524246D-01  0.738988D-01  0.497002D-01 -0.354275D-01  0.378438D-01
     38  0.250507D+00  0.381818D-01 -0.726206D-01 -0.139202D-01 -0.627582D-01
     39 -0.550824D+01 -0.325586D-01  0.620861D-03  0.124801D+00 -0.368650D-01
     40  0.305560D-01  0.142552D-01 -0.275385D-03 -0.342119D-02 -0.446830D-01
     41 -0.582465D-01 -0.583556D-02 -0.415913D-01 -0.604347D-02  0.311344D-01
     42  0.927018D-01  0.288848D-02  0.348242D-02  0.723335D-02  0.235431D-01
     43 -0.221270D-01 -0.443277D-03  0.155892D-01  0.387669D-03  0.581702D-02
     44  0.129319D-01  0.211985D-01 -0.229210D-01  0.146472D-01 -0.103703D-01
     45  0.584122D-01 -0.832248D-02  0.128730D-01  0.796130D-02 -0.808817D-02
     46 -0.297689D-01 -0.264463D-01  0.144118D-01 -0.994836D-02 -0.135734D-01
     47  0.770574D-01  0.216409D-01  0.730569D-01 -0.842204D-01  0.476721D-03
     48  0.117552D+00 -0.135471D-01 -0.744867D-01  0.312933D-01  0.837287D-03
               26            27            28            29            30
     26  0.142622D+02
     27 -0.102402D+01  0.136955D+02
     28 -0.457737D-02 -0.734861D-02  0.127812D+01
     29 -0.410109D+01 -0.743995D-02 -0.105664D+00  0.398094D+01
     30 -0.756413D-02 -0.409620D+01 -0.158209D+00 -0.353559D-01  0.407773D+01
     31 -0.655895D+00 -0.433279D-01 -0.233470D-01  0.927474D-01  0.907783D-04
     32 -0.184525D+01  0.873156D-01  0.592802D-01  0.221759D-01  0.257731D-02
     33  0.231094D+00 -0.436057D+01  0.116685D-01 -0.758043D-02  0.596471D-01
     34  0.295884D+00 -0.559753D+00 -0.387243D-01 -0.603934D-01  0.993524D-01
     35 -0.382782D+01 -0.971299D+00 -0.327398D-01  0.627689D-01  0.186753D-01
     36 -0.112395D+01 -0.231606D+01  0.852016D-01  0.319026D-01  0.290293D-01
     37  0.586711D-01  0.299118D-01  0.141985D-01  0.136605D-01  0.152320D-02
     38  0.187529D+00  0.515740D-01  0.207898D-01  0.983221D-03 -0.374474D-02
     39  0.141539D+00  0.583885D-01  0.147247D-01  0.337281D-02 -0.226600D-01
     40  0.260955D-01  0.199468D-01  0.379025D-02  0.321958D-02  0.256550D-02
     41  0.831971D-01  0.113895D+00  0.897323D-02  0.275789D-02  0.428782D-02
     42  0.118423D+00  0.512415D-01  0.109278D-01  0.514774D-02  0.188822D-02
     43 -0.286857D-01 -0.110677D-01 -0.259794D-01 -0.803559D-02 -0.389681D-02
     44 -0.767286D-02  0.114276D-01  0.130775D-01  0.248705D-01  0.221102D-01
     45  0.166360D-01 -0.846595D-02  0.702952D-02  0.214565D-01 -0.286196D-02
     46  0.237640D-01  0.574293D-03  0.555657D-02  0.268756D-02  0.381083D-04
     47  0.722623D-02 -0.229452D-02  0.940888D-02  0.123894D-02 -0.478372D-03
     48 -0.144143D-01 -0.785067D-02 -0.780200D-02 -0.317008D-02 -0.178793D-02
               31            32            33            34            35
     31  0.396210D+01
     32  0.643447D+00  0.173234D+01
     33 -0.610133D-01 -0.282431D+00  0.435340D+01
     34  0.823850D-01  0.197670D-01 -0.179205D-01  0.398715D+01
     35 -0.248546D-01 -0.671002D-01  0.997761D-01 -0.277836D+00  0.379651D+01
     36  0.746899D-02  0.847701D-01  0.387400D-01  0.488848D+00  0.990498D+00
     37 -0.482908D-01 -0.169288D-01 -0.929911D-02 -0.194400D-01 -0.436618D-02
     38 -0.143207D-01  0.155568D+00  0.754860D-01 -0.136430D-01 -0.113373D-01
     39 -0.851403D-02  0.814161D-01 -0.190880D-01 -0.214935D-01 -0.585494D-05
     40 -0.289757D-03  0.303743D-02  0.877816D-03 -0.261536D-02 -0.272900D-03
     41 -0.278589D-02  0.560890D-03 -0.357632D-02 -0.111508D-02 -0.174426D-02
     42 -0.237453D-02  0.538333D-02 -0.224833D-03 -0.215673D-02  0.137316D-03
     43  0.292761D-02 -0.144948D-01 -0.312425D-02  0.436469D-02  0.154637D-02
     44 -0.423392D-02  0.879212D-02  0.353513D-02 -0.207544D-02 -0.279050D-02
     45 -0.151201D-02  0.388873D-02 -0.150048D-02 -0.229733D-02 -0.594888D-03
     46 -0.229952D-02  0.397347D-02  0.166976D-03 -0.205243D-01  0.375292D-02
     47 -0.179399D-02  0.992710D-02  0.431954D-03  0.214694D-02  0.295035D-01
     48  0.135293D-02 -0.724019D-02 -0.195083D-02  0.393340D-02  0.230404D-01
               36            37            38            39            40
     36  0.213678D+01
     37 -0.175786D-02  0.138787D+02
     38  0.139122D-01  0.108836D+01  0.122105D+02
     39  0.159126D-01  0.388272D+00 -0.393021D+00  0.146764D+02
     40  0.273325D-02 -0.387037D+01  0.345983D+00  0.602737D+00  0.376683D+01
     41  0.790579D-02  0.467670D+00 -0.352059D+01  0.107479D+01 -0.294015D+00
     42  0.114930D-01  0.736513D+00  0.963264D+00 -0.237073D+01 -0.568687D+00
     43 -0.129670D-01 -0.151706D+01 -0.171033D+00  0.810413D-01 -0.270042D-01
     44  0.327496D-02 -0.311321D+00 -0.400816D+01 -0.166055D-01 -0.362772D-01
     45  0.221613D-02  0.272204D-01 -0.690202D-02 -0.401400D+01 -0.850610D-01
     46  0.757574D-02 -0.394542D+01  0.433523D+00 -0.673272D+00  0.814308D-01
     47  0.465780D-01  0.610341D+00 -0.351581D+01 -0.123519D+01  0.604762D-02
     48 -0.727866D-02 -0.797409D+00 -0.103150D+01 -0.258882D+01  0.265374D-01
               41            42            43            44            45
     41  0.331712D+01
     42 -0.119524D+01  0.230172D+01
     43 -0.323096D-01 -0.520780D-01  0.130497D+01
     44  0.586745D-01 -0.844011D-02  0.415538D+00  0.388482D+01
     45 -0.154018D-01  0.316570D-01 -0.180400D-01 -0.562616D-01  0.396887D+01
     46  0.746004D-02 -0.204300D-01 -0.430784D-01 -0.467692D-01  0.941811D-01
     47  0.901678D-01  0.285112D-02 -0.456761D-01  0.613944D-01  0.233596D-01
     48  0.121402D-01 -0.117205D+00  0.562600D-01  0.114125D-01  0.359775D-01
               46            47            48
     46  0.379366D+01
     47 -0.393269D+00  0.326948D+01
     48  0.665508D+00  0.115880D+01  0.264485D+01
 ReadGW:  IGet=0 IStart=         114 Next=        7241 LGW=        7127.
 ICntrl=12127.
 Symmetry not used in FoFDir.
 MinBra= 0 MaxBra= 2 Meth= 1.
 IRaf=       0 NMat=   1 IRICut=       1 DoRegI=T DoRafI=F ISym2E= 0 JSym2E=0.
 PrsmSu:  NPrtUS=   8 ThrOK=T
 PRISM was handed    16287933 working-precision words and  2443 shell-pairs
 PRISM was handed    16287933 working-precision words and  2443 shell-pairs
 PRISM was handed    16287933 working-precision words and  2443 shell-pairs
 PRISM was handed    16287933 working-precision words and  2443 shell-pairs
 PRISM was handed    16287933 working-precision words and  2443 shell-pairs
 PRISM was handed    16287933 working-precision words and  2443 shell-pairs
 PRISM was handed    16287933 working-precision words and  2443 shell-pairs
 PRISM was handed    16287933 working-precision words and  2443 shell-pairs
 Pruned (  75, 302) grid will be used in CalDFT.
 CkSvGd:  ISavGI=        -1 IRadAn=       4 IRASav=       4 ISavGd=        -1.
 CalDSu:  NPrtUS=   8 ThrOK=T
 IPart= 0 IRanGd=          0 ScrnBf=T ScrnGd=T RCrit=4.00D+00 DoMicB=T.
 IPart= 2 IRanGd=          0 ScrnBf=T ScrnGd=T RCrit=4.00D+00 DoMicB=T.
 CutRad = 1000.00    CtRdIn =    0.00    XCrit =  15.00   ICut = 0
 IPart= 6 IRanGd=          0 ScrnBf=T ScrnGd=T RCrit=4.00D+00 DoMicB=T.
 IPart= 3 IRanGd=          0 ScrnBf=T ScrnGd=T RCrit=4.00D+00 DoMicB=T.
 IPart= 7 IRanGd=          0 ScrnBf=T ScrnGd=T RCrit=4.00D+00 DoMicB=T.
 CutRad = 1000.00    CtRdIn =    0.00    XCrit =  15.00   ICut = 0
 CutRad = 1000.00    CtRdIn =    0.00    XCrit =  15.00   ICut = 0
 IPart= 5 IRanGd=          0 ScrnBf=T ScrnGd=T RCrit=4.00D+00 DoMicB=T.
 IPart= 4 IRanGd=          0 ScrnBf=T ScrnGd=T RCrit=4.00D+00 DoMicB=T.
 CutRad = 1000.00    CtRdIn =    0.00    XCrit =  15.00   ICut = 0
 CutRad = 1000.00    CtRdIn =    0.00    XCrit =  15.00   ICut = 0
 CutRad = 1000.00    CtRdIn =    0.00    XCrit =  15.00   ICut = 0
 IPart= 1 IRanGd=          0 ScrnBf=T ScrnGd=T RCrit=4.00D+00 DoMicB=T.
 CutRad = 1000.00    CtRdIn =    0.00    XCrit =  15.00   ICut = 0
 CutRad = 1000.00    CtRdIn =    0.00    XCrit =  15.00   ICut = 0
 IPart= 3        14044 of        15874 points in      32 batches and       86 microbatches, Max-NSigAt=      16 Max-NSgAt2=      16
 IPart= 1        14008 of        15718 points in      32 batches and       97 microbatches, Max-NSigAt=      16 Max-NSgAt2=      16
 IPart= 2        13972 of        16138 points in      33 batches and       91 microbatches, Max-NSigAt=      16 Max-NSgAt2=      16
 IPart= 4        14345 of        16488 points in      34 batches and      102 microbatches, Max-NSigAt=      16 Max-NSgAt2=      16
 IPart= 5        13248 of        15686 points in      34 batches and       97 microbatches, Max-NSigAt=      16 Max-NSgAt2=      16
 IPart= 0        13656 of        15556 points in      32 batches and       86 microbatches, Max-NSigAt=      16 Max-NSgAt2=      16
 IPart= 7        13827 of        15444 points in      32 batches and      117 microbatches, Max-NSigAt=      16 Max-NSgAt2=      16
 IPart= 6        14950 of        17178 points in      35 batches and      100 microbatches, Max-NSigAt=      16 Max-NSgAt2=      16
 Polarizability after L703:
                1             2             3
      1  0.666929D+02
      2 -0.562726D+01  0.551756D+02
      3  0.675006D+00  0.986292D+00  0.522323D+02
 Dipole Derivatives after L703:
               1            2            3            4            5
      1-0.399861D+00 0.309932D-01 0.118147D+00 0.281033D+00-0.513978D-01
      2 0.167544D+00-0.404006D+00-0.184601D-01-0.140158D-01 0.362903D+00
      3-0.280798D-01-0.410550D-01-0.878871D-01-0.498664D-01 0.450627D-01
               6            7            8            9           10
      1-0.437681D-01-0.154571D+00 0.196133D+00-0.109501D+00 0.229503D-01
      2 0.422581D-01 0.567404D-01-0.633317D+00 0.203211D-02-0.746963D-01
      3 0.157919D+00 0.350478D-01 0.127104D+00-0.286182D+00 0.127994D+00
              11           12           13           14           15
      1-0.383919D+00 0.238040D+00 0.140126D+00 0.324058D-01-0.681305D-01
      2 0.100163D+01-0.656279D-01-0.566597D-01-0.246764D-01-0.600582D-01
      3-0.179582D+00 0.153129D+00-0.470214D-01 0.164696D-01 0.614211D-01
              16           17           18           19           20
      1-0.186382D+00 0.216005D+00-0.150234D+00 0.366870D+00-0.604208D-01
      2-0.811008D-01-0.431915D+00 0.103401D+00 0.435564D-02 0.102876D+00
      3-0.832387D-04-0.342058D-01-0.170314D+00-0.490838D-01 0.871548D-01
              21           22           23           24           25
      1 0.377555D-01-0.180150D-01-0.126773D-01-0.470932D-02-0.300787D-01
      2 0.228568D-01-0.923211D-02-0.955765D-02 0.379276D-01 0.143249D-01
      3 0.145410D+00 0.136409D-01 0.366782D-01-0.625307D-01-0.891622D-02
              26           27           28           29           30
      1 0.238570D-01 0.296802D-01-0.129557D+00 0.137840D-01-0.212926D-01
      2-0.353973D-01-0.357561D-01-0.909752D-02 0.798437D-01-0.189645D-01
      3-0.542598D-01-0.138031D-01-0.200092D-01-0.113072D-01 0.576516D-01
              31           32           33           34           35
      1 0.895995D-01 0.303027D-01 0.753499D-02 0.501357D-01-0.279631D-01
      2 0.502768D-01-0.695365D-01-0.136475D-01-0.440651D-01 0.210212D-01
      3 0.476632D-02-0.325677D-01 0.549992D-01 0.532201D-01 0.804483D-01
              36           37           38           39           40
      1 0.528982D-02-0.453458D-01-0.217442D-01-0.914640D-02 0.538898D-01
      2 0.303344D-01 0.406838D-01-0.208421D-01-0.141171D-01-0.368611D-01
      3-0.369468D-01-0.119103D-01 0.262931D-02 0.295872D-01-0.754437D-01
              41           42           43           44           45
      1-0.433973D-02-0.482569D-01-0.114495D+00 0.183162D-01-0.128072D-01
      2-0.513640D-02-0.888248D-01 0.359138D-01 0.389901D-01 0.189711D-02
      3-0.561894D-01-0.597170D-01-0.755776D-03-0.335782D-02 0.852106D-01
              46           47           48
      1 0.737002D-01 0.665024D-03 0.313985D-01
      2-0.441109D-01 0.271168D-01 0.747494D-01
      3 0.565007D-01 0.169780D-01-0.279468D-01
 Hessian after L703:
                1             2             3             4             5
      1  0.374396D+00
      2 -0.386814D-01  0.540431D-01
      3 -0.968443D-01 -0.316680D-01  0.553133D+00
      4 -0.694002D-01  0.696131D-03  0.857601D-01  0.110740D+00
      5 -0.320994D-02 -0.390371D-02  0.220790D-01 -0.150547D-02  0.503758D-02
      6  0.141835D+00  0.163480D-01 -0.502751D+00 -0.128231D+00 -0.171612D-01
      7 -0.272932D+00 -0.173867D-01  0.202025D-01 -0.394542D-01  0.140943D-02
      8  0.340660D-01 -0.445174D-01  0.784048D-03  0.171737D-02 -0.330401D-02
      9 -0.426379D-01  0.785135D-02 -0.476876D-01  0.394121D-01 -0.122946D-02
     10 -0.415351D-01  0.465787D-01 -0.667940D-02 -0.158692D-02  0.617790D-02
     11  0.821000D-02 -0.659279D-02  0.962054D-02 -0.435352D-03  0.335551D-02
     12 -0.551318D-02  0.195562D-02 -0.924457D-02  0.514087D-02 -0.278704D-02
     13  0.308083D-02  0.135114D-02  0.170648D-02 -0.591053D-03 -0.388736D-03
     14 -0.226854D-02  0.559159D-02  0.199549D-03  0.577476D-04 -0.106000D-02
     15  0.145769D-02  0.869348D-03  0.582815D-04 -0.274521D-04 -0.194446D-03
     16  0.360522D-02  0.561237D-02 -0.506397D-02  0.754447D-03 -0.297086D-02
     17 -0.531869D-02  0.240760D-02 -0.479318D-03 -0.130261D-02  0.533277D-03
     18  0.283347D-02  0.144893D-02  0.453685D-02 -0.148096D-02 -0.643826D-03
     19  0.439762D-02 -0.989433D-03  0.157201D-02 -0.928426D-03  0.940061D-03
     20  0.754447D-02 -0.759709D-02 -0.343423D-03  0.696092D-03 -0.624054D-03
     21 -0.136427D-02  0.333305D-02  0.437236D-03 -0.760682D-04 -0.101389D-03
     22  0.988529D-03 -0.514137D-03 -0.756110D-03  0.423767D-03 -0.198104D-03
     23 -0.547265D-03  0.158594D-03 -0.361184D-03  0.623876D-04 -0.186985D-04
     24  0.698290D-04 -0.390917D-03  0.636397D-03 -0.181741D-03  0.814544D-05
     25  0.774548D-04  0.507874D-03  0.474569D-04  0.249628D-03 -0.197947D-03
     26  0.182710D-03 -0.686712D-03 -0.116625D-03  0.761748D-04  0.264404D-03
     27  0.376042D-03 -0.481969D-03 -0.154880D-03 -0.717835D-04  0.738860D-04
     28 -0.232800D-03  0.138007D-03  0.545060D-04  0.762129D-04 -0.306049D-04
     29 -0.293651D-05  0.373477D-03  0.137614D-03 -0.633512D-04 -0.101575D-03
     30 -0.181022D-03  0.229838D-03  0.403798D-04  0.369249D-04 -0.848650D-04
     31  0.229172D-03  0.174238D-03  0.325777D-04 -0.169857D-03 -0.369916D-04
     32  0.191067D-03  0.417043D-03  0.286737D-03 -0.138217D-03 -0.349047D-04
     33  0.369434D-03  0.482740D-03  0.871871D-05  0.329254D-04 -0.420661D-05
     34 -0.110329D-03 -0.400616D-04 -0.458534D-04 -0.846717D-04  0.334609D-04
     35  0.132057D-03  0.227596D-03  0.162667D-04  0.245253D-04 -0.491978D-04
     36 -0.119732D-03  0.206144D-04  0.732231D-04 -0.510295D-04  0.203351D-04
     37 -0.243028D-02  0.245280D-02 -0.136551D-03  0.573822D-04 -0.106194D-03
     38 -0.164149D-02  0.684895D-03 -0.649017D-04  0.751187D-04  0.135669D-04
     39 -0.335777D-03  0.116246D-03  0.778341D-03 -0.218301D-03 -0.478683D-04
     40  0.665437D-04 -0.139949D-03 -0.280107D-04 -0.204655D-04  0.559895D-04
     41  0.100353D-03  0.118395D-03  0.128354D-03 -0.383304D-04 -0.421513D-04
     42  0.122770D-03  0.275151D-04 -0.218671D-04 -0.113618D-04 -0.417561D-04
     43 -0.134496D-03  0.253803D-03  0.112016D-03  0.137699D-04 -0.515851D-04
     44  0.105392D-02 -0.766584D-03 -0.170512D-05 -0.272776D-04 -0.181798D-05
     45 -0.205254D-04 -0.789176D-04  0.878388D-04 -0.212623D-04  0.445776D-04
     46 -0.656439D-04 -0.133900D-04  0.665932D-04 -0.798601D-04  0.795803D-04
     47  0.189710D-03  0.420618D-04 -0.216986D-03  0.105055D-03 -0.642257D-04
     48 -0.472530D-04 -0.634886D-04  0.690720D-04 -0.117986D-04  0.700556D-04
                6             7             8             9            10
      6  0.489643D+00
      7 -0.131612D-01  0.413237D+00
      8  0.390482D-02 -0.251595D-01  0.333230D+00
      9  0.133645D-01 -0.573059D-02 -0.402386D-01  0.935909D-01
     10  0.380526D-03 -0.737984D-01 -0.135031D-01  0.796097D-02  0.386905D+00
     11 -0.433834D-02  0.258304D-01 -0.185479D+00 -0.565379D-02  0.154209D-01
     12  0.231607D-02  0.577078D-02 -0.802931D-02 -0.356206D-01 -0.567631D-02
     13 -0.867428D-04 -0.274086D-03  0.727676D-02  0.200931D-02 -0.463232D-01
     14  0.371865D-03 -0.861111D-02 -0.449397D-01 -0.223489D-01 -0.300397D-01
     15  0.168064D-03  0.758054D-04  0.255203D-02  0.579710D-02 -0.774787D-01
     16 -0.484092D-03  0.200865D-02 -0.122682D-01  0.299747D-02 -0.671197D-01
     17 -0.659343D-03 -0.168366D-01 -0.532044D-01  0.588480D-01 -0.949550D-02
     18 -0.218090D-02  0.530922D-03  0.446599D-01 -0.283783D-01  0.768539D-01
     19 -0.145132D-03 -0.228138D-01  0.792525D-02 -0.403766D-02 -0.997294D-01
     20  0.142039D-02  0.367310D-01 -0.293800D-02  0.238248D-02 -0.217375D-01
     21 -0.485716D-03 -0.504791D-02 -0.460218D-02 -0.109050D-02  0.121455D-01
     22  0.388967D-03  0.177794D-02  0.187696D-02  0.464086D-03 -0.240729D-01
     23 -0.646336D-04  0.156331D-02 -0.530182D-03 -0.570722D-04  0.233509D-02
     24 -0.687380D-04 -0.568846D-03  0.488165D-03 -0.170516D-03 -0.166284D-02
     25  0.492649D-04 -0.309665D-03 -0.961040D-03 -0.139039D-02 -0.229569D-01
     26  0.224802D-04 -0.281358D-04 -0.444675D-03 -0.615725D-03 -0.388500D-02
     27  0.414677D-04 -0.128648D-02 -0.232947D-03  0.156019D-03 -0.210832D-02
     28 -0.404234D-04 -0.705994D-04 -0.281964D-03 -0.167572D-03  0.161454D-02
     29 -0.175436D-04  0.594120D-03  0.204626D-03  0.392893D-03 -0.115257D-02
     30 -0.512752D-04  0.383827D-03  0.190811D-04  0.175021D-03 -0.440494D-02
     31  0.265264D-04 -0.789821D-03  0.567683D-03 -0.308873D-04  0.663868D-03
     32  0.736210D-05  0.871497D-03  0.545857D-03  0.757618D-03 -0.321201D-04
     33  0.162736D-03 -0.421413D-03  0.106579D-03 -0.228441D-03  0.764340D-03
     34 -0.783050D-04 -0.338949D-03 -0.998001D-04  0.332988D-03  0.173194D-02
     35  0.768277D-04 -0.660499D-04 -0.253619D-03 -0.166080D-03  0.190811D-02
     36 -0.410066D-04 -0.205870D-03 -0.255197D-03  0.248202D-04 -0.446480D-03
     37 -0.389312D-03 -0.568978D-02 -0.493012D-03  0.620875D-03 -0.176691D-01
     38 -0.613156D-04 -0.183209D-03  0.305057D-03 -0.967632D-04  0.751086D-02
     39 -0.962812D-04 -0.469954D-03  0.258263D-03 -0.381810D-03  0.294455D-03
     40  0.194822D-04  0.107163D-03 -0.152456D-03  0.598818D-04  0.853785D-03
     41 -0.409037D-04 -0.278293D-03  0.535027D-03  0.277101D-03 -0.663046D-03
     42 -0.199845D-04 -0.270134D-04  0.389749D-03  0.197734D-03  0.784171D-04
     43 -0.665528D-04 -0.558924D-03  0.123169D-03  0.394501D-04  0.179800D-02
     44  0.140586D-03  0.145466D-02  0.370105D-03 -0.100755D-03  0.145639D-02
     45 -0.105837D-04  0.214598D-04  0.306668D-03  0.228494D-03 -0.178172D-03
     46 -0.164947D-04 -0.100519D-03 -0.634124D-03  0.978211D-04  0.122446D-02
     47  0.508881D-04  0.951316D-04  0.420361D-03 -0.229433D-05 -0.879435D-03
     48  0.977692D-05 -0.659391D-04 -0.111016D-03  0.231415D-04  0.157014D-03
               11            12            13            14            15
     11  0.466133D+00
     12  0.160374D-01  0.424635D+00
     13 -0.380223D-01 -0.578339D-01  0.694034D-01
     14 -0.938160D-01 -0.720119D-01  0.408624D-01  0.122734D+00
     15 -0.991938D-01 -0.165628D+00  0.656186D-01  0.995588D-01  0.207585D+00
     16 -0.243424D-01  0.835002D-01 -0.419610D-02 -0.195320D-02  0.847113D-02
     17 -0.951993D-01  0.644118D-01 -0.663275D-03  0.811736D-02 -0.116032D-02
     18  0.760053D-01 -0.163686D+00  0.133094D-01 -0.150542D-02 -0.513773D-01
     19  0.180919D-01 -0.267514D-01 -0.205728D-01 -0.136598D-02  0.231526D-02
     20 -0.756774D-01  0.413077D-02 -0.976780D-02  0.249388D-02 -0.312129D-02
     21  0.105091D-01 -0.467341D-01 -0.263448D-01 -0.521119D-02  0.198523D-02
     22 -0.214678D-01  0.247240D-01  0.305515D-02  0.159495D-02 -0.990116D-03
     23  0.386782D-03 -0.787063D-04 -0.314480D-03 -0.298938D-03  0.187261D-03
     24 -0.140538D-03 -0.116248D-02  0.629686D-03 -0.904456D-04  0.387743D-03
     25 -0.179027D-01 -0.239027D-01 -0.459795D-02  0.294597D-03  0.572817D-04
     26  0.144593D-02 -0.618921D-03  0.715079D-03  0.153171D-03  0.525752D-04
     27  0.928065D-03 -0.230710D-02  0.849370D-03  0.342308D-04  0.115670D-02
     28 -0.715085D-03 -0.183730D-02 -0.634512D-03  0.314479D-04  0.869670D-04
     29 -0.249962D-02 -0.224588D-02 -0.793502D-03  0.159983D-03 -0.269209D-04
     30 -0.400521D-02 -0.275782D-02 -0.781542D-03  0.989174D-04 -0.390392D-03
     31 -0.159758D-02  0.216408D-03  0.283882D-03  0.289822D-03 -0.982523D-04
     32 -0.181159D-02 -0.107006D-03  0.167565D-03  0.143264D-03 -0.711689D-04
     33 -0.525632D-03  0.113483D-02  0.211228D-03  0.416983D-04 -0.144372D-04
     34  0.136041D-02  0.525835D-03  0.734242D-04 -0.294381D-03  0.861870D-04
     35  0.869967D-03  0.146744D-02  0.359376D-05 -0.208907D-03  0.165312D-03
     36  0.799471D-03  0.111141D-02  0.389193D-03 -0.174031D-03 -0.191534D-03
     37  0.327360D-01  0.157824D-02  0.150745D-02  0.160481D-02  0.503804D-03
     38 -0.508348D-02 -0.135780D-02 -0.770043D-03  0.959421D-03 -0.377114D-03
     39 -0.103533D-02 -0.115667D-02 -0.540197D-03  0.933059D-03  0.191300D-03
     40  0.792736D-03  0.549007D-03 -0.344786D-03  0.331104D-03 -0.210287D-03
     41  0.203341D-03 -0.676101D-03  0.766770D-03  0.114754D-03  0.389241D-03
     42 -0.142957D-03  0.576546D-04  0.367221D-03 -0.237664D-03  0.376129D-03
     43  0.116673D-02 -0.785683D-04  0.254954D-03 -0.133127D-03  0.120522D-03
     44 -0.594344D-02 -0.543486D-03 -0.442102D-03 -0.305280D-03  0.349595D-03
     45  0.308701D-03 -0.373400D-03  0.338161D-03  0.198121D-03  0.158121D-03
     46  0.874186D-03 -0.412063D-03 -0.124501D-03 -0.400822D-03  0.115505D-04
     47 -0.291662D-03  0.453078D-03  0.189300D-04  0.161252D-03  0.209081D-04
     48  0.826999D-03 -0.583291D-03  0.158448D-03  0.143297D-03 -0.262051D-03
               16            17            18            19            20
     16  0.106930D+00
     17  0.454336D-01  0.131599D+00
     18 -0.117913D+00 -0.120601D+00  0.258612D+00
     19 -0.399327D-01 -0.189438D-01  0.317912D-01  0.434367D+00
     20 -0.691388D-02  0.538010D-02  0.867179D-04  0.179623D-01  0.515716D+00
     21  0.265702D-01 -0.522576D-03 -0.195688D-01 -0.317840D-01 -0.527153D-01
     22 -0.275756D-02  0.311256D-02  0.148712D-02 -0.703726D-01 -0.380360D-01
     23 -0.547090D-03 -0.230297D-04 -0.164293D-04 -0.397028D-01 -0.104877D+00
     24  0.361598D-03  0.653406D-03  0.986773D-03  0.679430D-01  0.102689D+00
     25  0.186198D-02  0.915909D-03 -0.564572D-02 -0.907288D-01 -0.189812D-01
     26  0.962848D-04 -0.191390D-03  0.112461D-03 -0.169191D-01 -0.102845D+00
     27 -0.170904D-02 -0.810398D-03  0.168935D-02 -0.322571D-01 -0.413721D-01
     28  0.151151D-03 -0.143681D-04 -0.184038D-03 -0.121022D-01  0.603547D-03
     29  0.301594D-03  0.350281D-03 -0.804443D-03 -0.159960D-01 -0.124895D-02
     30  0.160021D-02  0.102343D-02 -0.136547D-02 -0.274074D-01 -0.484455D-03
     31 -0.331266D-04  0.434297D-03  0.152347D-03  0.325205D-02 -0.138695D-01
     32  0.124686D-03  0.474230D-03 -0.736175D-04  0.415608D-02 -0.130627D-01
     33 -0.213097D-03  0.274822D-03 -0.134030D-03  0.982129D-02 -0.267207D-01
     34 -0.101762D-02 -0.254826D-03 -0.159052D-03  0.319092D-02  0.637872D-02
     35 -0.105995D-02 -0.365081D-03 -0.843224D-05  0.524571D-02  0.703702D-02
     36  0.470035D-03  0.450378D-03  0.640101D-04  0.889751D-02  0.122857D-01
     37  0.102217D-02  0.260678D-02 -0.154509D-02 -0.835702D-01  0.289401D-01
     38  0.219121D-03 -0.517285D-03  0.120498D-02  0.307098D-01 -0.188387D+00
     39 -0.205648D-03  0.705462D-03  0.269323D-03  0.106614D-02  0.390254D-03
     40 -0.128548D-03 -0.285991D-03  0.865412D-04  0.163239D-02  0.415492D-02
     41 -0.142783D-03 -0.966115D-05  0.335321D-04 -0.119339D-01 -0.130669D-01
     42  0.159474D-03  0.660239D-04  0.868451D-04  0.261707D-03  0.154699D-02
     43 -0.177443D-03  0.254589D-03 -0.122031D-03 -0.944718D-02  0.119267D-03
     44 -0.981108D-03  0.439111D-04  0.404023D-03  0.327393D-01 -0.230345D-02
     45  0.420166D-03 -0.803550D-03  0.311472D-03  0.262022D-03  0.280806D-03
     46 -0.971153D-03  0.357897D-03  0.469209D-05  0.335790D-02  0.617554D-02
     47 -0.608196D-03  0.604241D-03 -0.302921D-03 -0.119193D-01 -0.179998D-01
     48  0.103805D-02 -0.139709D-02  0.134509D-03 -0.154742D-02 -0.455474D-03
               21            22            23            24            25
     21  0.557810D+00
     22  0.679379D-01  0.817472D-01
     23  0.102685D+00  0.409048D-01  0.118098D+00
     24 -0.228971D+00 -0.701242D-01 -0.109192D+00  0.248220D+00
     25 -0.314805D-01  0.422865D-02  0.514751D-02  0.745193D-02  0.568735D+00
     26 -0.382115D-01  0.586232D-02  0.791628D-02  0.110745D-01 -0.224091D-01
     27 -0.158217D+00 -0.112824D-01 -0.155066D-01 -0.230024D-01 -0.333624D-01
     28  0.462812D-03  0.571945D-03  0.176524D-03 -0.228522D-03 -0.312725D+00
     29  0.101207D-02  0.577603D-03  0.484838D-03  0.407792D-03  0.420067D-02
     30  0.363428D-03  0.767567D-04  0.928488D-03  0.103604D-02  0.111300D-01
     31  0.437815D-03  0.145768D-03  0.541124D-03  0.381565D-03 -0.753982D-01
     32  0.906304D-03 -0.667073D-04  0.614764D-03 -0.144627D-03  0.789918D-01
     33 -0.137328D-03  0.673248D-03  0.388582D-03  0.727927D-03  0.232171D-02
     34 -0.135109D-01  0.394913D-04 -0.173008D-02 -0.250671D-02 -0.731490D-01
[...]
    Z7        0.04512   0.00000   0.00000  -0.00003  -0.00002   0.04510
    X8        3.46279   0.00000   0.00000  -0.00011  -0.00005   3.46274
    Y8        3.12685   0.00001   0.00000  -0.00015  -0.00015   3.12670
    Z8       -1.67044   0.00000   0.00000  -0.00004  -0.00002  -1.67046
    X9        3.90612   0.00000   0.00000  -0.00018  -0.00013   3.90599
    Y9        3.51653   0.00001   0.00000  -0.00003  -0.00005   3.51648
    Z9        2.38061   0.00000   0.00000  -0.00006  -0.00004   2.38057
   X10        5.97349   0.00000   0.00000  -0.00019  -0.00014   5.97335
   Y10        3.50047   0.00001   0.00000   0.00066   0.00056   3.50103
   Z10        2.32751   0.00000   0.00000  -0.00028  -0.00025   2.32727
   X11        3.26726  -0.00001   0.00000  -0.00083  -0.00070   3.26656
   Y11        5.47854   0.00000   0.00000  -0.00024  -0.00023   5.47831
   Z11        2.44582   0.00000   0.00000   0.00012   0.00013   2.44594
   X12        3.29618   0.00000   0.00000   0.00028   0.00027   3.29645
   Y12        2.56448   0.00000   0.00000  -0.00032  -0.00031   2.56417
   Z12        4.11411   0.00000   0.00000  -0.00006  -0.00005   4.11406
   X13        3.67019   0.00001   0.00000   0.00008  -0.00002   3.67017
   Y13       -0.63218   0.00001   0.00000  -0.00010  -0.00011  -0.63229
   Z13       -0.05801   0.00000   0.00000   0.00002   0.00004  -0.05797
   X14        2.99502   0.00001   0.00000   0.00024   0.00012   2.99514
   Y14       -1.56519   0.00000   0.00000  -0.00020  -0.00018  -1.56537
   Z14       -1.77693   0.00000   0.00000   0.00002   0.00003  -1.77691
   X15        5.73443   0.00001   0.00000   0.00011   0.00000   5.73443
   Y15       -0.75317   0.00001   0.00000   0.00016   0.00007  -0.75310
   Z15       -0.03318   0.00000   0.00000   0.00003   0.00006  -0.03311
   X16        2.93516   0.00001   0.00000   0.00025   0.00009   2.93525
   Y16       -1.66681   0.00000   0.00000  -0.00015  -0.00013  -1.66694
   Z16        1.57380   0.00000   0.00000   0.00006   0.00007   1.57387
         Item               Value     Threshold  Converged?
 Maximum Force            0.000016     0.000450     YES
 RMS     Force            0.000006     0.000300     YES
 Maximum Displacement     0.001020     0.001800     YES
 RMS     Displacement     0.000282     0.001200     YES
 Predicted change in Energy=-1.246674D-08
 Optimization completed.
    -- Stationary point found.
 GradGradGradGradGradGradGradGradGradGradGradGradGradGradGradGradGradGrad


 Test job not archived.
 1\1\GINC-NODE51\Freq\UBMK\CBSB7\C4H9O3(2)\NYEE\09-Jul-2014\0\\# freq n
 osymm bmk/cbsb7 iop(7/33=1)\\Title Card Required\\0,2\O,-1.782065,2.69
 002,-0.333497\H,-2.067044,2.654224,0.588144\O,-0.371741,2.585938,-0.20
 68\C,-0.053462,1.228019,-0.000224\H,-0.432257,0.633247,-0.860971\O,-0.
 618375,0.698476,1.078416\C,1.505999,1.135955,0.023876\H,1.83243,1.6546
 58,-0.883957\C,2.067028,1.860867,1.259766\H,3.161033,1.85237,1.231667\
 H,1.728961,2.89912,1.29427\H,1.744262,1.357064,2.177091\C,1.942183,-0.
 334535,-0.030696\H,1.584898,-0.828262,-0.940313\H,3.034529,-0.398561,-
 0.017556\H,1.553219,-0.882039,0.83282\\Version=AM64L-G03RevD.01\HF=-38
 3.2368337\S2=0.754035\S2-1=0.\S2A=0.750011\RMSD=3.041e-09\RMSF=6.214e-
 06\ZeroPoint=0.1323183\Thermal=0.1407484\Dipole=0.5132068,-0.4121397,0
 .1250312\DipoleDeriv=-0.3998606,0.1675438,-0.0280798,0.0309932,-0.4040
 06,-0.041055,0.1181474,-0.0184601,-0.0878871,0.281033,-0.0140158,-0.04
 98664,-0.0513978,0.3629033,0.0450627,-0.0437681,0.0422581,0.1579194,-0
 .1545707,0.0567404,0.0350478,0.196133,-0.6333166,0.1271036,-0.1095011,
 0.0020321,-0.2861818,0.0229503,-0.0746963,0.127994,-0.3839191,1.001632
 4,-0.1795818,0.2380399,-0.0656279,0.1531289,0.1401258,-0.0566597,-0.04
 70214,0.0324058,-0.0246764,0.0164696,-0.0681305,-0.0600582,0.0614211,-
 0.1863818,-0.0811008,-0.0000832,0.216005,-0.431915,-0.0342058,-0.15023
 42,0.1034008,-0.1703144,0.3668704,0.0043556,-0.0490838,-0.0604208,0.10
 28763,0.0871548,0.0377555,0.0228568,0.1454097,-0.018015,-0.0092321,0.0
 136409,-0.0126773,-0.0095576,0.0366782,-0.0047093,0.0379276,-0.0625307
 ,-0.0300787,0.0143249,-0.0089162,0.023857,-0.0353973,-0.0542598,0.0296
 802,-0.0357561,-0.0138031,-0.1295571,-0.0090975,-0.0200092,0.013784,0.
 0798437,-0.0113072,-0.0212926,-0.0189645,0.0576516,0.0895995,0.0502768
 ,0.0047663,0.0303027,-0.0695365,-0.0325677,0.007535,-0.0136475,0.05499
 92,0.0501357,-0.0440651,0.0532201,-0.0279631,0.0210212,0.0804483,0.005
 2898,0.0303344,-0.0369468,-0.0453458,0.0406838,-0.0119103,-0.0217442,-
 0.0208421,0.0026293,-0.0091464,-0.0141171,0.0295872,0.0538898,-0.03686
 11,-0.0754437,-0.0043397,-0.0051364,-0.0561894,-0.0482569,-0.0888248,-
 0.059717,-0.1144948,0.0359138,-0.0007558,0.0183162,0.0389901,-0.003357
 8,-0.0128072,0.0018971,0.0852106,0.0737002,-0.0441109,0.0565007,0.0006
 65,0.0271168,0.016978,0.0313985,0.0747494,-0.0279468\Polar=66.6929308,
 -5.6272622,55.1755768,0.6750059,0.9862916,52.2323276\PG=C01 [X(C4H9O3)
 ]\NImag=0\\0.37439571,-0.03868142,0.05404306,-0.09684429,-0.03166798,0
 .55313346,-0.06940017,0.00069613,0.08576009,0.11074042,-0.00320994,-0.
 00390371,0.02207902,-0.00150547,0.00503758,0.14183471,0.01634803,-0.50
 275090,-0.12823120,-0.01716116,0.48964280,-0.27293222,-0.01738670,0.02
 020245,-0.03945420,0.00140943,-0.01316123,0.41323723,0.03406599,-0.044
 51743,0.00078405,0.00171737,-0.00330401,0.00390482,-0.02515953,0.33322
 992,-0.04263789,0.00785135,-0.04768759,0.03941213,-0.00122946,0.013364
 47,-0.00573059,-0.04023864,0.09359092,-0.04153515,0.04657874,-0.006679
 40,-0.00158692,0.00617790,0.00038053,-0.07379844,-0.01350309,0.0079609
 7,0.38690513,0.00821000,-0.00659279,0.00962054,-0.00043535,0.00335551,
 -0.00433834,0.02583044,-0.18547890,-0.00565379,0.01542094,0.46613266,-
 0.00551318,0.00195562,-0.00924457,0.00514087,-0.00278704,0.00231607,0.
 00577078,-0.00802931,-0.03562056,-0.00567631,0.01603742,0.42463461,0.0
 0308083,0.00135114,0.00170648,-0.00059105,-0.00038874,-0.00008674,-0.0
 0027409,0.00727676,0.00200931,-0.04632325,-0.03802234,-0.05783389,0.06
 940338,-0.00226854,0.00559159,0.00019955,0.00005775,-0.00106000,0.0003
 7187,-0.00861111,-0.04493971,-0.02234888,-0.03003975,-0.09381600,-0.07
 201190,0.04086244,0.12273415,0.00145769,0.00086935,0.00005828,-0.00002
 745,-0.00019445,0.00016806,0.00007581,0.00255203,0.00579710,-0.0774787
 3,-0.09919380,-0.16562834,0.06561864,0.09955879,0.20758534,0.00360522,
 0.00561237,-0.00506397,0.00075445,-0.00297086,-0.00048409,0.00200865,-
 0.01226817,0.00299747,-0.06711972,-0.02434244,0.08350021,-0.00419610,-
 0.00195320,0.00847113,0.10693036,-0.00531869,0.00240760,-0.00047932,-0
 .00130261,0.00053328,-0.00065934,-0.01683659,-0.05320443,0.05884802,-0
 .00949550,-0.09519931,0.06441182,-0.00066327,0.00811736,-0.00116032,0.
 04543362,0.13159917,0.00283347,0.00144893,0.00453685,-0.00148096,-0.00
 064383,-0.00218090,0.00053092,0.04465990,-0.02837831,0.07685395,0.0760
 0533,-0.16368629,0.01330945,-0.00150542,-0.05137725,-0.11791275,-0.120
 60077,0.25861193,0.00439762,-0.00098943,0.00157201,-0.00092843,0.00094
 006,-0.00014513,-0.02281380,0.00792525,-0.00403766,-0.09972939,0.01809
 188,-0.02675137,-0.02057284,-0.00136598,0.00231526,-0.03993271,-0.0189
 4381,0.03179115,0.43436711,0.00754447,-0.00759709,-0.00034342,0.000696
 09,-0.00062405,0.00142039,0.03673102,-0.00293800,0.00238248,-0.0217375
 2,-0.07567740,0.00413077,-0.00976780,0.00249388,-0.00312129,-0.0069138
 8,0.00538010,0.00008672,0.01796229,0.51571586,-0.00136427,0.00333305,0
 .00043724,-0.00007607,-0.00010139,-0.00048572,-0.00504791,-0.00460218,
 -0.00109050,0.01214553,0.01050907,-0.04673407,-0.02634481,-0.00521119,
 0.00198523,0.02657024,-0.00052258,-0.01956881,-0.03178402,-0.05271530,
 0.55780993,0.00098853,-0.00051414,-0.00075611,0.00042377,-0.00019810,0
 .00038897,0.00177794,0.00187696,0.00046409,-0.02407289,-0.02146783,0.0
 2472402,0.00305515,0.00159495,-0.00099012,-0.00275756,0.00311256,0.001
 48712,-0.07037256,-0.03803596,0.06793795,0.08174719,-0.00054727,0.0001
 5859,-0.00036118,0.00006239,-0.00001870,-0.00006463,0.00156331,-0.0005
 3018,-0.00005707,0.00233509,0.00038678,-0.00007871,-0.00031448,-0.0002
 9894,0.00018726,-0.00054709,-0.00002303,-0.00001643,-0.03970280,-0.104
 87695,0.10268513,0.04090476,0.11809768,0.00006983,-0.00039092,0.000636
 40,-0.00018174,0.00000815,-0.00006874,-0.00056885,0.00048816,-0.000170
 52,-0.00166284,-0.00014054,-0.00116248,0.00062969,-0.00009045,0.000387
 74,0.00036160,0.00065341,0.00098677,0.06794297,0.10268864,-0.22897092,
 -0.07012420,-0.10919192,0.24822043,0.00007745,0.00050787,0.00004746,0.
 00024963,-0.00019795,0.00004926,-0.00030967,-0.00096104,-0.00139039,-0
 .02295686,-0.01790270,-0.02390268,-0.00459795,0.00029460,0.00005728,0.
 00186198,0.00091591,-0.00564572,-0.09072876,-0.01898125,-0.03148053,0.
 00422865,0.00514751,0.00745193,0.56873478,0.00018271,-0.00068671,-0.00
 011663,0.00007617,0.00026440,0.00002248,-0.00002814,-0.00044468,-0.000
 61573,-0.00388500,0.00144593,-0.00061892,0.00071508,0.00015317,0.00005
 258,0.00009628,-0.00019139,0.00011246,-0.01691906,-0.10284483,-0.03821
 146,0.00586232,0.00791628,0.01107449,-0.02240906,0.56459495,0.00037604
 ,-0.00048197,-0.00015488,-0.00007178,0.00007389,0.00004147,-0.00128648
 ,-0.00023295,0.00015602,-0.00210832,0.00092807,-0.00230710,0.00084937,
 0.00003423,0.00115670,-0.00170904,-0.00081040,0.00168935,-0.03225708,-
 0.04137209,-0.15821725,-0.01128245,-0.01550658,-0.02300238,-0.03336243
 ,-0.04016256,0.50563186,-0.00023280,0.00013801,0.00005451,0.00007621,-
 0.00003060,-0.00004042,-0.00007060,-0.00028196,-0.00016757,0.00161454,
 -0.00071508,-0.00183730,-0.00063451,0.00003145,0.00008697,0.00015115,-
 0.00001437,-0.00018404,-0.01210217,0.00060355,0.00046281,0.00057194,0.
 00017652,-0.00022852,-0.31272514,0.00313014,0.01031931,0.33902789,-0.0
 0000294,0.00037348,0.00013761,-0.00006335,-0.00010158,-0.00001754,0.00
 059412,0.00020463,0.00039289,-0.00115257,-0.00249962,-0.00224588,-0.00
 079350,0.00015998,-0.00002692,0.00030159,0.00035028,-0.00080444,-0.015
 99604,-0.00124895,0.00101207,0.00057760,0.00048484,0.00040779,0.004200
 67,-0.04867625,0.00059245,-0.00306069,0.04888003,-0.00018102,0.0002298
 4,0.00004038,0.00003692,-0.00008487,-0.00005128,0.00038383,0.00001908,
 0.00017502,-0.00440494,-0.00400521,-0.00275782,-0.00078154,0.00009892,
 -0.00039039,0.00160021,0.00102343,-0.00136547,-0.02740740,-0.00048445,
 0.00036343,0.00007676,0.00092849,0.00103604,0.01113002,0.00048300,-0.0
 4819911,-0.00931311,0.00220322,0.05120235,0.00022917,0.00017424,0.0000
 3258,-0.00016986,-0.00003699,0.00002653,-0.00078982,0.00056768,-0.0000
 3089,0.00066387,-0.00159758,0.00021641,0.00028388,0.00028982,-0.000098
 25,-0.00003313,0.00043430,0.00015235,0.00325205,-0.01386954,0.00043781
 ,0.00014577,0.00054112,0.00038156,-0.07539821,0.08139721,0.00348075,-0
 .00862789,0.03165539,0.00056112,0.07744223,0.00019107,0.00041704,0.000
 28674,-0.00013822,-0.00003490,0.00000736,0.00087150,0.00054586,0.00075
 762,-0.00003212,-0.00181159,-0.00010701,0.00016757,0.00014326,-0.00007
 117,0.00012469,0.00047423,-0.00007362,0.00415608,-0.01306267,0.0009063
 0,-0.00006671,0.00061476,-0.00014463,0.07899176,-0.29141667,-0.0055169
 0,-0.00073776,0.00186931,0.00034843,-0.08697132,0.31514596,0.00036943,
 0.00048274,0.00000872,0.00003293,-0.00000421,0.00016274,-0.00042141,0.
 00010658,-0.00022844,0.00076434,-0.00052563,0.00113483,0.00021123,0.00
 004170,-0.00001444,-0.00021310,0.00027482,-0.00013403,0.00982129,-0.02
 672068,-0.00013733,0.00067325,0.00038858,0.00072793,0.00232171,-0.0031
 1458,-0.04876541,0.00060285,-0.00140751,-0.00111942,-0.00148467,0.0078
 8751,0.05129357,-0.00011033,-0.00004006,-0.00004585,-0.00008467,0.0000
 3346,-0.00007831,-0.00033895,-0.00009980,0.00033299,0.00173194,0.00136
 041,0.00052584,0.00007342,-0.00029438,0.00008619,-0.00101762,-0.000254
 83,-0.00015905,0.00319092,0.00637872,-0.01351085,0.00003949,-0.0017300
 8,-0.00250671,-0.07314898,-0.03642137,0.06741415,-0.00841361,-0.015874
 10,0.02779125,0.00312244,0.00470001,-0.00992249,0.07499389,0.00013206,
 0.00022760,0.00001627,0.00002453,-0.00004920,0.00007683,-0.00006605,-0
 .00025362,-0.00016608,0.00190811,0.00086997,0.00146744,0.00000359,-0.0
 0020891,0.00016531,-0.00105995,-0.00036508,-0.00000843,0.00524571,0.00
 703702,-0.01564879,-0.00108947,-0.00134264,-0.00317327,-0.03677401,-0.
 10665523,0.10408699,0.00072412,-0.00034151,-0.00169060,-0.01109334,-0.
 01253971,0.02588029,0.04174321,0.11212019,-0.00011973,0.00002061,0.000
 07322,-0.00005103,0.00002034,-0.00004101,-0.00020587,-0.00025520,0.000
 02482,-0.00044648,0.00079947,0.00111141,0.00038919,-0.00017403,-0.0001
 9153,0.00047004,0.00045038,0.00006401,0.00889751,0.01228567,-0.0249068
 1,-0.00285398,-0.00329300,-0.00313000,0.06581353,0.10249487,-0.2279551
 5,-0.00029697,-0.00051445,0.00009443,-0.00088990,-0.00119604,0.0017108
 4,-0.07084493,-0.11080002,0.25130610,-0.00243028,0.00245280,-0.0001365
 5,0.00005738,-0.00010619,-0.00038931,-0.00568978,-0.00049301,0.0006208
 8,-0.01766910,0.03273600,0.00157824,0.00150745,0.00160481,0.00050380,0
 .00102217,0.00260678,-0.00154509,-0.08357016,0.02894007,0.00198002,0.0
 0382460,-0.00997934,-0.00124881,0.00462770,-0.01171888,-0.00004804,0.0
 0048568,-0.00085754,-0.00015691,-0.00100769,-0.00168438,-0.00272854,-0
 .00009919,0.00045518,0.00026436,0.57238027,-0.00164149,0.00068490,-0.0
 0006490,0.00007512,0.00001357,-0.00006132,-0.00018321,0.00030506,-0.00
 009676,0.00751086,-0.00508348,-0.00135780,-0.00077004,0.00095942,-0.00
 037711,0.00021912,-0.00051728,0.00120498,0.03070981,-0.18838672,-0.000
 23874,0.00579591,-0.01730308,-0.00181843,0.00342956,-0.02054614,-0.004
 75053,0.00062443,0.00075172,0.00103473,-0.00082128,-0.00011731,-0.0015
 9463,0.00050924,0.00165771,0.00127580,0.02975674,0.48411495,-0.0003357
 8,0.00011625,0.00077834,-0.00021830,-0.00004787,-0.00009628,-0.0004699
 5,0.00025826,-0.00038181,0.00029445,-0.00103533,-0.00115667,-0.0005402
 0,0.00093306,0.00019130,-0.00020565,0.00070546,0.00026932,0.00106614,0
 .00039025,-0.07995883,-0.00968863,0.02565532,0.00275728,0.00833863,-0.
 03041023,-0.00250323,0.00074691,0.00052810,0.00094195,-0.00233334,-0.0
 0324214,-0.00471087,0.00049915,-0.00062929,0.00127649,0.00149446,-0.00
 057394,0.58152068,0.00006654,-0.00013995,-0.00002801,-0.00002047,0.000
 05599,0.00001948,0.00010716,-0.00015246,0.00005988,0.00085378,0.000792
 74,0.00054901,-0.00034479,0.00033110,-0.00021029,-0.00012855,-0.000285
 99,0.00008654,0.00163239,0.00415492,0.00977554,0.00011455,-0.00056728,
 -0.00021469,-0.00030592,0.00145588,-0.00011768,0.00037376,0.00027578,0
 .00015117,0.00057906,0.00037967,0.00021979,-0.00009284,0.00001782,-0.0
 0020113,-0.07756022,-0.03823851,-0.07300382,0.08013910,0.00010035,0.00
 011840,0.00012835,-0.00003833,-0.00004215,-0.00004090,-0.00027829,0.00
 053503,0.00027710,-0.00066305,0.00020334,-0.00067610,0.00076677,0.0001
 1475,0.00038924,-0.00014278,-0.00000966,0.00003353,-0.01193386,-0.0130
 6693,-0.02762549,-0.00048931,0.00101178,0.00037837,0.00316441,-0.00605
 710,0.00130554,0.00004434,0.00016093,0.00032353,-0.00075429,-0.0007978
 0,-0.00181376,0.00016589,0.00009677,-0.00002040,-0.03738330,-0.0980427
 5,-0.09519033,0.04016990,0.10791172,0.00012277,0.00002752,-0.00002187,
 -0.00001136,-0.00004176,-0.00001998,-0.00002701,0.00038975,0.00019773,
 0.00007842,-0.00014296,0.00005765,0.00036722,-0.00023766,0.00037613,0.
 00015947,0.00006602,0.00008685,0.00026171,0.00154699,0.00007329,0.0003
 8924,-0.00031415,0.00070068,0.00033598,-0.00044900,0.00092736,-0.00008
 083,0.00012175,-0.00002550,-0.00029865,0.00000631,0.00011054,-0.000048
 29,0.00022194,0.00046248,-0.07273383,-0.09683254,-0.23315295,0.0807001
 5,0.10660286,0.24981872,-0.00013450,0.00025380,0.00011202,0.00001377,-
 0.00005159,-0.00006655,-0.00055892,0.00012317,0.00003945,0.00179800,0.
 00116673,-0.00007857,0.00025495,-0.00013313,0.00012052,-0.00017744,0.0
 0025459,-0.00012203,-0.00944718,0.00011927,-0.00029892,0.00042987,0.00
 021753,-0.00022658,0.00060863,-0.00097622,-0.00015254,0.00054181,0.000
 28103,0.00038819,0.00035107,0.00000963,-0.00008670,-0.00008194,0.00007
 465,0.00000037,-0.31282146,0.01211309,-0.00270650,-0.00934639,0.000463
 70,0.00066471,0.33877607,0.00105392,-0.00076658,-0.00000171,-0.0000272
 8,-0.00000182,0.00014059,0.00145466,0.00037011,-0.00010076,0.00145639,
 -0.00594344,-0.00054349,-0.00044210,-0.00030528,0.00034960,-0.00098111
 ,0.00004391,0.00040402,0.03273926,-0.00230345,-0.00065739,-0.00038496,
 0.00126359,0.00041057,0.00068992,0.00154695,0.00056616,-0.00066743,-0.
 00033495,-0.00036811,-0.00018704,0.00021366,0.00033385,-0.00010679,-0.
 00002817,-0.00005865,0.01112246,-0.04708882,0.00010329,-0.01461293,0.0
 0018190,0.00107197,-0.01476202,0.05267425,-0.00002053,-0.00007892,0.00
 008784,-0.00002126,0.00004458,-0.00001058,0.00002146,0.00030667,0.0002
 2849,-0.00017817,0.00030870,-0.00037340,0.00033816,0.00019812,0.000158
 12,0.00042017,-0.00080355,0.00031147,0.00026202,0.00028081,-0.00147233
 ,-0.00035944,-0.00011737,-0.00002591,0.00061770,-0.00002995,0.00012874
 ,-0.00008150,-0.00038132,0.00012333,-0.00010893,0.00011950,-0.00010146
 ,0.00014048,0.00004932,-0.00005962,-0.00301587,0.00005198,-0.04841345,
 -0.02816439,0.00227908,0.00040311,0.00356913,0.00027038,0.04751059,-0.
 00006564,-0.00001339,0.00006659,-0.00007986,0.00007958,-0.00001649,-0.
 00010052,-0.00063412,0.00009782,0.00122446,0.00087419,-0.00041206,-0.0
 0012450,-0.00040082,0.00001155,-0.00097115,0.00035790,0.00000469,0.003
 35790,0.00617554,-0.00940253,-0.00014445,0.00244010,0.00012536,-0.0002
 1735,-0.00055806,-0.00004378,-0.00003628,-0.00008545,0.00012546,-0.000
 04294,0.00003854,-0.00015991,0.00023602,-0.00024615,0.00007503,-0.0830
 5739,-0.04908935,0.07706244,0.00393282,0.00680785,-0.00987970,-0.01020
 635,-0.01634496,0.02658096,0.08629523,0.00018971,0.00004206,-0.0002169
 9,0.00010506,-0.00006423,0.00005089,0.00009513,0.00042036,-0.00000229,
 -0.00087943,-0.00029166,0.00045308,0.00001893,0.00016125,0.00002091,-0
 .00060820,0.00060424,-0.00030292,-0.01191935,-0.01799981,0.02708889,0.
 00252142,-0.00554078,-0.00115943,-0.00011621,0.00159733,0.00124664,0.0
 0003535,-0.00003233,-0.00005943,0.00027160,0.00035658,-0.00021507,-0.0
 0006955,-0.00022518,-0.00103535,-0.04745218,-0.11140175,0.10243915,0.0
 0636332,0.00768178,-0.01203703,0.00084577,0.00047814,-0.00249803,0.050
 59863,0.12421400,-0.00004725,-0.00006349,0.00006907,-0.00001180,0.0000
 7006,0.00000978,-0.00006594,-0.00011102,0.00002314,0.00015701,0.000827
 00,-0.00058329,0.00015845,0.00014330,-0.00026205,0.00103805,-0.0013970
 9,0.00013451,-0.00154742,-0.00045547,0.00087344,-0.00008645,-0.0008437
 3,0.00107767,-0.00038175,-0.00051082,0.00137300,-0.00004309,0.00000219
 ,-0.00006794,-0.00004448,0.00003172,0.00006222,0.00032646,0.00015209,0
 .00016031,0.07556120,0.10419922,-0.21736128,0.01037845,0.01364938,-0.0
 1999424,-0.00115601,-0.00192032,0.00150505,-0.08423542,-0.11377300,0.2
 3298061\\0.00000712,0.00001487,-0.00000072,0.00000735,0.00001632,0.000
 00232,0.00000850,0.00000641,-0.00000069,0.00000003,0.00000586,0.000000
 66,-0.00000372,0.00000655,0.00000091,-0.00000204,0.00000775,0.00000201
 ,-0.00000043,-0.00000353,0.00000056,0.00000189,-0.00000545,-0.00000168
 ,0.00000410,-0.00000502,-0.00000156,0.00000461,-0.00001163,-0.00000180
 ,0.00000991,-0.00000354,-0.00000172,0.00000200,-0.00000346,-0.00000016
 ,-0.00000794,-0.00000571,-0.00000024,-0.00001160,-0.00000436,0.0000006
 9,-0.00000869,-0.00001164,-0.00000010,-0.00001109,-0.00000342,0.000001
 51\\\@


 "WOULD YOU TELL ME PLEASE, WHICH WAY I OUGHT TO WALK FROM HERE?"
 "THAT DEPENDS A GREAT DEAL ON WHERE YOU WANT TO GO," SAID THE CAT.
 "I DON'T MUCH CARE WHERE -- ", SAID ALICE.
 "THEN IT DOESN'T MATTER WHICH WAY YOU WALK," SAID THE CAT.

                                      -- LEWIS CARROLL
 Job cpu time:  0 days  1 hours 47 minutes 11.7 seconds.
 File lengths (MBytes):  RWF=    125 Int=      0 D2E=      0 Chk=      8 Scr=      1
 Normal termination of Gaussian 03 at Wed Jul  9 00:05:03 2014.
