 Entering Gaussian System, Link 0=g03
 Input=TS18freq.gjf
 Output=TS18freq.log
 Initial command:
 /opt/g03/l1.exe /scratch/goldmanm/Gau-17186.inp -scrdir=/scratch/goldmanm/
 Entering Link 1 = /opt/g03/l1.exe PID=     17188.
  
 Copyright (c) 1988,1990,1992,1993,1995,1998,2003,2004, Gaussian, Inc.
                  All Rights Reserved.
  
 This is the Gaussian(R) 03 program.  It is based on the
 the Gaussian(R) 98 system (copyright 1998, Gaussian, Inc.),
 the Gaussian(R) 94 system (copyright 1995, Gaussian, Inc.),
 the Gaussian 92(TM) system (copyright 1992, Gaussian, Inc.),
 the Gaussian 90(TM) system (copyright 1990, Gaussian, Inc.),
 the Gaussian 88(TM) system (copyright 1988, Gaussian, Inc.),
 the Gaussian 86(TM) system (copyright 1986, Carnegie Mellon
 University), and the Gaussian 82(TM) system (copyright 1983,
 Carnegie Mellon University). Gaussian is a federally registered
 trademark of Gaussian, Inc.
  
 This software contains proprietary and confidential information,
 including trade secrets, belonging to Gaussian, Inc.
  
 This software is provided under written license and may be
 used, copied, transmitted, or stored only in accord with that
 written license.
  
 The following legend is applicable only to US Government
 contracts under FAR:
  
                    RESTRICTED RIGHTS LEGEND
  
 Use, reproduction and disclosure by the US Government is
 subject to restrictions as set forth in subparagraphs (a)
 and (c) of the Commercial Computer Software - Restricted
 Rights clause in FAR 52.227-19.
  
 Gaussian, Inc.
 340 Quinnipiac St., Bldg. 40, Wallingford CT 06492
  
  
 ---------------------------------------------------------------
 Warning -- This program may not be used in any manner that
 competes with the business of Gaussian, Inc. or will provide
 assistance to any competitor of Gaussian, Inc.  The licensee
 of this program is prohibited from giving any competitor of
 Gaussian, Inc. access to this program.  By using this program,
 the user acknowledges that Gaussian, Inc. is engaged in the
 business of creating and licensing software in the field of
 computational chemistry and represents and warrants to the
 licensee that it is not a competitor of Gaussian, Inc. and that
 it will not use this program in any manner prohibited above.
 ---------------------------------------------------------------
  

 Cite this work as:
 Gaussian 03, Revision D.01,
 M. J. Frisch, G. W. Trucks, H. B. Schlegel, G. E. Scuseria, 
 M. A. Robb, J. R. Cheeseman, J. A. Montgomery, Jr., T. Vreven, 
 K. N. Kudin, J. C. Burant, J. M. Millam, S. S. Iyengar, J. Tomasi, 
 V. Barone, B. Mennucci, M. Cossi, G. Scalmani, N. Rega, 
 G. A. Petersson, H. Nakatsuji, M. Hada, M. Ehara, K. Toyota, 
 R. Fukuda, J. Hasegawa, M. Ishida, T. Nakajima, Y. Honda, O. Kitao, 
 H. Nakai, M. Klene, X. Li, J. E. Knox, H. P. Hratchian, J. B. Cross, 
 V. Bakken, C. Adamo, J. Jaramillo, R. Gomperts, R. E. Stratmann, 
 O. Yazyev, A. J. Austin, R. Cammi, C. Pomelli, J. W. Ochterski, 
 P. Y. Ayala, K. Morokuma, G. A. Voth, P. Salvador, J. J. Dannenberg, 
 V. G. Zakrzewski, S. Dapprich, A. D. Daniels, M. C. Strain, 
 O. Farkas, D. K. Malick, A. D. Rabuck, K. Raghavachari, 
 J. B. Foresman, J. V. Ortiz, Q. Cui, A. G. Baboul, S. Clifford, 
 J. Cioslowski, B. B. Stefanov, G. Liu, A. Liashenko, P. Piskorz, 
 I. Komaromi, R. L. Martin, D. J. Fox, T. Keith, M. A. Al-Laham, 
 C. Y. Peng, A. Nanayakkara, M. Challacombe, P. M. W. Gill, 
 B. Johnson, W. Chen, M. W. Wong, C. Gonzalez, and J. A. Pople, 
 Gaussian, Inc., Wallingford CT, 2004.
 
 ******************************************
 Gaussian 03:  AM64L-G03RevD.01 13-Oct-2005
                26-Jun-2019 
 ******************************************
 %chk=input.chk
 %mem=1500mb
 %nproc=8
 Will use up to    8 processors via shared memory.
 -------------------------------------
 # freq nosymm b3lyp/cbsb7 iop(7/33=1)
 -------------------------------------
 1/10=4,30=1,38=1/1,3;
 2/15=1,17=6,18=5,40=1/2;
 3/5=4,6=6,7=700,11=2,16=1,25=1,30=1,74=-5/1,2,3;
 4//1;
 5/5=2,38=5/2;
 8/6=4,10=90,11=11/1;
 11/6=1,8=1,9=11,15=111,16=1,31=1/1,2,10;
 10/6=1,31=1/2;
 6/7=2,8=2,9=2,10=2,18=1,28=1/1;
 7/8=1,10=1,25=1,30=1,33=1/1,2,3,16;
 1/10=4,30=1/3;
 99//99;
 -------
 NBO NRT
 -------
 Symbolic Z-matrix:
 Charge =  0 Multiplicity = 2
 O                    -0.17565  -0.12891   0.17221 
 O                     2.20071   0.2847    1.98555 
 O                     1.8334    0.91903   0.44001 
 C                     2.49899   0.7889   -2.42886 
 C                     0.16147  -0.07929  -2.72867 
 C                     1.1654    0.7778   -1.97199 
 C                     1.13798   0.02635  -0.20534 
 H                    -0.42128   0.67488   0.65043 
 H                    -0.10562   0.41259  -3.66854 
 H                     2.89505  -0.0399   -3.00623 
 H                     3.19681   1.55208  -2.10898 
 H                     3.11641   0.59583   1.95511 
 H                     0.58343  -1.05849  -2.9724 
 H                    -0.7488   -0.23025  -2.14946 
 H                     0.77564   1.75256  -1.68125 
 H                     1.57496  -0.95503  -0.38817 
 

 GradGradGradGradGradGradGradGradGradGradGradGradGradGradGradGradGradGrad
 Berny optimization.
 Initialization pass.
 Trust Radius=3.00D-01 FncErr=1.00D-07 GrdErr=1.00D-07
 Number of steps in this run=   2 maximum allowed number of steps=   2.
 GradGradGradGradGradGradGradGradGradGradGradGradGradGradGradGradGradGrad

                          Input orientation:                          
 ---------------------------------------------------------------------
 Center     Atomic     Atomic              Coordinates (Angstroms)
 Number     Number      Type              X           Y           Z
 ---------------------------------------------------------------------
    1          8             0       -0.175650   -0.128910    0.172210
    2          8             0        2.200710    0.284700    1.985550
    3          8             0        1.833400    0.919030    0.440010
    4          6             0        2.498990    0.788900   -2.428860
    5          6             0        0.161470   -0.079290   -2.728670
    6          6             0        1.165400    0.777800   -1.971990
    7          6             0        1.137980    0.026350   -0.205340
    8          1             0       -0.421280    0.674880    0.650430
    9          1             0       -0.105620    0.412590   -3.668540
   10          1             0        2.895050   -0.039900   -3.006230
   11          1             0        3.196810    1.552080   -2.108980
   12          1             0        3.116410    0.595830    1.955110
   13          1             0        0.583430   -1.058490   -2.972400
   14          1             0       -0.748800   -0.230250   -2.149460
   15          1             0        0.775640    1.752560   -1.681250
   16          1             0        1.574960   -0.955030   -0.388170
 ---------------------------------------------------------------------
                    Distance matrix (angstroms):
                    1          2          3          4          5
     1  O    0.000000
     2  O    3.017675   0.000000
     3  O    2.281705   1.710551   0.000000
     4  C    3.842088   4.453112   2.947941   0.000000
     5  C    2.920825   5.149258   3.719210   2.511501   0.000000
     6  C    2.686658   4.120332   2.506774   1.409722   1.521527
     7  C    1.375599   2.448701   1.302675   2.716224   2.707753
     8  H    0.967009   2.968100   2.277601   4.245351   3.510938
     9  H    3.879367   6.107720   4.571265   2.909022   1.093910
    10  H    4.420362   5.050281   3.731383   1.084956   2.747918
    11  H    4.404888   4.400414   2.959221   1.082460   3.501239
    12  H    3.813350   0.967592   2.011492   4.431442   5.579001
    13  H    3.365842   5.385260   4.137336   2.716184   1.093749
    14  H    2.393517   5.105202   3.833270   3.415387   1.089433
    15  H    2.807169   4.198912   2.512643   2.111278   2.197719
    16  H    2.015226   2.750098   2.065133   2.838933   2.871030
                    6          7          8          9         10
     6  C    0.000000
     7  C    1.920021   0.000000
     8  H    3.066795   1.893205   0.000000
     9  H    2.151082   3.699929   4.338426   0.000000
    10  H    2.174851   3.307063   4.987997   3.106030   0.000000
    11  H    2.178280   3.192253   4.634048   3.825795   1.852165
    12  H    4.388812   2.984298   3.771431   6.483864   5.006800
    13  H    2.170592   3.023413   4.139917   1.767336   2.526313
    14  H    2.170673   2.721284   2.960729   1.770460   3.748057
    15  H    1.089312   2.299870   2.833857   2.553715   3.075774
    16  H    2.383050   1.089718   2.778538   3.931356   3.071537
                   11         12         13         14         15
    11  H    0.000000
    12  H    4.175848   0.000000
    13  H    3.793458   5.782138   0.000000
    14  H    4.329686   5.698224   1.771454   0.000000
    15  H    2.466822   4.476644   3.099357   2.544538   0.000000
    16  H    3.446329   3.205027   2.769852   3.004548   3.105159
                   16
    16  H    0.000000
 Symmetry turned off by external request.
 Stoichiometry    C4H9O3(2)
 Framework group  C1[X(C4H9O3)]
 Deg. of freedom    42
 Full point group                 C1
 Rotational constants (GHZ):      4.1342631      1.6349746      1.2517789
 Standard basis: CBSB7 (5D, 7F)
 Integral buffers will be    131072 words long.
 Raffenetti 2 integral format.
 Two-electron integral symmetry is turned off.
   180 basis functions,   296 primitive gaussians,   187 cartesian basis functions
    29 alpha electrons       28 beta electrons
       nuclear repulsion energy       319.1970134640 Hartrees.
 NAtoms=   16 NActive=   16 NUniq=   16 SFac= 7.50D-01 NAtFMM=   80 NAOKFM=F Big=F
 One-electron integrals computed using PRISM.
 NBasis=   180 RedAO= T  NBF=   180
 NBsUse=   180 1.00D-06 NBFU=   180
 Harris functional with IExCor=  402 diagonalized for initial guess.
 ExpMin= 1.03D-01 ExpMax= 8.59D+03 ExpMxC= 1.30D+03 IAcc=1 IRadAn=         1 AccDes= 1.00D-06
 HarFok:  IExCor= 402 AccDes= 1.00D-06 IRadAn=         1 IDoV=1
 ScaDFX=  1.000000  1.000000  1.000000  1.000000
 <S**2> of initial guess= 0.7500
 Requested convergence on RMS density matrix=1.00D-08 within 128 cycles.
 Requested convergence on MAX density matrix=1.00D-06.
 Requested convergence on             energy=1.00D-06.
 No special actions if energy rises.
 Integral accuracy reduced to 1.0D-05 until final iterations.
 Initial convergence to 1.0D-05 achieved.  Increase integral accuracy.
 SCF Done:  E(UB+HF-LYP) =  -383.438989531     A.U. after   23 cycles
             Convg  =    0.4305D-08             -V/T =  2.0033
             S**2   =   0.8205
 Annihilation of the first spin contaminant:
 S**2 before annihilation     0.8205,   after     0.7509
 Range of M.O.s used for correlation:     1   180
 NBasis=   180 NAE=    29 NBE=    28 NFC=     0 NFV=     0
 NROrb=    180 NOA=    29 NOB=    28 NVA=   151 NVB=   152
 Symmetrizing basis deriv contribution to polar:
 IMax=3 JMax=2 DiffMx= 0.00D+00
 G2DrvN: will do   17 centers at a time, making    1 passes doing MaxLOS=2.
 FoFDir/FoFCou used for L=0 through L=2.
 DoAtom=TTTTTTTTTTTTTTTT
          Differentiating once with respect to electric field.
                with respect to dipole field.
          Differentiating once with respect to nuclear coordinates.
 Symmetry not used in FoFDir.
 MinBra= 0 MaxBra= 2 Meth= 1.
 IRaf=       0 NMat=  51 IRICut=      51 DoRegI=T DoRafI=T ISym2E= 0 JSym2E=0.
          There are  51 degrees of freedom in the 1st order CPHF.
    48 vectors were produced by pass  0.
 AX will form  48 AO Fock derivatives at one time.
    48 vectors were produced by pass  1.
    48 vectors were produced by pass  2.
    48 vectors were produced by pass  3.
    48 vectors were produced by pass  4.
    48 vectors were produced by pass  5.
    27 vectors were produced by pass  6.
     6 vectors were produced by pass  7.
     3 vectors were produced by pass  8.
 Inv2:  IOpt= 1 Iter= 1 AM= 2.97D-15 Conv= 1.00D-12.
 Inverted reduced A of dimension  324 with in-core refinement.
 Isotropic polarizability for W=    0.000000       80.35 Bohr**3.
 End of Minotr Frequency-dependent properties file   721 does not exist.

 **********************************************************************

            Population analysis using the SCF density.

 **********************************************************************

 Alpha  occ. eigenvalues --  -19.16366 -19.14652 -19.13392 -10.29165 -10.20315
 Alpha  occ. eigenvalues --  -10.18742 -10.17108  -1.09927  -1.02865  -0.94227
 Alpha  occ. eigenvalues --   -0.80620  -0.69717  -0.65572  -0.58584  -0.52097
 Alpha  occ. eigenvalues --   -0.50328  -0.48561  -0.47104  -0.44190  -0.42903
 Alpha  occ. eigenvalues --   -0.40685  -0.38966  -0.37841  -0.36449  -0.35517
 Alpha  occ. eigenvalues --   -0.31740  -0.29710  -0.27425  -0.20281
 Alpha virt. eigenvalues --   -0.08670   0.04130   0.05229   0.06446   0.07711
 Alpha virt. eigenvalues --    0.08754   0.09152   0.10777   0.11910   0.13284
 Alpha virt. eigenvalues --    0.14114   0.20953   0.22296   0.25071   0.27547
 Alpha virt. eigenvalues --    0.30987   0.31870   0.34233   0.36056   0.39158
 Alpha virt. eigenvalues --    0.40244   0.41635   0.43312   0.45576   0.45889
 Alpha virt. eigenvalues --    0.53071   0.54177   0.55408   0.55791   0.57658
 Alpha virt. eigenvalues --    0.57908   0.59448   0.60113   0.61914   0.65754
 Alpha virt. eigenvalues --    0.66303   0.68171   0.73656   0.78282   0.82137
 Alpha virt. eigenvalues --    0.82484   0.85613   0.87206   0.87315   0.91938
 Alpha virt. eigenvalues --    0.94141   0.95303   0.99992   1.04427   1.07633
 Alpha virt. eigenvalues --    1.08551   1.16103   1.20972   1.22131   1.31436
 Alpha virt. eigenvalues --    1.32128   1.34589   1.35532   1.36747   1.40566
 Alpha virt. eigenvalues --    1.43328   1.44877   1.46584   1.46855   1.49310
 Alpha virt. eigenvalues --    1.52546   1.53466   1.54871   1.57133   1.59989
 Alpha virt. eigenvalues --    1.60879   1.63669   1.66701   1.67658   1.71286
 Alpha virt. eigenvalues --    1.75906   1.78040   1.80700   1.83192   1.88023
 Alpha virt. eigenvalues --    1.91658   1.93401   1.97200   1.97878   2.03717
 Alpha virt. eigenvalues --    2.06681   2.10247   2.11950   2.13714   2.15721
 Alpha virt. eigenvalues --    2.27687   2.29796   2.35041   2.38015   2.41002
 Alpha virt. eigenvalues --    2.42671   2.45887   2.48328   2.50021   2.52226
 Alpha virt. eigenvalues --    2.56072   2.58280   2.60599   2.63745   2.66942
 Alpha virt. eigenvalues --    2.68504   2.74840   2.75384   2.78521   2.84384
 Alpha virt. eigenvalues --    2.88103   2.90396   2.91778   2.94445   3.04287
 Alpha virt. eigenvalues --    3.06764   3.11235   3.12366   3.13365   3.14060
 Alpha virt. eigenvalues --    3.18618   3.32223   3.37675   3.44326   3.48676
 Alpha virt. eigenvalues --    3.53260   3.71241   3.73832   3.77228   3.79130
 Alpha virt. eigenvalues --    3.82230   3.86663   3.95738   4.02490   4.27152
 Alpha virt. eigenvalues --    4.77622   4.84022   4.88928   4.93549   5.06129
 Alpha virt. eigenvalues --    5.22263   5.40832   5.47701   5.72445  23.68808
 Alpha virt. eigenvalues --   23.74794  23.90430  24.02025  49.78554  49.87371
 Alpha virt. eigenvalues --   49.88702
  Beta  occ. eigenvalues --  -19.16507 -19.14540 -19.12316 -10.28757 -10.20621
  Beta  occ. eigenvalues --  -10.17722 -10.17094  -1.09643  -1.02361  -0.92233
  Beta  occ. eigenvalues --   -0.80120  -0.68564  -0.65179  -0.57954  -0.51523
  Beta  occ. eigenvalues --   -0.49948  -0.48123  -0.46682  -0.43777  -0.42506
  Beta  occ. eigenvalues --   -0.40179  -0.38584  -0.37547  -0.36263  -0.34597
  Beta  occ. eigenvalues --   -0.31335  -0.27307  -0.26599
  Beta virt. eigenvalues --   -0.09571  -0.05007   0.04187   0.05386   0.06742
  Beta virt. eigenvalues --    0.07869   0.09082   0.09907   0.10995   0.11991
  Beta virt. eigenvalues --    0.13398   0.14205   0.21013   0.22599   0.25527
  Beta virt. eigenvalues --    0.27718   0.31219   0.32125   0.35178   0.37060
  Beta virt. eigenvalues --    0.39246   0.40400   0.41954   0.43702   0.46050
  Beta virt. eigenvalues --    0.48689   0.53244   0.54606   0.55780   0.55945
  Beta virt. eigenvalues --    0.57748   0.58038   0.59801   0.60233   0.61983
  Beta virt. eigenvalues --    0.66379   0.66775   0.68668   0.74254   0.78530
  Beta virt. eigenvalues --    0.82640   0.83350   0.86383   0.87438   0.88080
  Beta virt. eigenvalues --    0.92220   0.94610   0.95740   1.00262   1.05103
  Beta virt. eigenvalues --    1.08496   1.09418   1.16432   1.21740   1.22855
  Beta virt. eigenvalues --    1.31783   1.32564   1.34886   1.35645   1.36891
  Beta virt. eigenvalues --    1.41350   1.43519   1.45001   1.46777   1.46868
  Beta virt. eigenvalues --    1.49520   1.52681   1.53611   1.55232   1.57290
  Beta virt. eigenvalues --    1.60116   1.61474   1.65357   1.66962   1.67754
  Beta virt. eigenvalues --    1.71463   1.76686   1.78231   1.81223   1.83735
  Beta virt. eigenvalues --    1.88408   1.92084   1.94333   1.97501   1.98278
  Beta virt. eigenvalues --    2.04246   2.07006   2.10533   2.12121   2.14298
  Beta virt. eigenvalues --    2.16018   2.27937   2.29892   2.35067   2.37999
  Beta virt. eigenvalues --    2.41142   2.42731   2.46101   2.48519   2.50227
  Beta virt. eigenvalues --    2.52395   2.56111   2.58783   2.60743   2.64336
  Beta virt. eigenvalues --    2.67433   2.69373   2.75439   2.77187   2.79419
  Beta virt. eigenvalues --    2.85465   2.88912   2.90848   2.92814   2.94959
  Beta virt. eigenvalues --    3.04704   3.07295   3.11514   3.12855   3.14565
  Beta virt. eigenvalues --    3.14929   3.19123   3.32342   3.38804   3.44704
  Beta virt. eigenvalues --    3.48812   3.53485   3.72538   3.74354   3.78002
  Beta virt. eigenvalues --    3.79175   3.82276   3.86806   3.95898   4.02832
  Beta virt. eigenvalues --    4.27556   4.78827   4.87338   4.89342   4.93576
  Beta virt. eigenvalues --    5.05868   5.22358   5.41747   5.47836   5.72596
  Beta virt. eigenvalues --   23.69265  23.75122  23.90494  24.02479  49.79604
  Beta virt. eigenvalues --   49.87269  49.88837
          Condensed to atoms (all electrons):
              1          2          3          4          5          6
     1  O    7.856169   0.002002  -0.062421   0.004047  -0.016353  -0.028920
     2  O    0.002002   8.066989   0.025404  -0.001038  -0.000064   0.003772
     3  O   -0.062421   0.025404   8.027397  -0.000851   0.001585  -0.039050
     4  C    0.004047  -0.001038  -0.000851   5.077049  -0.057502   0.413761
     5  C   -0.016353  -0.000064   0.001585  -0.057502   4.885018   0.331252
     6  C   -0.028920   0.003772  -0.039050   0.413761   0.331252   5.231077
     7  C    0.296379  -0.030065   0.344434  -0.060804  -0.040669   0.182013
     8  H    0.303607   0.002152   0.008332  -0.000601   0.000375  -0.002798
     9  H   -0.000326   0.000005  -0.000079  -0.004917   0.402433  -0.031485
    10  H   -0.000021  -0.000012   0.000128   0.408461  -0.008347  -0.042123
    11  H    0.000032  -0.000019   0.004487   0.405316   0.006252  -0.031349
    12  H    0.000219   0.264519  -0.002074   0.000719   0.000019  -0.000848
    13  H   -0.000292  -0.000017  -0.000092  -0.006288   0.400172  -0.036163
    14  H    0.025688  -0.000033   0.000822   0.008564   0.397836  -0.037695
    15  H    0.001359  -0.000804   0.002442  -0.032009  -0.039408   0.388705
    16  H   -0.046403   0.000644  -0.029358  -0.006439  -0.001693  -0.031740
              7          8          9         10         11         12
     1  O    0.296379   0.303607  -0.000326  -0.000021   0.000032   0.000219
     2  O   -0.030065   0.002152   0.000005  -0.000012  -0.000019   0.264519
     3  O    0.344434   0.008332  -0.000079   0.000128   0.004487  -0.002074
     4  C   -0.060804  -0.000601  -0.004917   0.408461   0.405316   0.000719
     5  C   -0.040669   0.000375   0.402433  -0.008347   0.006252   0.000019
     6  C    0.182013  -0.002798  -0.031485  -0.042123  -0.031349  -0.000848
     7  C    4.724883  -0.033193   0.005298  -0.000667   0.000282  -0.001027
     8  H   -0.033193   0.463133   0.000013   0.000000  -0.000021  -0.000252
     9  H    0.005298   0.000013   0.566954  -0.000153  -0.000089  -0.000002
    10  H   -0.000667   0.000000  -0.000153   0.554495  -0.036265   0.000006
    11  H    0.000282  -0.000021  -0.000089  -0.036265   0.539202   0.000015
    12  H   -0.001027  -0.000252  -0.000002   0.000006   0.000015   0.487885
    13  H   -0.003443   0.000029  -0.028227   0.004633  -0.000097   0.000004
    14  H   -0.011664  -0.000751  -0.026086   0.000007  -0.000426   0.000002
    15  H   -0.033519   0.003374  -0.006172   0.006838  -0.008771   0.000221
    16  H    0.378414   0.010804  -0.000270   0.000852  -0.000497   0.001618
             13         14         15         16
     1  O   -0.000292   0.025688   0.001359  -0.046403
     2  O   -0.000017  -0.000033  -0.000804   0.000644
     3  O   -0.000092   0.000822   0.002442  -0.029358
     4  C   -0.006288   0.008564  -0.032009  -0.006439
     5  C    0.400172   0.397836  -0.039408  -0.001693
     6  C   -0.036163  -0.037695   0.388705  -0.031740
     7  C   -0.003443  -0.011664  -0.033519   0.378414
     8  H    0.000029  -0.000751   0.003374   0.010804
     9  H   -0.028227  -0.026086  -0.006172  -0.000270
    10  H    0.004633   0.000007   0.006838   0.000852
    11  H   -0.000097  -0.000426  -0.008771  -0.000497
    12  H    0.000004   0.000002   0.000221   0.001618
    13  H    0.578697  -0.025920   0.007631   0.002757
    14  H   -0.025920   0.544197  -0.002492   0.000113
    15  H    0.007631  -0.002492   0.567044   0.007568
    16  H    0.002757   0.000113   0.007568   0.595329
 Mulliken atomic charges:
              1
     1  O   -0.334769
     2  O   -0.333436
     3  O   -0.281107
     4  C   -0.147466
     5  C   -0.260906
     6  C   -0.268409
     7  C    0.283347
     8  H    0.245798
     9  H    0.123103
    10  H    0.112170
    11  H    0.121948
    12  H    0.248978
    13  H    0.106615
    14  H    0.127838
    15  H    0.137994
    16  H    0.118302
 Sum of Mulliken charges=   0.00000
 Atomic charges with hydrogens summed into heavy atoms:
              1
     1  O   -0.088972
     2  O   -0.084458
     3  O   -0.281107
     4  C    0.086652
     5  C    0.096650
     6  C   -0.130415
     7  C    0.401649
     8  H    0.000000
     9  H    0.000000
    10  H    0.000000
    11  H    0.000000
    12  H    0.000000
    13  H    0.000000
    14  H    0.000000
    15  H    0.000000
    16  H    0.000000
 Sum of Mulliken charges=   0.00000
          Atomic-Atomic Spin Densities.
              1          2          3          4          5          6
     1  O    0.061521   0.001405  -0.001657   0.001396  -0.000925   0.007326
     2  O    0.001405   0.465660  -0.076511  -0.001315  -0.000003   0.000332
     3  O   -0.001657  -0.076511  -0.046782  -0.004061  -0.000455   0.012523
     4  C    0.001396  -0.001315  -0.004061   0.837858  -0.006026  -0.011341
     5  C   -0.000925  -0.000003  -0.000455  -0.006026   0.000580   0.017201
     6  C    0.007326   0.000332   0.012523  -0.011341   0.017201  -0.232509
     7  C   -0.040144  -0.009894   0.023185  -0.051853   0.002521  -0.018539
     8  H   -0.000148   0.000014  -0.000064  -0.000105  -0.000027   0.000183
     9  H   -0.000104   0.000001   0.000055   0.002220  -0.000281   0.000631
    10  H    0.000023  -0.000011  -0.000008   0.002784   0.000907  -0.001830
    11  H   -0.000022   0.000042  -0.000102   0.002980  -0.000318  -0.001973
    12  H   -0.000117  -0.003651   0.006412   0.000832   0.000001  -0.000112
    13  H    0.000199  -0.000005  -0.000013  -0.000317  -0.001700   0.002214
    14  H   -0.000914  -0.000006  -0.000078  -0.000126  -0.000989   0.003043
    15  H    0.002264  -0.000466  -0.002632  -0.003551  -0.000560   0.011292
    16  H    0.001476  -0.003798   0.004581   0.006976  -0.001545   0.009993
              7          8          9         10         11         12
     1  O   -0.040144  -0.000148  -0.000104   0.000023  -0.000022  -0.000117
     2  O   -0.009894   0.000014   0.000001  -0.000011   0.000042  -0.003651
     3  O    0.023185  -0.000064   0.000055  -0.000008  -0.000102   0.006412
     4  C   -0.051853  -0.000105   0.002220   0.002784   0.002980   0.000832
     5  C    0.002521  -0.000027  -0.000281   0.000907  -0.000318   0.000001
     6  C   -0.018539   0.000183   0.000631  -0.001830  -0.001973  -0.000112
     7  C    0.306731   0.000826   0.000844  -0.000813   0.000778   0.000255
     8  H    0.000826  -0.000772   0.000011  -0.000001  -0.000003  -0.000011
     9  H    0.000844   0.000011  -0.013212  -0.000103   0.000040  -0.000001
    10  H   -0.000813  -0.000001  -0.000103  -0.040014   0.003203   0.000010
    11  H    0.000778  -0.000003   0.000040   0.003203  -0.040309  -0.000026
    12  H    0.000255  -0.000011  -0.000001   0.000010  -0.000026  -0.006972
    13  H   -0.001717  -0.000009   0.000348   0.000108  -0.000007   0.000003
    14  H    0.000353  -0.000017   0.002172  -0.000033   0.000006   0.000001
    15  H   -0.020492  -0.000229  -0.000016   0.000068   0.000107   0.000131
    16  H   -0.015320  -0.000271   0.000050   0.000185  -0.000077   0.000634
             13         14         15         16
     1  O    0.000199  -0.000914   0.002264   0.001476
     2  O   -0.000005  -0.000006  -0.000466  -0.003798
     3  O   -0.000013  -0.000078  -0.002632   0.004581
     4  C   -0.000317  -0.000126  -0.003551   0.006976
     5  C   -0.001700  -0.000989  -0.000560  -0.001545
     6  C    0.002214   0.003043   0.011292   0.009993
     7  C   -0.001717   0.000353  -0.020492  -0.015320
     8  H   -0.000009  -0.000017  -0.000229  -0.000271
     9  H    0.000348   0.002172  -0.000016   0.000050
    10  H    0.000108  -0.000033   0.000068   0.000185
    11  H   -0.000007   0.000006   0.000107  -0.000077
    12  H    0.000003   0.000001   0.000131   0.000634
    13  H    0.000162  -0.000374   0.000341   0.000217
    14  H   -0.000374  -0.003616  -0.000631  -0.000419
    15  H    0.000341  -0.000631   0.032697   0.000496
    16  H    0.000217  -0.000419   0.000496  -0.015676
 Mulliken atomic spin densities:
              1
     1  O    0.031578
     2  O    0.371793
     3  O   -0.085607
     4  C    0.776350
     5  C    0.008382
     6  C   -0.201568
     7  C    0.176721
     8  H   -0.000623
     9  H   -0.007343
    10  H   -0.035525
    11  H   -0.035682
    12  H   -0.002612
    13  H   -0.000553
    14  H   -0.001629
    15  H    0.018818
    16  H   -0.012499
 Sum of Mulliken spin densities=   1.00000
 APT atomic charges:
              1
     1  O   -0.614521
     2  O   -0.874387
     3  O    0.333324
     4  C   -0.103755
     5  C    0.039183
     6  C    0.226052
     7  C    0.464230
     8  H    0.259745
     9  H   -0.025102
    10  H    0.036252
    11  H    0.037612
    12  H    0.231514
    13  H   -0.009581
    14  H    0.030556
    15  H   -0.034400
    16  H    0.003278
 Sum of APT charges=   0.00000
 APT Atomic charges with hydrogens summed into heavy atoms:
              1
     1  O   -0.354776
     2  O   -0.642874
     3  O    0.333324
     4  C   -0.029891
     5  C    0.035057
     6  C    0.191652
     7  C    0.467508
     8  H    0.000000
     9  H    0.000000
    10  H    0.000000
    11  H    0.000000
    12  H    0.000000
    13  H    0.000000
    14  H    0.000000
    15  H    0.000000
    16  H    0.000000
 Sum of APT charges=   0.00000
 Electronic spatial extent (au):  <R**2>=  1377.0171
 Charge=     0.0000 electrons
 Dipole moment (field-independent basis, Debye):
    X=     0.5680    Y=     0.6760    Z=    -1.9574  Tot=     2.1473
 Quadrupole moment (field-independent basis, Debye-Ang):
   XX=   -37.0800   YY=   -42.5165   ZZ=   -43.3499
   XY=    -1.2855   XZ=    -1.9290   YZ=     1.3665
 Traceless Quadrupole moment (field-independent basis, Debye-Ang):
   XX=     3.9022   YY=    -1.5344   ZZ=    -2.3678
   XY=    -1.2855   XZ=    -1.9290   YZ=     1.3665
 Octapole moment (field-independent basis, Debye-Ang**2):
  XXX=  -132.5147  YYY=   -46.0600  ZZZ=    97.6015  XYY=   -53.6332
  XXY=   -10.7146  XXZ=    40.9592  XZZ=   -51.3996  YZZ=   -16.6734
  YYZ=    33.5334  XYZ=     3.3525
 Hexadecapole moment (field-independent basis, Debye-Ang**3):
 XXXX=  -596.5249 YYYY=  -144.3178 ZZZZ=  -942.1606 XXXY=   -68.1552
 XXXZ=   125.1814 YYYX=   -96.0827 YYYZ=    40.4197 ZZZX=    91.6795
 ZZZY=    52.6646 XXYY=  -137.7710 XXZZ=  -242.9029 YYZZ=  -181.3778
 XXYZ=    26.9654 YYXZ=    26.4843 ZZXY=   -35.3465
 N-N= 3.191970134640D+02 E-N=-1.538391078475D+03  KE= 3.821852822660D+02
  Exact polarizability:  68.827   4.504  50.431   6.269  -1.940 121.796
 Approx polarizability:  98.632   6.659  75.388   6.067  -8.303 208.350
                          Isotropic Fermi Contact Couplings
        Atom                 a.u.       MegaHertz       Gauss      10(-4) cm-1
     1  O(17)              0.00952      -5.77059      -2.05909      -1.92486
     2  O(17)              0.07222     -43.78218     -15.62257     -14.60416
     3  O(17)              0.17422    -105.61136     -37.68476     -35.22816
     4  C(13)              0.04742      53.31419      19.02383      17.78370
     5  C(13)              0.00513       5.76184       2.05597       1.92194
     6  C(13)             -0.04299     -48.33299     -17.24641     -16.12215
     7  C(13)              0.11305     127.09195      45.34957      42.39331
     8  H(1)              -0.00043      -1.92220      -0.68589      -0.64118
     9  H(1)              -0.00431     -19.25596      -6.87101      -6.42310
    10  H(1)              -0.00996     -44.54211     -15.89373     -14.85765
    11  H(1)              -0.00977     -43.65900     -15.57861     -14.56307
    12  H(1)              -0.00573     -25.63020      -9.14549      -8.54931
    13  H(1)              -0.00040      -1.78936      -0.63849      -0.59687
    14  H(1)              -0.00045      -2.00400      -0.71508      -0.66846
    15  H(1)               0.00997      44.54490      15.89473      14.85858
    16  H(1)              -0.00701     -31.34808     -11.18577     -10.45659
 --------------------------------------------------------
       Center         ----  Spin Dipole Couplings  ----
                      3XX-RR        3YY-RR        3ZZ-RR
 --------------------------------------------------------
     1   Atom       -0.096421     -0.041225      0.137645
     2   Atom       -0.707084     -0.561557      1.268641
     3   Atom        0.151736      0.006507     -0.158243
     4   Atom       -0.353760     -0.095605      0.449365
     5   Atom        0.008054      0.001634     -0.009688
     6   Atom        0.108653      0.027836     -0.136489
     7   Atom       -0.126730     -0.042698      0.169428
     8   Atom       -0.000396      0.000635     -0.000239
     9   Atom        0.005490     -0.004141     -0.001349
    10   Atom       -0.037439      0.023107      0.014332
    11   Atom       -0.008438      0.016493     -0.008055
    12   Atom        0.057316     -0.036217     -0.021100
    13   Atom        0.002188     -0.000247     -0.001941
    14   Atom        0.001974     -0.002615      0.000641
    15   Atom        0.012335     -0.011619     -0.000716
    16   Atom       -0.009911      0.011457     -0.001546
 --------------------------------------------------------
                        XY            XZ            YZ
 --------------------------------------------------------
     1   Atom       -0.006056      0.007512     -0.107887
     2   Atom       -0.125347      0.406470     -0.688310
     3   Atom        0.064017     -0.098390      0.239344
     4   Atom       -0.146952      0.246447     -0.518966
     5   Atom        0.008216     -0.004861     -0.003171
     6   Atom        0.008969     -0.029931      0.103237
     7   Atom       -0.000263     -0.004665     -0.150326
     8   Atom       -0.004702     -0.002737      0.004065
     9   Atom        0.001256      0.003032      0.000681
    10   Atom       -0.034599     -0.009822      0.021880
    11   Atom        0.042095      0.028870      0.000345
    12   Atom        0.034859      0.004399     -0.009289
    13   Atom        0.005209      0.001444      0.000899
    14   Atom        0.000501      0.000764      0.000385
    15   Atom       -0.000530     -0.004216     -0.001577
    16   Atom       -0.006430     -0.002218     -0.002030
 --------------------------------------------------------


 ---------------------------------------------------------------------------------
              Anisotropic Spin Dipole Couplings in Principal Axis System
 ---------------------------------------------------------------------------------

       Atom             a.u.   MegaHertz   Gauss  10(-4) cm-1        Axes

              Baa    -0.0976     7.065     2.521     2.357  0.9281  0.3488  0.1303
     1 O(17)  Bbb    -0.0910     6.586     2.350     2.197 -0.3709  0.8351  0.4062
              Bcc     0.1887   -13.651    -4.871    -4.553  0.0329 -0.4253  0.9044
 
              Baa    -0.7990    57.814    20.629    19.285 -0.5972  0.7184  0.3566
     2 O(17)  Bbb    -0.7788    56.351    20.108    18.797  0.7809  0.6223  0.0542
              Bcc     1.5778  -114.165   -40.737   -38.081  0.1830 -0.3108  0.9327
 
              Baa    -0.3561    25.765     9.194     8.594  0.2250 -0.5641  0.7944
     3 O(17)  Bbb     0.1731   -12.524    -4.469    -4.178  0.6320  0.7051  0.3216
              Bcc     0.1830   -13.242    -4.725    -4.417  0.7416 -0.4297 -0.5152
 
              Baa    -0.4234   -56.811   -20.272   -18.950  0.9653  0.0203 -0.2605
     4 C(13)  Bbb    -0.4091   -54.894   -19.588   -18.311  0.1140  0.8643  0.4898
              Bcc     0.8324   111.705    39.859    37.261  0.2351 -0.5025  0.8320
 
              Baa    -0.0111    -1.483    -0.529    -0.495  0.1982  0.1149  0.9734
     5 C(13)  Bbb    -0.0040    -0.533    -0.190    -0.178 -0.5595  0.8287  0.0161
              Bcc     0.0150     2.017     0.720     0.673  0.8048  0.5478 -0.2286
 
              Baa    -0.1895   -25.424    -9.072    -8.481  0.1030 -0.4303  0.8968
     6 C(13)  Bbb     0.0769    10.323     3.684     3.443  0.1379  0.8991  0.4156
              Bcc     0.1125    15.101     5.388     5.037  0.9851 -0.0809 -0.1519
 
              Baa    -0.1276   -17.121    -6.109    -5.711  0.9464  0.2821  0.1576
     7 C(13)  Bbb    -0.1198   -16.076    -5.736    -5.362 -0.3229  0.8419  0.4324
              Bcc     0.2474    33.197    11.845    11.073 -0.0107 -0.4601  0.8878
 
              Baa    -0.0048    -2.573    -0.918    -0.858  0.6031  0.7405 -0.2966
     8 H(1)   Bbb    -0.0030    -1.586    -0.566    -0.529  0.5784 -0.1498  0.8019
              Bcc     0.0078     4.159     1.484     1.387 -0.5493  0.6552  0.5187
 
              Baa    -0.0043    -2.317    -0.827    -0.773 -0.0826  0.9866 -0.1409
     9 H(1)   Bbb    -0.0025    -1.323    -0.472    -0.441 -0.3677  0.1012  0.9244
              Bcc     0.0068     3.641     1.299     1.214  0.9263  0.1282  0.3544
 
              Baa    -0.0531   -28.353   -10.117    -9.457  0.9105  0.4136 -0.0016
    10 H(1)   Bbb    -0.0004    -0.190    -0.068    -0.063  0.2172 -0.4749  0.8528
              Bcc     0.0535    28.542    10.185     9.521 -0.3520  0.7768  0.5223
 
              Baa    -0.0526   -28.042   -10.006    -9.354  0.7490 -0.4542 -0.4824
    11 H(1)   Bbb    -0.0009    -0.473    -0.169    -0.158  0.2108 -0.5269  0.8234
              Bcc     0.0534    28.515    10.175     9.512  0.6281  0.7184  0.2989
 
              Baa    -0.0512   -27.336    -9.754    -9.118 -0.3014  0.8979  0.3208
    12 H(1)   Bbb    -0.0177    -9.424    -3.363    -3.143  0.0880 -0.3088  0.9471
              Bcc     0.0689    36.760    13.117    12.262  0.9494  0.3136  0.0140
 
              Baa    -0.0044    -2.345    -0.837    -0.782 -0.6298  0.7717  0.0880
    13 H(1)   Bbb    -0.0023    -1.204    -0.430    -0.402 -0.0955 -0.1894  0.9772
              Bcc     0.0067     3.549     1.266     1.184  0.7708  0.6071  0.1930
 
              Baa    -0.0027    -1.439    -0.514    -0.480 -0.0910  0.9914 -0.0937
    14 H(1)   Bbb     0.0003     0.160     0.057     0.053 -0.4260  0.0463  0.9035
              Bcc     0.0024     1.279     0.456     0.427  0.9001  0.1221  0.4182
 
              Baa    -0.0119    -6.348    -2.265    -2.117  0.0490  0.9863  0.1575
    15 H(1)   Bbb    -0.0017    -0.897    -0.320    -0.299  0.2784 -0.1650  0.9462
              Bcc     0.0136     7.245     2.585     2.417  0.9592 -0.0025 -0.2826
 
              Baa    -0.0124    -6.598    -2.354    -2.201  0.9314  0.2720  0.2420
    16 H(1)   Bbb    -0.0010    -0.536    -0.191    -0.179 -0.2580  0.0242  0.9658
              Bcc     0.0134     7.134     2.545     2.379 -0.2569  0.9620 -0.0927
 

 ---------------------------------------------------------------------------------

 Use density number 0.
 Entering OneElI...
 Calculate overlap and kinetic energy integrals
    NBasis = 187  MinDer = 2  MaxDer = 2
 Requested accuracy = 0.1000D-12
 PrsmSu:  NPrtUS=   1 ThrOK=F
 PRISM was handed   196298185 working-precision words and  2530 shell-pairs
 Entering OneElI...
 Calculate potential energy integrals
    NBasis = 187  MinDer = 2  MaxDer = 2
 Requested accuracy = 0.1000D-12
 PrsmSu:  NPrtUS=   8 ThrOK=T
 PRISM was handed    24495943 working-precision words and  2314 shell-pairs
 PRISM was handed    24495943 working-precision words and  2314 shell-pairs
 PRISM was handed    24495943 working-precision words and  2314 shell-pairs
 PRISM was handed    24495943 working-precision words and  2314 shell-pairs
 PRISM was handed    24495943 working-precision words and  2314 shell-pairs
 PRISM was handed    24495943 working-precision words and  2314 shell-pairs
 PRISM was handed    24495943 working-precision words and  2314 shell-pairs
 PRISM was handed    24495943 working-precision words and  2314 shell-pairs
 Polarizability after L701:
                1             2             3
      1  0.688267D+02
      2  0.450354D+01  0.504307D+02
      3  0.626901D+01 -0.193953D+01  0.121796D+03
 Dipole Derivatives after L701:
               1            2            3            4            5
      1-0.120009D+01-0.626092D-01 0.398809D+00-0.295429D+00 0.195176D+00
      2-0.191317D+00-0.307751D+00 0.142307D+00 0.350191D-01-0.300468D+00
      3 0.237017D+00 0.100138D+00-0.335725D+00-0.668441D+00 0.497934D+00
               6            7            8            9           10
      1-0.378629D+00-0.316572D+00-0.219512D+00 0.450176D+00 0.134390D+00
      2-0.185412D+00 0.168271D-01-0.426187D+00 0.449147D-01 0.105186D+00
      3-0.202726D+01 0.968640D+00 0.389270D-01 0.174273D+01 0.226146D+00
              11           12           13           14           15
      1 0.480947D-02-0.147639D+00 0.124709D-01 0.578855D-01-0.119443D+00
      2 0.223101D-01 0.159559D+00-0.443012D-01 0.105717D+00-0.426278D-01
      3 0.274936D+00-0.467965D+00-0.110782D-01 0.140283D+00-0.638617D-03
              16           17           18           19           20
      1-0.615143D-01-0.205745D+00 0.502763D+00 0.121301D+01 0.285617D+00
      2-0.992330D-01 0.745058D-02 0.196034D+00 0.192378D+00 0.622390D+00
      3-0.496637D-01-0.241569D+00 0.732220D+00-0.834732D+00-0.582050D+00
              21           22           23           24           25
      1-0.780210D+00 0.329580D+00-0.211783D-01-0.432520D-01 0.253277D-01
      2-0.153792D+00-0.444766D-01 0.166101D+00-0.227755D-01-0.361808D-02
      3-0.442707D+00-0.103624D+00-0.456642D-01 0.283554D+00-0.712745D-01
              26           27           28           29           30
      1-0.246299D-01-0.987657D-01 0.364533D-01 0.564886D-01 0.322024D-01
      2 0.174341D-01 0.517797D-01-0.578199D-02-0.187214D-01-0.844032D-01
      3 0.352696D-01-0.118067D+00 0.447027D-01-0.104348D+00 0.910250D-01
              31           32           33           34           35
      1-0.142609D-01-0.678970D-01-0.298237D-01 0.178523D+00-0.589631D-01
      2-0.536546D-01 0.176206D-01-0.681146D-01-0.711646D-01 0.285445D+00
      3 0.179930D-01-0.790248D-01 0.109476D+00 0.182920D+00 0.103549D+00
              36           37           38           39           40
      1 0.420116D-01 0.180031D-01 0.357977D-01-0.737983D-02-0.370021D-01
      2 0.432425D-01 0.101696D+00-0.100613D+00-0.288133D-01-0.215591D-01
      3 0.230573D+00 0.342300D-01-0.635189D-01 0.538671D-01 0.179406D-01
              41           42           43           44           45
      1-0.189371D-01 0.106711D+00-0.276966D-01 0.536282D-01-0.366718D-01
      2 0.596669D-01 0.159346D-01 0.317907D-01-0.601157D-01-0.942287D-01
      3-0.343046D-01 0.690038D-01-0.554729D-01-0.716193D-03-0.153868D-01
              46           47           48
      1 0.480873D-02-0.993077D-02 0.109141D+00
      2 0.522093D-01-0.902792D-01 0.263965D-01
      3 0.646981D-01-0.398421D-01 0.953039D-01
 Hessian after L701:
                1             2             3             4             5
      1  0.492923D+01
      2 -0.611373D+00  0.136923D+02
      3  0.353175D+01 -0.152176D+01  0.134959D+02
      4  0.316348D+00  0.194526D+00  0.546972D+00  0.421930D+01
      5  0.170694D+00 -0.345023D+00  0.936698D-01 -0.951724D+00  0.875143D+01
      6  0.519878D+00  0.130943D+00  0.511633D-01 -0.173487D+01  0.122122D+01
      7  0.890447D+00  0.215589D+00  0.120095D+00 -0.224781D+01 -0.410422D+00
      8  0.120113D+00 -0.260824D+00 -0.771849D-01 -0.322530D+00 -0.216033D+01
      9  0.112019D+00 -0.914405D-01 -0.109394D+00  0.714432D+00 -0.107462D+01
     10  0.136056D+00  0.103030D+00 -0.261495D+00 -0.784397D-01 -0.211776D-01
     11  0.851725D-01 -0.128819D+00 -0.807233D-01  0.645714D-04 -0.834868D-01
     12 -0.255290D+00 -0.982152D-01  0.709167D-01 -0.482043D-01 -0.242808D-01
     13 -0.198078D+00  0.231048D-01 -0.170101D+00 -0.423316D-01  0.290610D-02
     14  0.181398D-01 -0.223943D+00 -0.453806D-01  0.340208D-02 -0.593008D-01
     15 -0.539818D-01 -0.242802D-01  0.272735D+00  0.459189D-01  0.986985D-02
     16 -0.423867D+00  0.115651D+00 -0.835723D-02 -0.123560D+00 -0.423057D-02
     17  0.553830D-01 -0.479017D-01 -0.209690D+00 -0.208340D-01 -0.119619D+00
     18 -0.192216D-01 -0.314469D+00  0.265414D+00  0.134219D+00 -0.994264D-01
     19  0.104316D+01  0.139663D+01 -0.309610D+01 -0.190935D+00 -0.821266D-01
     20  0.126308D+01 -0.951487D+01 -0.351305D+00 -0.121373D+00 -0.264758D+00
     21 -0.317303D+01 -0.388963D+00 -0.896007D+01  0.157807D+00 -0.746094D-02
     22 -0.622839D+01 -0.159891D+01 -0.103634D+01  0.614130D-01 -0.147913D-01
     23 -0.122600D+01 -0.320729D+01  0.225812D+01 -0.585295D-01 -0.339891D-01
     24 -0.849966D+00  0.238676D+01 -0.542347D+01  0.219353D-01  0.109024D-03
     25 -0.169064D-01 -0.221626D-02  0.666407D-02 -0.355097D-02 -0.513468D-03
     26  0.197281D-02 -0.940912D-02 -0.197290D-01 -0.441986D-03 -0.382922D-02
     27 -0.426072D-02 -0.241093D-01  0.526334D-01  0.354818D-02 -0.150523D-02
     28  0.146875D-01  0.505612D-02 -0.246299D-01 -0.397459D-02 -0.406336D-03
     29 -0.154274D-01 -0.182300D-01  0.127601D-01 -0.790023D-02 -0.818756D-02
     30 -0.336055D-01 -0.623142D-02  0.163825D-01 -0.122849D-01  0.171007D-02
     31  0.274732D-01  0.262811D-01 -0.223824D-01  0.330138D-03  0.916633D-02
     32  0.313442D-01  0.813710D-02 -0.163542D-01  0.151347D-01 -0.160478D-02
     33 -0.106326D-01 -0.413603D-02 -0.591578D-02 -0.823439D-02 -0.810292D-02
     34  0.582957D-01  0.280536D-01  0.393108D-01 -0.186313D+01  0.131806D+01
     35  0.198493D-01 -0.110390D-01  0.836526D-02  0.125919D+01 -0.559473D+01
     36  0.243177D-01  0.571958D-02 -0.521981D-02  0.123647D+00 -0.790605D-01
     37 -0.168912D-01 -0.840893D-02 -0.323355D-01 -0.580768D-02 -0.474014D-03
     38 -0.184317D-01 -0.162365D-01  0.549595D-01  0.593121D-03 -0.239371D-02
     39 -0.243986D-01  0.219209D-01  0.494398D-01  0.406047D-02  0.549234D-02
     40 -0.163437D+00 -0.103259D-02  0.158249D+00  0.288252D-02  0.235009D-02
     41  0.869408D-02 -0.186737D+00  0.368151D-01  0.159955D-02 -0.793293D-02
     42  0.384335D-01  0.160651D-01  0.179894D+00  0.666639D-02  0.120258D-02
     43 -0.416321D-01  0.902395D-02 -0.911819D-02 -0.109816D-01 -0.557181D-02
     44  0.492687D-01  0.341192D-01 -0.696290D-01 -0.191513D-02  0.551595D-04
     45 -0.198970D-01 -0.279517D-01 -0.251993D-01 -0.480809D-03 -0.134171D-02
     46 -0.326489D+00  0.104997D+00  0.257815D+00 -0.297537D-01 -0.117366D-01
     47  0.475201D-01  0.235716D+00 -0.729343D-01  0.107389D-01 -0.663006D-01
     48  0.217888D+00 -0.598603D-01  0.747579D-01  0.448652D-01 -0.374703D-01
                6             7             8             9            10
      6  0.369624D+01
      7  0.833502D+00  0.101845D+02
      8 -0.972094D+00 -0.522654D+01  0.903085D+01
      9  0.111082D+01 -0.508878D+01 -0.398955D+01  0.721000D+01
     10  0.477917D-01 -0.344384D+00  0.175565D-01 -0.100638D+00  0.782048D+01
     11 -0.114909D-01  0.883771D-02 -0.307888D+00 -0.435018D-01 -0.933567D+00
     12  0.747672D-01 -0.398408D-02 -0.688382D-01  0.648470D+00  0.249705D+01
     13  0.440833D-01 -0.620480D-01  0.677919D-01  0.164442D+00  0.158632D+00
     14  0.543669D-02  0.561190D-01 -0.121230D+00  0.935755D-01  0.164820D+00
     15  0.583366D-01  0.195993D+00  0.137808D+00  0.182245D+00 -0.771879D-01
     16  0.908765D-01 -0.146631D+00 -0.861313D-01  0.629831D-01 -0.933263D+00
     17 -0.672810D-01 -0.459665D-01 -0.208957D+00  0.385166D-01  0.198041D+00
     18  0.428678D+00 -0.411413D-01 -0.603985D-01  0.529646D-01 -0.222327D+01
     19  0.215850D+00 -0.841679D+01  0.557513D+01  0.406353D+01 -0.126523D+00
     20 -0.121541D+00  0.559523D+01 -0.582391D+01  0.502878D+01 -0.465988D-01
     21  0.323964D+00  0.403889D+01  0.491679D+01 -0.934956D+01  0.193304D+00
     22  0.610377D-01  0.603849D-01  0.148608D+00  0.652511D-01  0.308944D-02
     23 -0.346409D-01  0.256841D-02 -0.972239D-01  0.650490D-03 -0.881709D-02
     24 -0.306362D-01 -0.151963D-01 -0.206919D-01 -0.105260D+00 -0.109182D-01
     25  0.702153D-02 -0.928326D-03  0.494483D-02  0.180023D-01  0.150869D-02
     26 -0.660776D-02 -0.370977D-02 -0.117427D-01 -0.732496D-02 -0.302966D-01
     27  0.156749D-01  0.256857D-01  0.111346D-01  0.378496D-01  0.395986D-01
     28 -0.112168D-01 -0.162671D-01 -0.126393D-01 -0.338034D-01 -0.376155D+01
     29  0.171743D-01 -0.839256D-02 -0.306395D-02  0.459454D-01 -0.797741D+00
     30  0.280936D-01 -0.163570D-01  0.317286D-01  0.621748D-01 -0.587281D+00
     31 -0.246640D-01 -0.168187D-01  0.137877D-01 -0.111037D+00 -0.298195D+01
     32 -0.300915D-01  0.316557D-01 -0.501904D-01 -0.817365D-01  0.129916D+01
     33  0.127272D-01 -0.506426D-01 -0.196907D-01  0.617035D-01  0.480043D+00
     34 -0.884806D-01  0.982189D-01 -0.319102D-01  0.122413D+00 -0.230209D-02
     35 -0.144262D+00  0.311065D-01 -0.665297D-01  0.292007D-01  0.183563D-02
     36 -0.579687D+01  0.152600D-01 -0.917935D-02 -0.876425D-01  0.541302D-02
     37  0.514059D-03 -0.159986D-01 -0.135477D-02 -0.156385D-02 -0.206620D-01
     38  0.178510D-01  0.184540D-01  0.149882D-01  0.439797D-01  0.195033D-01
     39  0.135406D-01  0.148959D-01  0.252144D-01  0.225636D-01 -0.738779D-03
     40  0.213128D-01  0.409232D-01  0.316378D-01  0.635608D-01  0.178130D+00
     41  0.368781D-02  0.188374D-01 -0.140014D-01  0.192163D-01  0.744039D-01
     42 -0.806749D-03  0.274268D-01  0.112083D-01  0.406885D-02 -0.407765D-01
     43  0.751970D-02 -0.447711D-01  0.182578D-02  0.802026D-01 -0.324474D-01
     44 -0.188489D-01 -0.377021D-01 -0.660163D-01 -0.104899D+00 -0.323216D-01
     45 -0.196589D-01  0.437196D-01  0.228659D-03  0.998877D-01  0.268451D-01
     46  0.984064D-02  0.379719D-01 -0.300290D+00 -0.131016D+00 -0.163834D-01
     47  0.105475D-01 -0.245664D+00  0.146074D+00  0.932082D-01 -0.783415D-02
     48  0.339601D-01 -0.993656D-01  0.835188D-01  0.159108D+00  0.122547D-01
               11            12            13            14            15
     11  0.136215D+02
     12 -0.209695D+01  0.142633D+02
     13  0.195226D+00  0.304947D-01  0.133041D+02
     14  0.690101D-01 -0.293730D-01 -0.124996D+01  0.144558D+02
     15 -0.532732D-01 -0.101480D-01 -0.108929D+01 -0.723958D+00  0.135549D+02
     16  0.212111D+00 -0.240753D+01 -0.334584D+01  0.188307D+01  0.190691D+01
     17 -0.799136D+01  0.627799D+00  0.189321D+01 -0.431694D+01  0.145700D+01
     18  0.630071D+00 -0.798035D+01  0.179499D+01  0.138039D+01 -0.453264D+01
     19 -0.201373D-01  0.637654D-01 -0.983083D-01 -0.443778D-01  0.286437D-01
     20  0.363372D-01 -0.720397D-01 -0.242797D-01 -0.856089D-01 -0.563806D-01
     21 -0.771713D-01  0.189871D+00  0.230188D-01 -0.113358D+00  0.170231D+00
     22  0.295151D-04 -0.111641D-01 -0.142396D-01 -0.277567D-03 -0.127729D-01
     23 -0.660897D-02  0.113117D-01 -0.144944D-01 -0.131614D-01  0.368794D-01
     24  0.152036D-03  0.637152D-02 -0.148428D-01  0.119114D-01  0.485747D-01
     25 -0.143979D-01  0.209132D-01 -0.382186D+01 -0.337471D+00  0.648379D+00
     26 -0.201817D-01 -0.182528D-01 -0.284961D+00 -0.354525D+01 -0.918911D+00
     27 -0.676953D-02  0.168867D-01  0.596609D+00 -0.100235D+01 -0.203940D+01
     28 -0.962014D+00 -0.638725D+00 -0.187253D-01  0.680299D-02  0.188621D-02
     29 -0.254551D+01  0.110161D+01 -0.182293D-01 -0.442170D-02  0.128666D-01
     30  0.123302D+01 -0.329162D+01  0.230750D-02  0.732225D-02 -0.326159D-02
     31  0.138802D+01  0.675075D+00  0.110983D+00  0.869362D-01  0.329300D-01
     32 -0.276151D+01  0.647823D+00  0.946941D-01  0.125279D-01  0.158340D-01
     33  0.481980D+00 -0.397598D+01  0.314481D-01  0.156539D-01 -0.379172D-01
     34  0.111052D-02  0.248077D-01  0.178136D-02 -0.140712D-02  0.118767D-01
     35 -0.103788D-01  0.497831D-02  0.179058D-02 -0.497041D-02  0.348129D-02
     36  0.114692D-04  0.265485D-01  0.458199D-02  0.647589D-03  0.319992D-02
     37 -0.117350D-01 -0.688481D-04 -0.385718D+01 -0.836043D+00 -0.192318D+00
     38  0.901628D-02  0.122742D-01 -0.973637D+00 -0.190181D+01  0.516163D+00
     39 -0.254095D-02 -0.100429D-01 -0.286595D+00  0.671605D+00 -0.405927D+01
     40  0.744374D-01 -0.366143D-01 -0.220247D+01  0.371080D+00 -0.142774D+01
     41 -0.277738D-01 -0.142851D-01  0.397711D+00 -0.426037D+01 -0.270930D+00
     42 -0.154076D-01 -0.482302D-01 -0.110791D+01 -0.198158D+00 -0.365273D+01
     43 -0.772423D-03  0.599413D-01  0.878754D-01 -0.102342D+00 -0.561895D-01
     44  0.153754D+00  0.634695D-02 -0.934934D-01  0.173860D-02 -0.105946D+00
     45  0.130159D-01  0.574114D-01 -0.375220D-01 -0.640855D-01  0.561330D-01
     46 -0.223831D-01  0.295276D-01 -0.226254D-02 -0.184927D-01  0.369427D-01
     47 -0.614753D-02  0.100972D-01 -0.173840D-01 -0.206780D-02 -0.362239D-01
     48  0.295801D-01 -0.381284D-01  0.142901D-01 -0.987741D-02 -0.109556D-01
               16            17            18            19            20
     16  0.117402D+02
     17 -0.119300D+01  0.170062D+02
     18  0.116707D+01 -0.145221D+01  0.145741D+02
     19 -0.257843D+01  0.129354D+00 -0.390062D+00  0.145008D+02
     20  0.127634D+00 -0.234465D+01 -0.111705D+01 -0.548718D+01  0.200517D+02
     21 -0.456474D+00 -0.112292D+01  0.126233D+01 -0.456647D+00 -0.402920D+01
     22 -0.532374D-02 -0.187873D-01 -0.168667D-01  0.145390D+00  0.984545D-01
     23 -0.290821D-01 -0.655916D-02  0.540005D-01 -0.420357D-01  0.686220D-01
     24 -0.219334D-01  0.250930D-01  0.315359D-01 -0.282730D-01 -0.538173D-01
     25  0.476982D-01 -0.165196D-02  0.263950D-02 -0.164997D-01 -0.718770D-02
     26 -0.264876D-01  0.527697D-01 -0.542169D-01 -0.977446D-02 -0.350877D-01
     27  0.337295D-01 -0.225656D-01  0.937504D-01  0.565596D-01 -0.141859D-01
     28  0.215976D-01  0.851345D-01  0.559428D-01  0.447387D-02 -0.649493D-02
     29  0.111552D-01  0.973118D-01  0.153073D-02 -0.190055D-01 -0.167006D-01
     30  0.332648D-01 -0.361702D-01  0.852717D-01 -0.419285D-01  0.110135D-01
     31  0.369061D-03 -0.107346D-01 -0.345453D-01  0.307960D-01  0.370174D-01
     32  0.224116D-01  0.894586D-01 -0.389411D-02  0.517484D-01  0.782538D-02
     33  0.312899D-01  0.268347D-01  0.740224D-01 -0.223038D-01 -0.186059D-01
     34  0.624932D-02  0.756520D-02  0.184887D-01  0.392634D-01  0.109343D-01
     35  0.420796D-02 -0.371192D-02  0.445973D-02  0.152270D-01 -0.205782D-01
     36  0.949705D-03  0.111943D-02 -0.449449D-02  0.219397D-01  0.648156D-02
     37  0.712796D-01 -0.829698D-01 -0.298816D-01 -0.184304D-01 -0.798149D-02
     38 -0.277993D-01  0.399393D-01  0.274312D-02 -0.185591D-02  0.164799D-02
     39 -0.105882D-01 -0.436549D-01  0.679447D-01 -0.171658D-02  0.128765D-01
     40 -0.307768D-01 -0.365561D-01 -0.229562D-01 -0.463440D-02 -0.125612D-01
     41 -0.483852D-01  0.730972D-01 -0.292925D-02 -0.210935D-01  0.658736D-02
     42 -0.106686D+00 -0.373908D-01  0.102289D+00 -0.479754D-01 -0.251311D-01
     43 -0.438981D+01 -0.102563D+01 -0.357174D+00  0.855185D-01  0.316899D-01
     44 -0.103057D+01 -0.219089D+01  0.902581D+00  0.515435D-01 -0.191591D-01
     45 -0.268401D+00  0.645884D+00 -0.453082D+01 -0.476934D-01  0.123974D+00
     46  0.901557D-01  0.674460D-01 -0.382280D-01 -0.439885D+01 -0.145039D+01
     47  0.694526D-01 -0.128148D+00  0.128821D+00 -0.149204D+01 -0.204745D+01
     48 -0.471078D-01  0.169641D+00  0.998618D-02 -0.317593D+00  0.676133D+00
               21            22            23            24            25
     21  0.210503D+02
     22  0.310147D-01  0.589289D+01
     23  0.538269D-02  0.149668D+01  0.325087D+01
     24  0.732295D-01  0.102668D+01 -0.239550D+01  0.536908D+01
     25  0.627649D-01 -0.182230D-02  0.133907D-02  0.121384D-02  0.367484D+01
     26 -0.241155D-01  0.119428D-02 -0.389250D-02 -0.273830D-02  0.347017D+00
     27  0.124183D+00 -0.422577D-02  0.886342D-02  0.101158D-01 -0.788263D+00
     28 -0.326761D-01  0.270870D-02 -0.445986D-02 -0.475986D-02  0.100378D-01
     29  0.244912D-01 -0.347191D-02  0.451999D-02  0.473140D-02 -0.784464D-02
     30  0.351156D-01 -0.448561D-02  0.573647D-02  0.483129D-02 -0.258166D-02
     31 -0.363457D-01  0.484785D-02 -0.598834D-02 -0.653356D-02  0.658236D-02
     32 -0.350202D-01  0.424193D-02 -0.600743D-02 -0.499102D-02  0.505412D-02
     33 -0.140857D-01 -0.592029D-03 -0.518982D-03 -0.715129D-03  0.467378D-02
     34  0.449439D-01  0.660394D-02 -0.103091D-01 -0.509617D-02  0.186163D-02
     35  0.151458D-01  0.184352D-02 -0.315937D-02 -0.101691D-02  0.625922D-03
     36 -0.978399D-02 -0.431298D-03 -0.580523D-03 -0.166677D-02  0.575752D-03
     37 -0.120044D-01  0.270656D-03 -0.429657D-02 -0.421618D-02  0.496003D-01
     38  0.276820D-01 -0.442587D-02  0.795758D-02  0.889695D-02  0.565652D-01
     39  0.171613D-01 -0.324595D-02  0.674264D-02  0.605887D-02 -0.317485D-01
     40 -0.171653D-01 -0.309955D-02  0.937213D-02  0.876177D-02  0.628322D-01
     41 -0.210475D-01 -0.131189D-02  0.262723D-02  0.140444D-02 -0.325234D-01
     42 -0.389588D-01  0.821610D-03 -0.112265D-02 -0.790336D-02  0.627350D-01
     43 -0.277112D-01 -0.501168D-02  0.745200D-02 -0.193677D-01  0.566496D-02
     44  0.822839D-01  0.208770D-01 -0.181600D-01 -0.345895D-01 -0.832512D-02
     45  0.110346D-01 -0.266167D-01 -0.127168D-01  0.280615D-01 -0.130686D-01
     46 -0.339686D+00  0.802904D-01 -0.113402D+00 -0.774883D-01  0.941157D-03
     47  0.747493D+00 -0.129956D+00  0.614483D-01  0.742794D-01 -0.341491D-02
     48 -0.488501D+01 -0.680646D-01  0.573932D-01 -0.820969D-02  0.790190D-04
               26            27            28            29            30
     26  0.356494D+01
     27  0.973496D+00  0.167847D+01
     28 -0.637773D-02  0.107063D-01  0.354120D+01
     29  0.148931D-02 -0.848407D-02  0.957097D+00  0.261647D+01
     30  0.208218D-02 -0.771883D-02  0.757431D+00 -0.112237D+01  0.302613D+01
     31 -0.183970D-02  0.105954D-01  0.124562D+00 -0.477555D-01 -0.334956D-01
     32 -0.384966D-02  0.768429D-02 -0.457087D-01 -0.129142D+00 -0.149405D+00
     33 -0.598130D-03  0.330617D-02 -0.285414D-01 -0.127747D+00  0.448030D-01
     34 -0.208299D-02  0.588473D-02 -0.326201D-02  0.510436D-02  0.618359D-02
     35 -0.907417D-03  0.163262D-02 -0.895640D-03  0.998907D-03  0.236458D-02
     36 -0.389957D-03  0.943124D-03 -0.588208D-03  0.164801D-02  0.261201D-02
     37  0.414757D-01 -0.147202D-01  0.362506D-01  0.180455D-01 -0.580138D-02
     38 -0.317105D-01  0.448682D-01  0.429462D-01 -0.179121D-01 -0.999885D-02
     39  0.659048D-01  0.648197D-01  0.499497D-02 -0.246673D-03 -0.225467D-01
     40 -0.143619D-01  0.416194D-01  0.130702D-01 -0.813367D-02 -0.889767D-02
     41  0.483753D-01  0.558542D-01  0.136796D-02 -0.335951D-02 -0.823809D-03
     42  0.353877D-01 -0.375860D-01 -0.575742D-02  0.385264D-02  0.126577D-02
     43 -0.842177D-02 -0.189298D-01  0.393751D-01 -0.614934D-01 -0.467701D-01
     44 -0.569505D-02 -0.132893D-01 -0.708573D-01  0.373798D-01  0.493692D-01
     45 -0.235500D-01 -0.130040D-01 -0.399456D-01  0.360618D-01  0.583931D-02
     46 -0.290375D-02  0.586341D-02 -0.418193D-02  0.399246D-02 -0.569798D-02
     47  0.397432D-02 -0.102745D-01  0.114492D-01 -0.116369D-01 -0.193510D-01
     48 -0.436289D-03 -0.923001D-03 -0.103170D-01 -0.382545D-02  0.126309D-01
               31            32            33            34            35
     31  0.276860D+01
     32 -0.151700D+01  0.279766D+01
     33 -0.454748D+00 -0.347095D+00  0.382306D+01
     34 -0.654186D-02 -0.641766D-02  0.125028D-02  0.165527D+01
     35 -0.119067D-02 -0.268901D-02 -0.239289D-03 -0.134105D+01  0.571268D+01
     36 -0.186994D-02 -0.272636D-02  0.155371D-02 -0.209506D+00  0.615717D-01
     37 -0.310627D-03  0.169108D-02  0.486482D-03 -0.147510D-02 -0.290246D-03
     38  0.120402D-01  0.111064D-01  0.505021D-02  0.568986D-02  0.152475D-02
     39  0.336186D-02  0.384560D-02 -0.105523D-02  0.340008D-02  0.133378D-02
     40  0.147340D-02  0.498019D-02  0.295588D-02  0.642567D-02  0.206710D-02
     41 -0.124877D-02  0.997650D-03  0.113978D-02  0.126315D-02 -0.179153D-03
     42 -0.523024D-02 -0.351162D-02 -0.719283D-03 -0.929896D-03 -0.308829D-03
     43 -0.663312D-01  0.100949D-01  0.229538D-01  0.496949D-02  0.406076D-04
     44  0.206485D-02  0.161040D-01 -0.522295D-02 -0.901998D-02 -0.267670D-02
     45  0.779710D-02 -0.162934D-02  0.173376D-01  0.384978D-02 -0.135728D-02
     46 -0.407066D-02 -0.308711D-02  0.594363D-03 -0.222804D-02  0.564061D-02
     47  0.104471D-01  0.111739D-01  0.129745D-02  0.244149D-01  0.634176D-02
     48  0.109234D-02  0.126775D-02 -0.212909D-02  0.216036D-01  0.146505D-01
               36            37            38            39            40
     36  0.585480D+01
     37  0.221060D-03  0.383592D+01
     38  0.125185D-02  0.812166D+00  0.174228D+01
     39  0.848850D-03  0.236244D+00 -0.770185D+00  0.378108D+01
     40  0.138811D-02 -0.165091D-01  0.522320D-01  0.695837D-01  0.211047D+01
     41  0.256102D-03  0.766441D-01  0.490885D-01 -0.538737D-01 -0.458965D+00
     42 -0.225069D-03  0.406926D-01 -0.213055D-01  0.413134D-01  0.114029D+01
     43  0.393169D-02 -0.309455D-01 -0.317492D-02 -0.177412D-02 -0.832965D-02
     44 -0.336350D-02  0.254019D-02  0.116205D+00  0.662937D-01 -0.100683D-02
     45  0.329803D-02  0.210448D-03  0.585204D-01 -0.262827D-02  0.176612D-02
     46  0.101693D-01 -0.911071D-02  0.913431D-02  0.242647D-01  0.130537D-01
     47  0.165929D-01  0.991470D-03 -0.236878D-01 -0.107288D-01 -0.155398D-01
     48  0.120977D-01  0.145415D-01  0.724976D-02  0.307728D-01  0.387901D-02
               41            42            43            44            45
     41  0.433159D+01
     42  0.247914D+00  0.345901D+01
     43 -0.156957D-01 -0.406779D-02  0.442399D+01
     44 -0.849815D-02 -0.134441D-01  0.120384D+01  0.184581D+01
     45 -0.793169D-03  0.176681D-02  0.351736D+00 -0.688242D+00  0.431946D+01
     46 -0.129722D-02  0.226069D-02 -0.171376D-01 -0.449227D-01  0.177012D-01
     47 -0.351751D-02  0.150204D-03 -0.408663D-01  0.105926D+00 -0.560170D-01
     48 -0.160517D-02 -0.244971D-02  0.148172D-01 -0.494008D-01 -0.891836D-02
               46            47            48
     46  0.458806D+01
     47  0.177769D+01  0.171830D+01
     48  0.197137D+00 -0.876958D+00  0.462341D+01
 ReadGW:  IGet=0 IStart=         114 Next=        7255 LGW=        7141.
 ICntrl=12127.
 Symmetry not used in FoFDir.
 MinBra= 0 MaxBra= 2 Meth= 1.
 IRaf=       0 NMat=   1 IRICut=       1 DoRegI=T DoRafI=F ISym2E= 0 JSym2E=0.
 PrsmSu:  NPrtUS=   8 ThrOK=T
 PRISM was handed    24481559 working-precision words and  2407 shell-pairs
 PRISM was handed    24481559 working-precision words and  2407 shell-pairs
 PRISM was handed    24481559 working-precision words and  2407 shell-pairs
 PRISM was handed    24481559 working-precision words and  2407 shell-pairs
 PRISM was handed    24481559 working-precision words and  2407 shell-pairs
 PRISM was handed    24481559 working-precision words and  2407 shell-pairs
 PRISM was handed    24481559 working-precision words and  2407 shell-pairs
 PRISM was handed    24481559 working-precision words and  2407 shell-pairs
 Pruned (  75, 302) grid will be used in CalDFT.
 CkSvGd:  ISavGI=        -1 IRadAn=       4 IRASav=       4 ISavGd=        -1.
 CalDSu:  NPrtUS=   8 ThrOK=T
 IPart= 0 IRanGd=          0 ScrnBf=T ScrnGd=T RCrit=4.00D+00 DoMicB=T.
 IPart= 2 IRanGd=          0 ScrnBf=T ScrnGd=T RCrit=4.00D+00 DoMicB=T.
 IPart= 7 IRanGd=          0 ScrnBf=T ScrnGd=T RCrit=4.00D+00 DoMicB=T.
 IPart= 3 IRanGd=          0 ScrnBf=T ScrnGd=T RCrit=4.00D+00 DoMicB=T.
 CutRad = 1000.00    CtRdIn =    0.00    XCrit =  15.00   ICut = 0
 IPart= 5 IRanGd=          0 ScrnBf=T ScrnGd=T RCrit=4.00D+00 DoMicB=T.
 CutRad = 1000.00    CtRdIn =    0.00    XCrit =  15.00   ICut = 0
 IPart= 4 IRanGd=          0 ScrnBf=T ScrnGd=T RCrit=4.00D+00 DoMicB=T.
 IPart= 6 IRanGd=          0 ScrnBf=T ScrnGd=T RCrit=4.00D+00 DoMicB=T.
 CutRad = 1000.00    CtRdIn =    0.00    XCrit =  15.00   ICut = 0
 CutRad = 1000.00    CtRdIn =    0.00    XCrit =  15.00   ICut = 0
 CutRad = 1000.00    CtRdIn =    0.00    XCrit =  15.00   ICut = 0
 CutRad = 1000.00    CtRdIn =    0.00    XCrit =  15.00   ICut = 0
 CutRad = 1000.00    CtRdIn =    0.00    XCrit =  15.00   ICut = 0
 IPart= 1 IRanGd=          0 ScrnBf=T ScrnGd=T RCrit=4.00D+00 DoMicB=T.
 CutRad = 1000.00    CtRdIn =    0.00    XCrit =  15.00   ICut = 0
 IPart= 5        14418 of        16432 points in      34 batches and      103 microbatches, Max-NSigAt=      16 Max-NSgAt2=      16
 IPart= 1        14323 of        16064 points in      33 batches and       96 microbatches, Max-NSigAt=      16 Max-NSgAt2=      16
 IPart= 3        12913 of        14892 points in      31 batches and       89 microbatches, Max-NSigAt=      16 Max-NSgAt2=      16
 IPart= 2        14406 of        16138 points in      34 batches and      104 microbatches, Max-NSigAt=      16 Max-NSgAt2=      16
 IPart= 7        14824 of        16404 points in      34 batches and      108 microbatches, Max-NSigAt=      16 Max-NSgAt2=      16
 IPart= 0        13654 of        15944 points in      32 batches and       88 microbatches, Max-NSigAt=      16 Max-NSgAt2=      16
 IPart= 6        12875 of        14606 points in      30 batches and       81 microbatches, Max-NSigAt=      16 Max-NSgAt2=      16
 IPart= 4        15426 of        17894 points in      38 batches and      120 microbatches, Max-NSigAt=      16 Max-NSgAt2=      16
 Polarizability after L703:
                1             2             3
      1  0.688267D+02
      2  0.450354D+01  0.504307D+02
      3  0.626901D+01 -0.193953D+01  0.121796D+03
 Dipole Derivatives after L703:
               1            2            3            4            5
      1-0.120009D+01-0.626092D-01 0.398809D+00-0.295429D+00 0.195176D+00
      2-0.191317D+00-0.307751D+00 0.142307D+00 0.350191D-01-0.300468D+00
      3 0.237017D+00 0.100138D+00-0.335725D+00-0.668441D+00 0.497934D+00
               6            7            8            9           10
      1-0.378629D+00-0.316572D+00-0.219512D+00 0.450176D+00 0.134390D+00
      2-0.185412D+00 0.168271D-01-0.426187D+00 0.449147D-01 0.105186D+00
      3-0.202726D+01 0.968640D+00 0.389270D-01 0.174273D+01 0.226146D+00
              11           12           13           14           15
      1 0.480947D-02-0.147639D+00 0.124709D-01 0.578855D-01-0.119443D+00
      2 0.223101D-01 0.159559D+00-0.443012D-01 0.105717D+00-0.426278D-01
      3 0.274936D+00-0.467965D+00-0.110782D-01 0.140283D+00-0.638617D-03
              16           17           18           19           20
      1-0.615143D-01-0.205745D+00 0.502763D+00 0.121301D+01 0.285617D+00
      2-0.992330D-01 0.745058D-02 0.196034D+00 0.192378D+00 0.622390D+00
      3-0.496637D-01-0.241569D+00 0.732220D+00-0.834732D+00-0.582050D+00
              21           22           23           24           25
      1-0.780210D+00 0.329580D+00-0.211783D-01-0.432520D-01 0.253277D-01
      2-0.153792D+00-0.444766D-01 0.166101D+00-0.227755D-01-0.361808D-02
      3-0.442707D+00-0.103624D+00-0.456642D-01 0.283554D+00-0.712745D-01
              26           27           28           29           30
      1-0.246299D-01-0.987657D-01 0.364533D-01 0.564886D-01 0.322024D-01
      2 0.174341D-01 0.517797D-01-0.578199D-02-0.187214D-01-0.844032D-01
      3 0.352696D-01-0.118067D+00 0.447027D-01-0.104348D+00 0.910250D-01
              31           32           33           34           35
      1-0.142609D-01-0.678970D-01-0.298237D-01 0.178523D+00-0.589631D-01
      2-0.536546D-01 0.176206D-01-0.681146D-01-0.711646D-01 0.285445D+00
      3 0.179930D-01-0.790248D-01 0.109476D+00 0.182920D+00 0.103549D+00
              36           37           38           39           40
      1 0.420116D-01 0.180031D-01 0.357977D-01-0.737983D-02-0.370021D-01
      2 0.432425D-01 0.101696D+00-0.100613D+00-0.288133D-01-0.215591D-01
      3 0.230573D+00 0.342300D-01-0.635189D-01 0.538671D-01 0.179406D-01
              41           42           43           44           45
      1-0.189371D-01 0.106711D+00-0.276966D-01 0.536282D-01-0.366718D-01
      2 0.596669D-01 0.159346D-01 0.317907D-01-0.601157D-01-0.942287D-01
      3-0.343046D-01 0.690038D-01-0.554729D-01-0.716193D-03-0.153868D-01
              46           47           48
      1 0.480873D-02-0.993077D-02 0.109141D+00
      2 0.522093D-01-0.902792D-01 0.263965D-01
      3 0.646981D-01-0.398421D-01 0.953039D-01
 Hessian after L703:
                1             2             3             4             5
      1  0.372417D+00
      2 -0.395741D-01  0.453715D+00
      3 -0.131070D+00  0.220115D+00  0.207195D+00
      4 -0.486120D-03  0.249852D-02  0.647201D-02  0.481086D+00
      5  0.530537D-02  0.150647D-03 -0.995623D-02  0.176810D+00  0.701946D-01
      6 -0.110126D-01  0.122396D-02  0.297102D-01 -0.321158D-01  0.120139D-02
      7 -0.556237D-01 -0.531052D-01 -0.430489D-01 -0.585607D-02 -0.413603D-01
      8 -0.425396D-01 -0.258001D-02 -0.936846D-02  0.988971D-03 -0.461592D-01
      9  0.126781D-01  0.420723D-02 -0.231583D-01  0.225559D-01 -0.278012D-01
     10  0.921939D-02  0.966786D-03 -0.134173D-01  0.124183D-01 -0.168937D-01
     11 -0.185334D-02  0.217572D-03  0.936075D-03  0.101252D-02 -0.154006D-02
     12  0.337054D-03  0.187784D-02  0.138687D-02 -0.694857D-02  0.750230D-02
     13 -0.258196D-02 -0.118259D-03 -0.191475D-03  0.570774D-03 -0.961854D-03
     14 -0.114341D-02  0.134110D-02 -0.826087D-03  0.188062D-02 -0.185525D-02
     15 -0.189838D-02 -0.150968D-02 -0.169299D-02 -0.224462D-03 -0.328038D-03
     16 -0.205502D-01 -0.983638D-02  0.274625D-01 -0.894540D-02  0.128266D-01
     17 -0.901611D-02 -0.967550D-04  0.929225D-02 -0.820916D-02  0.100297D-01
     18  0.199193D-01  0.658017D-02 -0.334418D-01  0.234713D-01 -0.312951D-01
     19 -0.223496D+00  0.109898D-01  0.877208D-01 -0.181152D-01  0.169979D-01
     20 -0.127286D-01 -0.101784D+00 -0.338923D-02 -0.810029D-02  0.303173D-01
     21  0.234486D-01 -0.274705D-01 -0.510248D-01 -0.526133D-01  0.371409D-01
     22 -0.628645D-01  0.585018D-01  0.506213D-01 -0.149279D-02  0.170161D-02
     23  0.100497D+00 -0.358356D+00 -0.205993D+00 -0.505357D-03  0.357316D-03
     24  0.718217D-01 -0.193383D+00 -0.126642D+00 -0.944690D-03  0.181162D-02
     25  0.129942D-02  0.244962D-03  0.872870D-03 -0.851290D-04  0.237558D-04
     26  0.506932D-03  0.166577D-03  0.334721D-03 -0.278822D-03  0.112489D-03
     27 -0.751758D-03 -0.204022D-03 -0.200471D-04 -0.383657D-03  0.313716D-03
     28 -0.170157D-03 -0.455714D-03  0.299151D-03  0.145845D-03 -0.438313D-04
     29  0.340088D-03  0.127798D-03 -0.287181D-03  0.216162D-03 -0.172938D-03
     30 -0.480192D-03  0.121149D-03  0.358131D-03  0.616363D-04  0.189014D-04
     31  0.399753D-03  0.245006D-04  0.246890D-03  0.268881D-03 -0.633623D-04
     32  0.459882D-03  0.149287D-03 -0.107273D-03  0.442357D-04 -0.195465D-04
     33 -0.418294D-03 -0.141843D-03  0.353447D-03 -0.150343D-03  0.177610D-03
     34  0.237500D-02  0.819564D-03 -0.974554D-03 -0.459741D+00 -0.154374D+00
     35  0.273875D-03  0.100705D-03 -0.127552D-02 -0.166406D+00 -0.620617D-01
     36  0.184082D-02  0.446356D-03  0.488571D-03  0.374668D-01  0.241909D-01
     37  0.590965D-03 -0.304300D-03  0.261817D-03  0.259484D-03 -0.281358D-03
     38  0.161278D-03  0.118106D-03 -0.329630D-03 -0.541530D-04  0.345711D-04
     39 -0.316903D-03  0.722741D-03 -0.716195D-03  0.590329D-04  0.108311D-04
     40  0.247950D-02  0.332744D-03  0.162091D-02 -0.252245D-03  0.257186D-03
     41  0.150532D-02 -0.653034D-03  0.668072D-03  0.226780D-04 -0.206667D-03
     42  0.613032D-03 -0.252629D-03 -0.311314D-02  0.155662D-03 -0.193589D-03
     43  0.129979D-03  0.137378D-03  0.265722D-03 -0.112147D-02  0.959870D-03
     44 -0.678290D-03  0.182521D-02 -0.193888D-02  0.154726D-02 -0.184887D-02
     45 -0.124316D-02 -0.241320D-02  0.393461D-02 -0.202551D-02  0.224842D-02
     46 -0.231377D-01  0.288780D-01  0.128579D-01  0.134668D-02 -0.903466D-03
     47 -0.151602D-02  0.555756D-02  0.212574D-02 -0.146729D-02  0.266768D-02
     48  0.165324D-01 -0.991921D-02 -0.361732D-02  0.516409D-02 -0.504240D-02
                6             7             8             9            10
      6 -0.100562D-01
      7  0.752171D-01  0.180897D+00
      8  0.453285D-01  0.161895D+00  0.323466D+00
      9  0.925155D-01  0.715978D-02  0.770068D-01  0.652381D-02
     10  0.435358D-01 -0.353430D-01 -0.102683D-01 -0.600715D-01  0.572832D+00
     11  0.376509D-02 -0.273294D-02  0.157270D-02 -0.600540D-02  0.704239D-01
     12 -0.194162D-01  0.203360D-01  0.419493D-02  0.234306D-01 -0.875520D-01
     13  0.154157D-02 -0.153743D-02  0.250684D-03 -0.242154D-02 -0.296776D-01
     14  0.726257D-02 -0.449861D-02 -0.207333D-02 -0.811691D-02 -0.108030D-01
     15 -0.162103D-02  0.958870D-03  0.253516D-02 -0.716320D-03  0.686075D-02
     16 -0.371934D-01  0.275958D-01  0.118280D-01  0.438126D-01 -0.274421D+00
     17 -0.291023D-01  0.224647D-01  0.649756D-02  0.340747D-01  0.238361D-01
     18  0.837827D-01 -0.764535D-01 -0.228366D-01 -0.140224D+00 -0.571355D-02
     19 -0.526729D-01 -0.127360D+00 -0.951048D-01 -0.135078D-01  0.153736D-01
     20 -0.474837D-01 -0.891424D-01 -0.258585D+00 -0.636842D-01  0.642391D-02
     21 -0.156187D+00  0.413615D-01 -0.714181D-01  0.540574D-01  0.989396D-01
     22 -0.476501D-02  0.105147D-01 -0.573144D-03  0.272886D-02  0.126174D-02
     23 -0.239137D-02 -0.146729D-02 -0.947777D-03  0.357366D-02  0.163527D-02
     24 -0.433849D-02 -0.401776D-03  0.178328D-02  0.535141D-02  0.172375D-02
     25 -0.665105D-03  0.401130D-03  0.538327D-03 -0.510647D-04  0.914352D-03
     26 -0.107649D-02  0.694463D-03  0.965842D-03  0.105755D-02  0.231885D-03
     27 -0.143613D-02  0.724551D-03  0.281580D-03  0.123634D-02  0.270140D-02
     28  0.279047D-03  0.110467D-03 -0.121326D-03 -0.557372D-03 -0.893306D-01
     29  0.580216D-03 -0.774662D-03 -0.210511D-05 -0.702541D-03  0.723588D-01
     30  0.222606D-03  0.399959D-03  0.432311D-03 -0.447925D-03  0.590114D-01
     31  0.651891D-03 -0.899261D-04  0.321642D-03 -0.822084D-03 -0.170822D+00
     32 -0.135655D-03  0.102037D-02  0.372950D-03 -0.291188D-03 -0.132922D+00
     33 -0.631765D-03 -0.799669D-04  0.575550D-04  0.629529D-03 -0.523614D-01
     34  0.139470D-01 -0.203244D-02 -0.215550D-02  0.243535D-03 -0.274702D-03
     35  0.132055D-01  0.114031D-01  0.271711D-02  0.450470D-02 -0.356079D-03
     36 -0.206321D-01 -0.220385D-01 -0.614075D-02 -0.653426D-02  0.274105D-03
     37  0.954917D-03 -0.525480D-03 -0.136196D-03 -0.117670D-02  0.974791D-03
     38 -0.130818D-03 -0.385582D-04  0.600220D-03  0.380998D-03  0.146281D-02
     39  0.310397D-03 -0.337226D-03  0.346727D-03 -0.292451D-03  0.845026D-03
     40 -0.626125D-03  0.910721D-03  0.577130D-03  0.560886D-03 -0.174114D-02
     41  0.328414D-03 -0.236166D-03 -0.113284D-03 -0.641882D-03 -0.254971D-02
     42  0.506935D-03  0.472383D-03  0.336406D-03 -0.612916D-03 -0.238392D-02
     43 -0.336747D-02  0.231460D-02  0.866413D-03  0.351945D-02 -0.870809D-02
     44  0.592703D-02 -0.513740D-02 -0.194550D-03 -0.902922D-02 -0.510505D-02
     45 -0.854485D-02  0.683317D-02  0.520739D-02  0.116097D-01  0.165973D-01
     46  0.629105D-02  0.562395D-02 -0.263672D-01 -0.146510D-01 -0.267635D-02
     47  0.149766D-02  0.101608D-02 -0.255370D-01 -0.853308D-02  0.155835D-02
     48  0.158150D-01 -0.111035D-01 -0.277467D-01 -0.233686D-01 -0.898946D-02
               11            12            13            14            15
     11  0.491876D+00
     12  0.231133D+00  0.260598D+00
     13 -0.208055D-01 -0.163941D-01  0.530817D+00
     14  0.269541D-03  0.168923D-02 -0.362249D-01  0.530745D+00
     15  0.747394D-02  0.540260D-02 -0.457032D-01 -0.248895D-01  0.530503D+00
     16 -0.565066D-03  0.658224D-01 -0.125453D+00 -0.339459D-01 -0.385885D-01
     17 -0.865447D-01 -0.348625D-01 -0.376386D-01 -0.115993D+00 -0.446175D-01
     18 -0.276575D-01 -0.466213D-01 -0.337637D-01 -0.455336D-01 -0.884152D-01
     19 -0.255082D-02  0.262088D-02  0.148372D-02  0.733342D-02 -0.110149D-01
     20 -0.196605D-02 -0.403565D-02 -0.404775D-03  0.539344D-02 -0.568535D-02
     21  0.692923D-02 -0.478876D-01 -0.561291D-02  0.107714D-01 -0.225424D-01
     22  0.592834D-04 -0.787488D-03 -0.104710D-04  0.675028D-03 -0.507679D-03
     23 -0.151253D-03 -0.349729D-03 -0.106232D-03 -0.229338D-03  0.854506D-04
     24  0.431522D-03 -0.539211D-03 -0.192229D-04  0.607065D-03 -0.773890D-03
     25 -0.639126D-03 -0.106053D-02 -0.585059D-01  0.297642D-01 -0.523098D-01
     26  0.278872D-03 -0.100076D-02  0.290316D-01 -0.100397D+00  0.101895D+00
     27 -0.319049D-03 -0.974766D-05 -0.518045D-01  0.103503D+00 -0.236419D+00
     28  0.695428D-01  0.601701D-01  0.196434D-02  0.220911D-02 -0.228527D-04
     29 -0.214186D+00 -0.130935D+00 -0.131546D-02  0.908518D-04  0.134108D-02
     30 -0.126537D+00 -0.110789D+00 -0.357369D-03  0.205846D-02 -0.137106D-02
     31 -0.133456D+00 -0.466525D-01 -0.350352D-02  0.199561D-04  0.467184D-02
     32 -0.191888D+00 -0.747500D-01  0.438991D-03  0.213731D-02 -0.979418D-03
     33 -0.791702D-01 -0.603664D-01  0.102601D-02 -0.290667D-02  0.154682D-02
     34 -0.103318D-03  0.301832D-03 -0.337944D-04 -0.303171D-03  0.165124D-03
     35 -0.407974D-04  0.386377D-03 -0.858372D-05 -0.192047D-03  0.164745D-03
     36 -0.182071D-03 -0.169008D-03 -0.205924D-04  0.104113D-03 -0.186111D-03
     37 -0.994573D-03 -0.198773D-03 -0.893226D-01  0.933749D-01  0.232209D-01
     38  0.968780D-03 -0.174629D-03  0.908023D-01 -0.252191D+00 -0.499324D-01
     39  0.107041D-02  0.444076D-03  0.225927D-01 -0.488889D-01 -0.582488D-01
     40 -0.397835D-02 -0.211937D-02 -0.232801D+00 -0.286899D-01  0.119254D+00
     41 -0.208702D-02 -0.189893D-02 -0.288816D-01 -0.540429D-01  0.182237D-01
     42 -0.227388D-02 -0.166327D-02  0.124598D+00  0.186208D-01 -0.123944D+00
     43  0.281445D-01  0.101221D-01  0.868982D-02 -0.197721D-01 -0.497339D-02
     44  0.261585D-02  0.248539D-02  0.591474D-02 -0.135427D-01 -0.303056D-02
     45 -0.107378D-01 -0.743498D-02  0.610332D-02 -0.132964D-01 -0.357432D-02
     46 -0.150424D-02  0.200288D-02 -0.975920D-04  0.123781D-03  0.111517D-03
     47  0.604598D-03 -0.126129D-02  0.273579D-04  0.538334D-03 -0.746385D-03
     48  0.114379D-02  0.363438D-02  0.427130D-03 -0.158156D-03  0.205219D-02
               16            17            18            19            20
     16  0.561409D+00
     17 -0.592125D-01  0.495032D+00
     18  0.203995D-01  0.196654D+00  0.987759D-01
     19 -0.365694D-01 -0.649706D-02  0.414524D-01  0.515405D+00
     20  0.552385D-02 -0.352657D-01  0.101520D-01 -0.400137D-01  0.634217D+00
     21 -0.961812D-01 -0.613189D-01  0.182409D+00 -0.583627D-01  0.140376D+00
     22 -0.857886D-03 -0.947412D-03  0.247828D-02 -0.249292D-01  0.430914D-01
     23 -0.251763D-02 -0.633287D-03  0.326140D-02  0.254014D-02  0.284329D-02
     24 -0.132787D-02 -0.234387D-02  0.341499D-02  0.661185D-02 -0.154750D-01
     25 -0.977233D-02  0.824429D-02 -0.184560D-01 -0.309583D-02 -0.200711D-02
     26 -0.639378D-02  0.758655D-02 -0.154204D-01 -0.262284D-02 -0.161850D-02
     27 -0.666416D-02  0.499623D-02 -0.110098D-01 -0.801204D-03 -0.124787D-02
     28 -0.679382D-02  0.235276D-01  0.133565D-01 -0.326051D-03  0.787574D-03
     29 -0.138956D-02  0.401045D-02 -0.265144D-03  0.314763D-03 -0.566867D-03
     30  0.281459D-02 -0.117865D-01 -0.115856D-02 -0.897803D-04 -0.152312D-03
     31 -0.124110D-01 -0.197304D-01 -0.120022D-01 -0.811364D-03 -0.362577D-03
     32  0.113726D-02  0.228768D-02 -0.162599D-02 -0.427109D-03 -0.220162D-03
     33  0.987617D-02  0.926194D-02  0.916462D-02 -0.470786D-03 -0.299740D-03
     34  0.212708D-03  0.631570D-03 -0.770301D-03 -0.182233D-02 -0.491365D-03
     35  0.370489D-03  0.675615D-03 -0.958925D-03 -0.700071D-03 -0.207350D-02
     36 -0.301144D-03 -0.491166D-03  0.526697D-03 -0.341990D-02  0.176044D-02
     37  0.943505D-02 -0.212561D-01 -0.582891D-02  0.258267D-03  0.219311D-03
     38  0.712762D-02 -0.178910D-01 -0.416910D-02 -0.691399D-05 -0.494319D-03
     39  0.679956D-02 -0.169142D-01 -0.648751D-02  0.102041D-02 -0.162819D-02
     40 -0.183245D-01 -0.102908D-02  0.916206D-02 -0.399383D-02 -0.159394D-02
     41 -0.139712D-01 -0.135929D-02  0.870306D-02 -0.926145D-03  0.190928D-03
     42 -0.152598D-01  0.662715D-04  0.860171D-02 -0.315155D-02 -0.376849D-03
     43 -0.881407D-01  0.831246D-01  0.277709D-01 -0.115382D-02 -0.602091D-03
     44  0.899025D-01 -0.261895D+00 -0.813469D-01  0.747306D-02 -0.803749D-02
     45  0.135181D-01 -0.726538D-01 -0.390168D-01 -0.117152D-01  0.160391D-01
     46  0.358726D-02  0.170737D-02 -0.502195D-02 -0.908473D-01  0.994008D-01
     47 -0.884413D-03 -0.644122D-02  0.575837D-02  0.103200D+00 -0.262350D+00
     48  0.501063D-02  0.197450D-01 -0.203014D-01  0.157803D-01 -0.248695D-01
               21            22            23            24            25
     21  0.109363D+00
     22  0.252629D-01  0.844103D-01
     23 -0.168707D-02 -0.100242D+00  0.355705D+00
     24 -0.115496D-01 -0.776109D-01  0.204779D+00  0.134022D+00
     25  0.851417D-04  0.615741D-04  0.000000D+00  0.182233D-04  0.632643D-01
     26 -0.200348D-02 -0.154942D-04  0.360036D-04 -0.653830D-04 -0.289157D-01
     27 -0.251120D-02 -0.237858D-03  0.342153D-04 -0.923409D-04  0.594353D-01
     28  0.203418D-04  0.513196D-04  0.345726D-04 -0.189019D-03 -0.323984D-03
     29  0.124499D-02 -0.326228D-04  0.380001D-04  0.661341D-04  0.429174D-03
     30 -0.425550D-04 -0.158768D-04 -0.891374D-04 -0.180848D-04 -0.447619D-03
     31  0.476491D-04 -0.235082D-04 -0.225288D-04 -0.234845D-04  0.211043D-03
     32 -0.471524D-03 -0.737190D-04  0.423217D-04 -0.463378D-04 -0.423355D-03
     33 -0.113414D-02  0.387458D-04 -0.438616D-04 -0.818937D-05  0.723313D-03
     34  0.202876D-03 -0.125397D-04 -0.189657D-03  0.472018D-03  0.933123D-04
     35  0.398873D-02  0.121005D-03 -0.132165D-04  0.161200D-03  0.441196D-04
[...]
    Y6        1.46983   0.00000   0.00000   0.00010   0.00009   1.46992
    Z6       -3.72652  -0.00001   0.00000  -0.00001   0.00000  -3.72653
    X7        2.15047   0.00001   0.00000   0.00010   0.00011   2.15058
    Y7        0.04979   0.00001   0.00000  -0.00011  -0.00012   0.04968
    Z7       -0.38804   0.00002   0.00000   0.00006   0.00007  -0.38797
    X8       -0.79610   0.00000   0.00000  -0.00023  -0.00027  -0.79637
    Y8        1.27534   0.00001   0.00000  -0.00068  -0.00080   1.27454
    Z8        1.22913   0.00000   0.00000  -0.00022  -0.00021   1.22892
    X9       -0.19959   0.00000   0.00000   0.00069   0.00068  -0.19892
    Y9        0.77968   0.00000   0.00000  -0.00011  -0.00020   0.77948
    Z9       -6.93254   0.00000   0.00000  -0.00041  -0.00040  -6.93293
   X10        5.47085   0.00000   0.00000  -0.00010  -0.00009   5.47076
   Y10       -0.07540   0.00000   0.00000  -0.00023  -0.00013  -0.07553
   Z10       -5.68095   0.00000   0.00000   0.00007   0.00008  -5.68087
   X11        6.04110   0.00000   0.00000   0.00018   0.00009   6.04119
   Y11        2.93301   0.00000   0.00000  -0.00026  -0.00014   2.93287
   Z11       -3.98539   0.00000   0.00000   0.00002   0.00003  -3.98537
   X12        5.88916   0.00001   0.00000   0.00020   0.00017   5.88933
   Y12        1.12596   0.00000   0.00000   0.00001   0.00013   1.12608
   Z12        3.69462   0.00000   0.00000  -0.00032  -0.00031   3.69431
   X13        1.10252   0.00000   0.00000  -0.00071  -0.00063   1.10189
   Y13       -2.00026   0.00000   0.00000  -0.00018  -0.00023  -2.00048
   Z13       -5.61702   0.00000   0.00000   0.00087   0.00088  -5.61614
   X14       -1.41503   0.00000   0.00000  -0.00050  -0.00047  -1.41550
   Y14       -0.43511   0.00001   0.00000   0.00131   0.00117  -0.43394
   Z14       -4.06189   0.00000   0.00000  -0.00028  -0.00027  -4.06216
   X15        1.46575   0.00000   0.00000   0.00023   0.00013   1.46588
   Y15        3.31186   0.00001   0.00000   0.00017   0.00014   3.31199
   Z15       -3.17710   0.00001   0.00000   0.00009   0.00010  -3.17700
   X16        2.97624   0.00000   0.00000   0.00047   0.00054   2.97679
   Y16       -1.80475   0.00000   0.00000   0.00008   0.00010  -1.80465
   Z16       -0.73353   0.00000   0.00000  -0.00005  -0.00004  -0.73358
         Item               Value     Threshold  Converged?
 Maximum Force            0.000015     0.000450     YES
 RMS     Force            0.000006     0.000300     YES
 Maximum Displacement     0.001173     0.001800     YES
 RMS     Displacement     0.000352     0.001200     YES
 Predicted change in Energy=-4.825880D-09
 Optimization completed.
    -- Stationary point found.
 GradGradGradGradGradGradGradGradGradGradGradGradGradGradGradGradGradGrad


 Test job not archived.
 1\1\GINC-NODE52\Freq\UB3LYP\CBSB7\C4H9O3(2)\GOLDMANM\26-Jun-2019\0\\# 
 freq nosymm b3lyp/cbsb7 iop(7/33=1)\\NBO NRT\\0,2\O,-0.17565,-0.12891,
 0.17221\O,2.20071,0.2847,1.98555\O,1.8334,0.91903,0.44001\C,2.49899,0.
 7889,-2.42886\C,0.16147,-0.07929,-2.72867\C,1.1654,0.7778,-1.97199\C,1
 .13798,0.02635,-0.20534\H,-0.42128,0.67488,0.65043\H,-0.10562,0.41259,
 -3.66854\H,2.89505,-0.0399,-3.00623\H,3.19681,1.55208,-2.10898\H,3.116
 41,0.59583,1.95511\H,0.58343,-1.05849,-2.9724\H,-0.7488,-0.23025,-2.14
 946\H,0.77564,1.75256,-1.68125\H,1.57496,-0.95503,-0.38817\\Version=AM
 64L-G03RevD.01\HF=-383.4389895\S2=0.820517\S2-1=0.\S2A=0.750946\RMSD=4
 .305e-09\RMSF=5.921e-06\ZeroPoint=0.1258788\Thermal=0.1354255\Dipole=0
 .2234824,0.2659577,-0.7700813\DipoleDeriv=-1.2000882,-0.1913169,0.2370
 169,-0.0626092,-0.307751,0.1001384,0.3988093,0.1423068,-0.3357251,-0.2
 954292,0.0350191,-0.6684411,0.1951756,-0.3004683,0.4979342,-0.3786292,
 -0.1854119,-2.0272646,-0.3165721,0.0168271,0.9686395,-0.2195119,-0.426
 1865,0.038927,0.450176,0.0449147,1.7427318,0.1343898,0.1051859,0.22614
 58,0.0048095,0.0223101,0.274936,-0.1476386,0.1595591,-0.467965,0.01247
 09,-0.0443012,-0.0110782,0.0578855,0.1057174,0.140283,-0.1194428,-0.04
 26278,-0.0006386,-0.0615143,-0.099233,-0.0496637,-0.205745,0.0074506,-
 0.2415695,0.5027627,0.1960337,0.7322198,1.2130063,0.1923783,-0.8347318
 ,0.2856172,0.6223897,-0.5820496,-0.7802104,-0.1537925,-0.4427069,0.329
 5802,-0.0444766,-0.1036241,-0.0211783,0.1661009,-0.0456642,-0.043252,-
 0.0227755,0.2835544,0.0253277,-0.0036181,-0.0712745,-0.0246299,0.01743
 41,0.0352696,-0.0987657,0.0517797,-0.1180674,0.0364533,-0.005782,0.044
 7027,0.0564886,-0.0187214,-0.1043476,0.0322024,-0.0844032,0.091025,-0.
 0142609,-0.0536546,0.017993,-0.067897,0.0176206,-0.0790248,-0.0298237,
 -0.0681146,0.1094759,0.1785234,-0.0711646,0.1829195,-0.0589631,0.28544
 5,0.1035493,0.0420116,0.0432425,0.2305727,0.0180031,0.1016957,0.03423,
 0.0357977,-0.1006131,-0.0635189,-0.0073798,-0.0288133,0.0538671,-0.037
 0021,-0.0215591,0.0179406,-0.0189371,0.0596669,-0.0343046,0.1067113,0.
 0159346,0.0690038,-0.0276966,0.0317907,-0.0554729,0.0536282,-0.0601157
 ,-0.0007162,-0.0366718,-0.0942287,-0.0153868,0.0048087,0.0522093,0.064
 6981,-0.0099308,-0.0902792,-0.0398421,0.1091408,0.0263965,0.0953039\Po
 lar=68.826715,4.5035416,50.4306612,6.269013,-1.9395292,121.7962769\PG=
 C01 [X(C4H9O3)]\NImag=1\\0.37241659,-0.03957413,0.45371531,-0.13106976
 ,0.22011452,0.20719465,-0.00048612,0.00249852,0.00647201,0.48108589,0.
 00530537,0.00015065,-0.00995623,0.17680975,0.07019460,-0.01101259,0.00
 122396,0.02971020,-0.03211583,0.00120139,-0.01005623,-0.05562367,-0.05
 310525,-0.04304886,-0.00585607,-0.04136035,0.07521709,0.18089655,-0.04
 253962,-0.00258001,-0.00936846,0.00098897,-0.04615924,0.04532853,0.161
 89485,0.32346579,0.01267810,0.00420723,-0.02315833,0.02255588,-0.02780
 120,0.09251554,0.00715978,0.07700679,0.00652381,0.00921939,0.00096679,
 -0.01341732,0.01241826,-0.01689373,0.04353579,-0.03534302,-0.01026831,
 -0.06007154,0.57283245,-0.00185334,0.00021757,0.00093608,0.00101252,-0
 .00154006,0.00376509,-0.00273294,0.00157270,-0.00600540,0.07042388,0.4
 9187600,0.00033705,0.00187784,0.00138687,-0.00694857,0.00750230,-0.019
 41617,0.02033602,0.00419493,0.02343065,-0.08755202,0.23113263,0.260597
 63,-0.00258196,-0.00011826,-0.00019148,0.00057077,-0.00096185,0.001541
 57,-0.00153743,0.00025068,-0.00242154,-0.02967761,-0.02080550,-0.01639
 406,0.53081662,-0.00114341,0.00134110,-0.00082609,0.00188062,-0.001855
 25,0.00726257,-0.00449861,-0.00207333,-0.00811691,-0.01080302,0.000269
 54,0.00168923,-0.03622490,0.53074548,-0.00189838,-0.00150968,-0.001692
 99,-0.00022446,-0.00032804,-0.00162103,0.00095887,0.00253516,-0.000716
 32,0.00686075,0.00747394,0.00540260,-0.04570320,-0.02488946,0.53050270
 ,-0.02055024,-0.00983638,0.02746253,-0.00894540,0.01282658,-0.03719336
 ,0.02759581,0.01182804,0.04381260,-0.27442145,-0.00056507,0.06582244,-
 0.12545313,-0.03394587,-0.03858851,0.56140899,-0.00901611,-0.00009675,
 0.00929225,-0.00820916,0.01002968,-0.02910229,0.02246474,0.00649756,0.
 03407474,0.02383612,-0.08654472,-0.03486250,-0.03763856,-0.11599279,-0
 .04461746,-0.05921245,0.49503226,0.01991932,0.00658017,-0.03344177,0.0
 2347128,-0.03129515,0.08378269,-0.07645354,-0.02283664,-0.14022351,-0.
 00571355,-0.02765748,-0.04662128,-0.03376374,-0.04553358,-0.08841525,0
 .02039950,0.19665431,0.09877593,-0.22349632,0.01098982,0.08772082,-0.0
 1811520,0.01699785,-0.05267288,-0.12735986,-0.09510478,-0.01350776,0.0
 1537357,-0.00255082,0.00262088,0.00148372,0.00733342,-0.01101494,-0.03
 656938,-0.00649706,0.04145241,0.51540488,-0.01272858,-0.10178445,-0.00
 338923,-0.00810029,0.03031731,-0.04748375,-0.08914238,-0.25858489,-0.0
 6368425,0.00642391,-0.00196605,-0.00403565,-0.00040478,0.00539344,-0.0
 0568535,0.00552385,-0.03526573,0.01015198,-0.04001372,0.63421660,0.023
 44856,-0.02747048,-0.05102484,-0.05261330,0.03714095,-0.15618654,0.041
 36152,-0.07141808,0.05405737,0.09893961,0.00692923,-0.04788759,-0.0056
 1291,0.01077142,-0.02254236,-0.09618124,-0.06131894,0.18240921,-0.0583
 6268,0.14037614,0.10936349,-0.06286448,0.05850177,0.05062131,-0.001492
 79,0.00170161,-0.00476501,0.01051466,-0.00057314,0.00272886,0.00126174
 ,0.00005928,-0.00078749,-0.00001047,0.00067503,-0.00050768,-0.00085789
 ,-0.00094741,0.00247828,-0.02492918,0.04309136,0.02526286,0.08441030,0
 .10049677,-0.35835563,-0.20599288,-0.00050536,0.00035732,-0.00239137,-
 0.00146729,-0.00094778,0.00357366,0.00163527,-0.00015125,-0.00034973,-
 0.00010623,-0.00022934,0.00008545,-0.00251763,-0.00063329,0.00326140,0
 .00254014,0.00284329,-0.00168707,-0.10024188,0.35570501,0.07182173,-0.
 19338291,-0.12664185,-0.00094469,0.00181162,-0.00433849,-0.00040178,0.
 00178328,0.00535141,0.00172375,0.00043152,-0.00053921,-0.00001922,0.00
 060706,-0.00077389,-0.00132787,-0.00234387,0.00341499,0.00661185,-0.01
 547502,-0.01154958,-0.07761094,0.20477869,0.13402184,0.00129942,0.0002
 4496,0.00087287,-0.00008513,0.00002376,-0.00066510,0.00040113,0.000538
 33,-0.00005106,0.00091435,-0.00063913,-0.00106053,-0.05850595,0.029764
 19,-0.05230979,-0.00977233,0.00824429,-0.01845597,-0.00309583,-0.00200
 711,0.00008514,0.00006157,0.00000057,0.00001822,0.06326426,0.00050693,
 0.00016658,0.00033472,-0.00027882,0.00011249,-0.00107649,0.00069446,0.
 00096584,0.00105755,0.00023188,0.00027887,-0.00100076,0.02903165,-0.10
 039656,0.10189473,-0.00639378,0.00758655,-0.01542040,-0.00262284,-0.00
 161850,-0.00200348,-0.00001549,0.00003600,-0.00006538,-0.02891573,0.10
 769111,-0.00075176,-0.00020402,-0.00002005,-0.00038366,0.00031372,-0.0
 0143613,0.00072455,0.00028158,0.00123634,0.00270140,-0.00031905,-0.000
 00975,-0.05180447,0.10350258,-0.23641855,-0.00666416,0.00499623,-0.011
 00977,-0.00080120,-0.00124787,-0.00251120,-0.00023786,0.00003422,-0.00
 009234,0.05943534,-0.11165504,0.25689008,-0.00017016,-0.00045571,0.000
 29915,0.00014585,-0.00004383,0.00027905,0.00011047,-0.00012133,-0.0005
 5737,-0.08933061,0.06954280,0.06017010,0.00196434,0.00220911,-0.000022
 85,-0.00679382,0.02352762,0.01335647,-0.00032605,0.00078757,0.00002034
 ,0.00005132,0.00003457,-0.00018902,-0.00032398,-0.00003230,-0.00017085
 ,0.08987669,0.00034009,0.00012780,-0.00028718,0.00021616,-0.00017294,0
 .00058022,-0.00077466,-0.00000211,-0.00070254,0.07235885,-0.21418608,-
 0.13093518,-0.00131546,0.00009085,0.00134108,-0.00138956,0.00401045,-0
 .00026514,0.00031476,-0.00056687,0.00124499,-0.00003262,0.00003800,0.0
 0006613,0.00042917,0.00003228,0.00025182,-0.07904189,0.21855490,-0.000
 48019,0.00012115,0.00035813,0.00006164,0.00001890,0.00022261,0.0003999
 6,0.00043231,-0.00044792,0.05901142,-0.12653690,-0.11078856,-0.0003573
 7,0.00205846,-0.00137106,0.00281459,-0.01178652,-0.00115856,-0.0000897
 8,-0.00015231,-0.00004256,-0.00001588,-0.00008914,-0.00001808,-0.00044
 762,0.00000025,-0.00038082,-0.06692702,0.14035275,0.11007454,0.0003997
 5,0.00002450,0.00024689,0.00026888,-0.00006336,0.00065189,-0.00008993,
 0.00032164,-0.00082208,-0.17082159,-0.13345570,-0.04665249,-0.00350352
 ,0.00001996,0.00467184,-0.01241097,-0.01973035,-0.01200222,-0.00081136
 ,-0.00036258,0.00004765,-0.00002351,-0.00002253,-0.00002348,0.00021104
 ,0.00023860,-0.00000766,0.00901637,0.00886585,0.00416280,0.17756970,0.
 00045988,0.00014929,-0.00010727,0.00004424,-0.00001955,-0.00013565,0.0
 0102037,0.00037295,-0.00029119,-0.13292196,-0.19188792,-0.07475002,0.0
 0043899,0.00213731,-0.00097942,0.00113726,0.00228768,-0.00162599,-0.00
 042711,-0.00022016,-0.00047152,-0.00007372,0.00004232,-0.00004634,-0.0
 0042335,-0.00014153,-0.00021638,-0.01416987,-0.00990254,-0.00548121,0.
 14486656,0.19570237,-0.00041829,-0.00014184,0.00035345,-0.00015034,0.0
 0017761,-0.00063176,-0.00007997,0.00005756,0.00062953,-0.05236138,-0.0
 7917015,-0.06036637,0.00102601,-0.00290667,0.00154682,0.00987617,0.009
 26194,0.00916462,-0.00047079,-0.00029974,-0.00113414,0.00003875,-0.000
 04386,-0.00000819,0.00072331,0.00026293,0.00028330,-0.00952715,-0.0098
 7029,0.00010113,0.05160110,0.08188026,0.05194787,0.00237500,0.00081956
 ,-0.00097455,-0.45974139,-0.15437403,0.01394702,-0.00203244,-0.0021555
 0,0.00024354,-0.00027470,-0.00010332,0.00030183,-0.00003379,-0.0003031
 7,0.00016512,0.00021271,0.00063157,-0.00077030,-0.00182233,-0.00049137
 ,0.00020288,-0.00001254,-0.00018966,0.00047202,0.00009331,0.00008496,0
 .00009173,-0.00002432,0.00003872,0.00000727,0.00001419,-0.00000495,-0.
 00002123,0.46119187,0.00027388,0.00010071,-0.00127552,-0.16640565,-0.0
 6206173,0.01320550,0.01140308,0.00271711,0.00450470,-0.00035608,-0.000
 04080,0.00038638,-0.00000858,-0.00019205,0.00016474,0.00037049,0.00067
 561,-0.00095892,-0.00070007,-0.00207350,0.00398873,0.00012101,-0.00001
 322,0.00016120,0.00004412,0.00006254,0.00005828,-0.00005106,-0.0000339
 8,-0.00009009,-0.00005814,0.00003776,0.00004021,0.15565984,0.06092065,
 0.00184082,0.00044636,0.00048857,0.03746678,0.02419086,-0.02063212,-0.
 02203847,-0.00614075,-0.00653426,0.00027411,-0.00018207,-0.00016901,-0
 .00002059,0.00010411,-0.00018611,-0.00030114,-0.00049117,0.00052670,-0
 .00341990,0.00176044,-0.00657787,-0.00034929,0.00013425,-0.00016642,0.
 00000422,-0.00006501,-0.00001911,0.00003845,0.00004630,-0.00003118,0.0
 0006971,0.00015193,-0.00015180,-0.01362803,-0.01976988,0.03324393,0.00
 059096,-0.00030430,0.00026182,0.00025948,-0.00028136,0.00095492,-0.000
 52548,-0.00013620,-0.00117670,0.00097479,-0.00099457,-0.00019877,-0.08
 932262,0.09337489,0.02322088,0.00943505,-0.02125613,-0.00582891,0.0002
 5827,0.00021931,0.00166652,-0.00011150,0.00000527,-0.00015572,-0.00373
 211,0.00577579,0.00203201,-0.00005405,0.00061687,0.00030581,0.00017414
 ,0.00027071,-0.00003657,-0.00002651,-0.00001988,-0.00000627,0.09425623
 ,0.00016128,0.00011811,-0.00032963,-0.00005415,0.00003457,-0.00013082,
 -0.00003856,0.00060022,0.00038100,0.00146281,0.00096878,-0.00017463,0.
 09080228,-0.25219112,-0.04993244,0.00712762,-0.01789097,-0.00416910,-0
 .00000691,-0.00049432,0.00045807,-0.00004715,-0.00000535,0.00010377,0.
 00580559,-0.01293596,-0.00324148,-0.00094182,0.00025557,0.00059712,-0.
 00018562,0.00049811,0.00011644,0.00003611,-0.00001085,-0.00001468,-0.0
 9942064,0.27587352,-0.00031690,0.00072274,-0.00071619,0.00005903,0.000
 01083,0.00031040,-0.00033723,0.00034673,-0.00029245,0.00084503,0.00107
 041,0.00044408,0.02259267,-0.04888890,-0.05824877,0.00679956,-0.016914
 23,-0.00648751,0.00102041,-0.00162819,0.00117667,0.00006040,-0.0000052
 1,0.00023674,-0.01132729,0.02513252,0.00730264,-0.00018342,0.00021007,
 0.00050801,-0.00001870,0.00022559,-0.00019691,0.00000645,-0.00002043,-
 0.00000889,-0.02214052,0.05741420,0.06043140,0.00247950,0.00033274,0.0
 0162091,-0.00025225,0.00025719,-0.00062613,0.00091072,0.00057713,0.000
 56089,-0.00174114,-0.00397835,-0.00211937,-0.23280120,-0.02868990,0.11
 925421,-0.01832449,-0.00102908,0.00916206,-0.00399383,-0.00159394,0.00
 198502,0.00030441,0.00002116,0.00012853,0.00848159,0.00102595,-0.00450
 590,0.00036799,-0.00009974,0.00006590,-0.00107795,0.00015016,0.0000478
 3,0.00002140,0.00002225,-0.00001138,-0.00949538,-0.00163217,0.00587689
 ,0.25443124,0.00150532,-0.00065303,0.00066807,0.00002268,-0.00020667,0
 .00032841,-0.00023617,-0.00011328,-0.00064188,-0.00254971,-0.00208702,
 -0.00189893,-0.02888159,-0.05404294,0.01822367,-0.01397118,-0.00135929
 ,0.00870306,-0.00092615,0.00019093,0.00226027,-0.00033604,0.00004230,-
 0.00043131,-0.01306274,-0.00259671,0.00785869,-0.00024328,0.00013645,0
 .00013652,-0.00090680,0.00042558,0.00015995,0.00002177,0.00001691,-0.0
 0000560,0.02467451,0.00533007,-0.01624589,0.03449227,0.05472361,0.0006
 1303,-0.00025263,-0.00311314,0.00015566,-0.00019359,0.00050693,0.00047
 238,0.00033641,-0.00061292,-0.00238392,-0.00227388,-0.00166327,0.12459
 787,0.01862077,-0.12394365,-0.01525983,0.00006627,0.00860171,-0.003151
 55,-0.00037685,0.00157926,0.00022352,-0.00029103,-0.00051008,0.0224715
 6,0.00249478,-0.01412160,-0.00007421,0.00010916,-0.00012157,-0.0010038
 1,-0.00026140,0.00053667,-0.00004119,-0.00000632,-0.00005543,0.0034685
 9,0.00110323,-0.00346695,-0.13083059,-0.01926129,0.13601092,0.00012998
 ,0.00013738,0.00026572,-0.00112147,0.00095987,-0.00336747,0.00231460,0
 .00086641,0.00351945,-0.00870809,0.02814447,0.01012210,0.00868982,-0.0
 1977213,-0.00497339,-0.08814071,0.08312460,0.02777085,-0.00115382,-0.0
 0060209,-0.00413602,0.00004849,-0.00011160,0.00013036,0.00076200,0.000
 82750,0.00026564,-0.00447689,-0.00057655,0.00152409,0.00109298,-0.0003
 1032,-0.00034366,0.00005991,0.00011221,-0.00007425,-0.00274239,-0.0029
 3430,-0.00259842,0.00065810,0.00032791,0.00064395,0.09247139,-0.000678
 29,0.00182521,-0.00193888,0.00154726,-0.00184887,0.00592703,-0.0051374
 0,-0.00019455,-0.00902922,-0.00510505,0.00261585,0.00248539,0.00591474
 ,-0.01354267,-0.00303056,0.08990250,-0.26189502,-0.08134689,0.00747306
 ,-0.00803749,0.01079436,-0.00009286,-0.00018700,0.00107919,-0.00003682
 ,0.00058484,-0.00031259,-0.00091994,0.00157833,0.00000675,0.00039491,0
 .00046709,0.00050664,-0.00001435,-0.00007611,0.00006291,-0.00265038,-0
 .00049570,-0.00187484,-0.00006257,0.00015757,0.00011392,-0.09017814,0.
 27907830,-0.00124316,-0.00241320,0.00393461,-0.00202551,0.00224842,-0.
 00854485,0.00683317,0.00520739,0.01160971,0.01659733,-0.01073775,-0.00
 743498,0.00610332,-0.01329645,-0.00357432,0.01351811,-0.07265380,-0.03
 901679,-0.01171520,0.01603912,-0.02276027,0.00007589,0.00008321,-0.000
 87294,0.00043601,0.00031810,-0.00009333,0.00320360,-0.00196468,0.00327
 430,-0.00082093,0.00213261,-0.00203433,-0.00000459,0.00006815,0.000002
 25,-0.00225656,-0.00167339,-0.00061123,-0.00026818,0.00048536,0.000568
 33,-0.02894552,0.07603646,0.06639887,-0.02313766,0.02887798,0.01285794
 ,0.00134668,-0.00090347,0.00629105,0.00562395,-0.02636717,-0.01465104,
 -0.00267635,-0.00150424,0.00200288,-0.00009759,0.00012378,0.00011152,0
 .00358726,0.00170737,-0.00502195,-0.09084729,0.09940082,0.02388604,-0.
 00635014,0.00042843,-0.00023374,0.00002666,-0.00015877,0.00007684,-0.0
 0003313,0.00005001,-0.00003562,-0.00000823,-0.00005688,0.00009620,-0.0
 0000038,-0.00040742,0.00015524,0.00006112,-0.00013436,-0.00033796,0.00
 003128,0.00006920,0.00009852,0.00011612,-0.00035664,0.00051224,0.11235
 771,-0.00151602,0.00555756,0.00212574,-0.00146729,0.00266768,0.0014976
 6,0.00101608,-0.02553699,-0.00853308,0.00155835,0.00060460,-0.00126129
 ,0.00002736,0.00053833,-0.00074638,-0.00088441,-0.00644122,0.00575837,
 0.10320041,-0.26234960,-0.04959459,-0.00178973,0.00145862,0.00092236,-
 0.00001009,0.00017216,-0.00010068,-0.00008064,0.00003989,0.00041196,0.
 00005306,0.00005126,-0.00003098,0.00034380,-0.00002905,-0.00022799,0.0
 0012609,0.00034533,0.00044460,0.00020690,0.00003554,0.00007245,-0.0000
 1521,-0.00002979,0.00012046,-0.10076865,0.28291567,0.01653242,-0.00991
 921,-0.00361732,0.00516409,-0.00504240,0.01581496,-0.01110351,-0.02774
 674,-0.02336865,-0.00898946,0.00114379,0.00363438,0.00042713,-0.000158
 16,0.00205219,0.00501063,0.01974504,-0.02030142,0.01578030,-0.02486948
 ,-0.02636904,0.00278428,-0.00110060,0.00248609,0.00027068,-0.00020900,
 0.00040028,0.00028474,-0.00017749,-0.00017840,-0.00010050,-0.00002400,
 -0.00003987,0.00000205,-0.00045672,0.00027076,-0.00011053,-0.00050767,
 -0.00038103,-0.00034070,-0.00033910,-0.00019524,0.00019656,0.00052034,
 -0.00084503,-0.02580817,0.04914140,0.05063734\\0.00000989,0.00001029,0
 .00000103,-0.00000057,0.00000316,-0.00000327,0.00000825,0.00000418,0.0
 0000887,0.00000930,0.00000074,-0.00000041,-0.00000129,0.00000830,0.000
 00422,-0.00001128,0.00000455,0.00001306,-0.00001090,-0.00000802,-0.000
 01518,-0.00000385,-0.00000676,-0.00000103,-0.00000034,-0.00000287,0.00
 000197,0.00000117,0.00000092,-0.00000063,-0.00000247,0.00000036,-0.000
 00092,-0.00000596,0.00000263,-0.00000361,0.00000260,-0.00000253,-0.000
 00040,0.00000085,-0.00000650,-0.00000288,0.00000176,-0.00001082,-0.000
 00526,0.00000282,0.00000237,0.00000444\\\@


 UNLESS WE CHANGE DIRECTIONS, WE WILL WIND UP WHERE WE ARE HEADED.
     -- CONFUCIUS
 Job cpu time:  0 days  1 hours  5 minutes 44.8 seconds.
 File lengths (MBytes):  RWF=    125 Int=      0 D2E=      0 Chk=      8 Scr=      1
 Normal termination of Gaussian 03 at Wed Jun 26 11:40:36 2019.
