 Entering Gaussian System, Link 0=g03
 Input=O2freq.gjf
 Output=O2freq.log
 Initial command:
 /opt/g03/l1.exe /scratch/nyee/Gau-5485.inp -scrdir=/scratch/nyee/
 Entering Link 1 = /opt/g03/l1.exe PID=      5487.
  
 Copyright (c) 1988,1990,1992,1993,1995,1998,2003,2004, Gaussian, Inc.
                  All Rights Reserved.
  
 This is the Gaussian(R) 03 program.  It is based on the
 the Gaussian(R) 98 system (copyright 1998, Gaussian, Inc.),
 the Gaussian(R) 94 system (copyright 1995, Gaussian, Inc.),
 the Gaussian 92(TM) system (copyright 1992, Gaussian, Inc.),
 the Gaussian 90(TM) system (copyright 1990, Gaussian, Inc.),
 the Gaussian 88(TM) system (copyright 1988, Gaussian, Inc.),
 the Gaussian 86(TM) system (copyright 1986, Carnegie Mellon
 University), and the Gaussian 82(TM) system (copyright 1983,
 Carnegie Mellon University). Gaussian is a federally registered
 trademark of Gaussian, Inc.
  
 This software contains proprietary and confidential information,
 including trade secrets, belonging to Gaussian, Inc.
  
 This software is provided under written license and may be
 used, copied, transmitted, or stored only in accord with that
 written license.
  
 The following legend is applicable only to US Government
 contracts under FAR:
  
                    RESTRICTED RIGHTS LEGEND
  
 Use, reproduction and disclosure by the US Government is
 subject to restrictions as set forth in subparagraphs (a)
 and (c) of the Commercial Computer Software - Restricted
 Rights clause in FAR 52.227-19.
  
 Gaussian, Inc.
 340 Quinnipiac St., Bldg. 40, Wallingford CT 06492
  
  
 ---------------------------------------------------------------
 Warning -- This program may not be used in any manner that
 competes with the business of Gaussian, Inc. or will provide
 assistance to any competitor of Gaussian, Inc.  The licensee
 of this program is prohibited from giving any competitor of
 Gaussian, Inc. access to this program.  By using this program,
 the user acknowledges that Gaussian, Inc. is engaged in the
 business of creating and licensing software in the field of
 computational chemistry and represents and warrants to the
 licensee that it is not a competitor of Gaussian, Inc. and that
 it will not use this program in any manner prohibited above.
 ---------------------------------------------------------------
  

 Cite this work as:
 Gaussian 03, Revision D.01,
 M. J. Frisch, G. W. Trucks, H. B. Schlegel, G. E. Scuseria, 
 M. A. Robb, J. R. Cheeseman, J. A. Montgomery, Jr., T. Vreven, 
 K. N. Kudin, J. C. Burant, J. M. Millam, S. S. Iyengar, J. Tomasi, 
 V. Barone, B. Mennucci, M. Cossi, G. Scalmani, N. Rega, 
 G. A. Petersson, H. Nakatsuji, M. Hada, M. Ehara, K. Toyota, 
 R. Fukuda, J. Hasegawa, M. Ishida, T. Nakajima, Y. Honda, O. Kitao, 
 H. Nakai, M. Klene, X. Li, J. E. Knox, H. P. Hratchian, J. B. Cross, 
 V. Bakken, C. Adamo, J. Jaramillo, R. Gomperts, R. E. Stratmann, 
 O. Yazyev, A. J. Austin, R. Cammi, C. Pomelli, J. W. Ochterski, 
 P. Y. Ayala, K. Morokuma, G. A. Voth, P. Salvador, J. J. Dannenberg, 
 V. G. Zakrzewski, S. Dapprich, A. D. Daniels, M. C. Strain, 
 O. Farkas, D. K. Malick, A. D. Rabuck, K. Raghavachari, 
 J. B. Foresman, J. V. Ortiz, Q. Cui, A. G. Baboul, S. Clifford, 
 J. Cioslowski, B. B. Stefanov, G. Liu, A. Liashenko, P. Piskorz, 
 I. Komaromi, R. L. Martin, D. J. Fox, T. Keith, M. A. Al-Laham, 
 C. Y. Peng, A. Nanayakkara, M. Challacombe, P. M. W. Gill, 
 B. Johnson, W. Chen, M. W. Wong, C. Gonzalez, and J. A. Pople, 
 Gaussian, Inc., Wallingford CT, 2004.
 
 ******************************************
 Gaussian 03:  AM64L-G03RevD.01 13-Oct-2005
                16-May-2015 
 ******************************************
 %chk=O2freq.chk
 %mem=1000mb
 %nproc=8
 Will use up to    8 processors via shared memory.
 -------------------------------------
 # freq nosymm b3lyp/cbsb7 iop(7/33=1)
 -------------------------------------
 1/10=4,30=1,38=1/1,3;
 2/15=1,17=6,18=5,40=1/2;
 3/5=4,6=6,7=700,11=2,16=1,25=1,30=1,74=-5/1,2,3;
 4//1;
 5/5=2,38=5/2;
 8/6=4,10=90,11=11/1;
 11/6=1,8=1,9=11,15=111,16=1,31=1/1,2,10;
 10/6=1,31=1/2;
 6/7=2,8=2,9=2,10=2,18=1,28=1/1;
 7/8=1,10=1,25=1,30=1,33=1/1,2,3,16;
 1/10=4,30=1/3;
 99//99;
 -------------------
 Title Card Required
 -------------------
 Symbolic Z-matrix:
 Charge =  0 Multiplicity = 3
 O                    -0.17157   0.06536   0. 
 O                     1.03405   0.06536   0. 
 

 GradGradGradGradGradGradGradGradGradGradGradGradGradGradGradGradGradGrad
 Berny optimization.
 Initialization pass.
 Trust Radius=3.00D-01 FncErr=1.00D-07 GrdErr=1.00D-07
 Number of steps in this run=   2 maximum allowed number of steps=   2.
 GradGradGradGradGradGradGradGradGradGradGradGradGradGradGradGradGradGrad

                          Input orientation:                          
 ---------------------------------------------------------------------
 Center     Atomic     Atomic              Coordinates (Angstroms)
 Number     Number      Type              X           Y           Z
 ---------------------------------------------------------------------
    1          8             0       -0.171571    0.065359    0.000000
    2          8             0        1.034054    0.065359    0.000000
 ---------------------------------------------------------------------
 Symmetry turned off by external request.
 Stoichiometry    O2(3)
 Framework group  D*H[C*(O.O)]
 Deg. of freedom     1
 Full point group                 D*H
 Rotational constants (GHZ):      0.0000000     43.4751186     43.4751186
 Standard basis: CBSB7 (5D, 7F)
 Integral buffers will be    131072 words long.
 Raffenetti 2 integral format.
 Two-electron integral symmetry is turned off.
    36 basis functions,    64 primitive gaussians,    38 cartesian basis functions
     9 alpha electrons        7 beta electrons
       nuclear repulsion energy        28.0911073768 Hartrees.
 NAtoms=    2 NActive=    2 NUniq=    2 SFac= 7.50D-01 NAtFMM=   80 NAOKFM=F Big=F
 One-electron integrals computed using PRISM.
 NBasis=    36 RedAO= T  NBF=    36
 NBsUse=    36 1.00D-06 NBFU=    36
 Harris functional with IExCor=  402 diagonalized for initial guess.
 ExpMin= 2.56D-01 ExpMax= 8.59D+03 ExpMxC= 1.30D+03 IAcc=1 IRadAn=         1 AccDes= 1.00D-06
 HarFok:  IExCor= 402 AccDes= 1.00D-06 IRadAn=         1 IDoV=1
 ScaDFX=  1.000000  1.000000  1.000000  1.000000
 <S**2> of initial guess= 2.0000
 Requested convergence on RMS density matrix=1.00D-08 within 128 cycles.
 Requested convergence on MAX density matrix=1.00D-06.
 Requested convergence on             energy=1.00D-06.
 No special actions if energy rises.
 Keep R1 and R2 integrals in memory in canonical form, NReq=     2267389.
 Integral accuracy reduced to 1.0D-05 until final iterations.
 Initial convergence to 1.0D-05 achieved.  Increase integral accuracy.
 SCF Done:  E(UB+HF-LYP) =  -150.364790867     A.U. after   10 cycles
             Convg  =    0.4333D-08             -V/T =  2.0017
             S**2   =   2.0070
 Annihilation of the first spin contaminant:
 S**2 before annihilation     2.0070,   after     2.0000
 Range of M.O.s used for correlation:     1    36
 NBasis=    36 NAE=     9 NBE=     7 NFC=     0 NFV=     0
 NROrb=     36 NOA=     9 NOB=     7 NVA=    27 NVB=    29
 Symmetrizing basis deriv contribution to polar:
 IMax=3 JMax=2 DiffMx= 0.00D+00
 G2DrvN: will do    3 centers at a time, making    1 passes doing MaxLOS=2.
 FoFDir/FoFCou used for L=0 through L=2.
 DoAtom=TT
          Differentiating once with respect to electric field.
                with respect to dipole field.
          Differentiating once with respect to nuclear coordinates.
          Store integrals in memory, NReq=     1370562.
          There are   9 degrees of freedom in the 1st order CPHF.
     6 vectors were produced by pass  0.
 AX will form   6 AO Fock derivatives at one time.
     6 vectors were produced by pass  1.
     6 vectors were produced by pass  2.
     6 vectors were produced by pass  3.
     6 vectors were produced by pass  4.
     6 vectors were produced by pass  5.
     6 vectors were produced by pass  6.
     2 vectors were produced by pass  7.
     1 vectors were produced by pass  8.
     1 vectors were produced by pass  9.
 Inv2:  IOpt= 1 Iter= 1 AM= 4.84D-16 Conv= 1.00D-12.
 Inverted reduced A of dimension   46 with in-core refinement.
 Isotropic polarizability for W=    0.000000        6.56 Bohr**3.
 End of Minotr Frequency-dependent properties file   721 does not exist.

 **********************************************************************

            Population analysis using the SCF density.

 **********************************************************************

 Alpha  occ. eigenvalues --  -19.28007 -19.27990  -1.31478  -0.83923  -0.56869
 Alpha  occ. eigenvalues --   -0.56869  -0.55314  -0.31185  -0.31185
 Alpha virt. eigenvalues --    0.19759   0.66242   0.66242   0.69943   0.71134
 Alpha virt. eigenvalues --    0.77365   0.78063   0.78063   1.23349   2.23113
 Alpha virt. eigenvalues --    2.23113   2.53461   2.53461   2.80199   2.80199
 Alpha virt. eigenvalues --    2.83214   3.40750   3.40750   3.75313   4.50289
 Alpha virt. eigenvalues --    4.50289   4.64559   4.80501   4.80501   5.97263
 Alpha virt. eigenvalues --   49.48209  49.67872
  Beta  occ. eigenvalues --  -19.24952 -19.24921  -1.25746  -0.75079  -0.51329
  Beta  occ. eigenvalues --   -0.46538  -0.46538
  Beta virt. eigenvalues --   -0.11701  -0.11701   0.24126   0.70894   0.70894
  Beta virt. eigenvalues --    0.71941   0.72384   0.79951   0.83109   0.83109
  Beta virt. eigenvalues --    1.27049   2.27704   2.27704   2.62135   2.62136
  Beta virt. eigenvalues --    2.87847   2.89812   2.89813   3.46382   3.46382
  Beta virt. eigenvalues --    3.78768   4.58055   4.58055   4.66574   4.88338
  Beta virt. eigenvalues --    4.88338   6.00483  49.51236  49.70877
          Condensed to atoms (all electrons):
              1          2
     1  O    7.951543   0.048457
     2  O    0.048457   7.951543
 Mulliken atomic charges:
              1
     1  O    0.000000
     2  O    0.000000
 Sum of Mulliken charges=   0.00000
 Atomic charges with hydrogens summed into heavy atoms:
              1
     1  O    0.000000
     2  O    0.000000
 Sum of Mulliken charges=   0.00000
          Atomic-Atomic Spin Densities.
              1          2
     1  O    1.369682  -0.369682
     2  O   -0.369682   1.369682
 Mulliken atomic spin densities:
              1
     1  O    1.000000
     2  O    1.000000
 Sum of Mulliken spin densities=   2.00000
 APT atomic charges:
              1
     1  O    0.000000
     2  O    0.000000
 Sum of APT charges=   0.00000
 APT Atomic charges with hydrogens summed into heavy atoms:
              1
     1  O    0.000000
     2  O    0.000000
 Sum of APT charges=   0.00000
 Electronic spatial extent (au):  <R**2>=    54.1457
 Charge=     0.0000 electrons
 Dipole moment (field-independent basis, Debye):
    X=     0.0000    Y=     0.0000    Z=     0.0000  Tot=     0.0000
 Quadrupole moment (field-independent basis, Debye-Ang):
   XX=   -10.5689   YY=    -9.8561   ZZ=    -9.8561
   XY=     0.0000   XZ=     0.0000   YZ=     0.0000
 Traceless Quadrupole moment (field-independent basis, Debye-Ang):
   XX=    -0.4752   YY=     0.2376   ZZ=     0.2376
   XY=     0.0000   XZ=     0.0000   YZ=     0.0000
 Octapole moment (field-independent basis, Debye-Ang**2):
  XXX=   -13.6733  YYY=    -1.9326  ZZZ=     0.0000  XYY=    -4.2504
  XXY=    -0.6908  XXZ=     0.0000  XZZ=    -4.2504  YZZ=    -0.6442
  YYZ=     0.0000  XYZ=     0.0000
 Hexadecapole moment (field-independent basis, Debye-Ang**3):
 XXXX=   -39.9099 YYYY=    -6.8724 ZZZZ=    -6.6197 XXXY=    -0.8937
 XXXZ=     0.0000 YYYX=    -0.8334 YYYZ=     0.0000 ZZZX=     0.0000
 ZZZY=     0.0000 XXYY=    -7.9038 XXZZ=    -7.8587 YYZZ=    -2.2487
 XXYZ=     0.0000 YYXZ=     0.0000 ZZXY=    -0.2778
 N-N= 2.809110737684D+01 E-N=-4.121355575155D+02  KE= 1.501117848238D+02
  Exact polarizability:  12.688   0.000   3.490   0.000   0.000   3.490
 Approx polarizability:  23.778   0.000   4.085   0.000   0.000   4.085
                          Isotropic Fermi Contact Couplings
        Atom                 a.u.       MegaHertz       Gauss      10(-4) cm-1
     1  O(17)              0.08456     -25.62847      -9.14488      -8.54874
     2  O(17)              0.08456     -25.62847      -9.14488      -8.54874
 --------------------------------------------------------
       Center         ----  Spin Dipole Couplings  ----
                      3XX-RR        3YY-RR        3ZZ-RR
 --------------------------------------------------------
     1   Atom       -2.520172      1.260086      1.260086
     2   Atom       -2.520172      1.260086      1.260086
 --------------------------------------------------------
                        XY            XZ            YZ
 --------------------------------------------------------
     1   Atom        0.000000      0.000000      0.000000
     2   Atom        0.000000      0.000000      0.000000
 --------------------------------------------------------


 ---------------------------------------------------------------------------------
              Anisotropic Spin Dipole Couplings in Principal Axis System
 ---------------------------------------------------------------------------------

       Atom             a.u.   MegaHertz   Gauss  10(-4) cm-1        Axes

              Baa    -2.5202   182.358    65.070    60.828  1.0000  0.0000  0.0000
     1 O(17)  Bbb     1.2601   -91.179   -32.535   -30.414  0.0000  0.0000  1.0000
              Bcc     1.2601   -91.179   -32.535   -30.414  0.0000  1.0000  0.0000
 
              Baa    -2.5202   182.358    65.070    60.828  1.0000  0.0000  0.0000
     2 O(17)  Bbb     1.2601   -91.179   -32.535   -30.414  0.0000  0.0000  1.0000
              Bcc     1.2601   -91.179   -32.535   -30.414  0.0000  1.0000  0.0000
 

 ---------------------------------------------------------------------------------

 Use density number 0.
 Entering OneElI...
 Calculate overlap and kinetic energy integrals
    NBasis =  38  MinDer = 2  MaxDer = 2
 Requested accuracy = 0.1000D-12
 PrsmSu:  NPrtUS=   1 ThrOK=F
 PRISM was handed   131056994 working-precision words and    55 shell-pairs
 Entering OneElI...
 Calculate potential energy integrals
    NBasis =  38  MinDer = 2  MaxDer = 2
 Requested accuracy = 0.1000D-12
 PrsmSu:  NPrtUS=   8 ThrOK=T
 PRISM was handed    16379952 working-precision words and    55 shell-pairs
 PRISM was handed    16379952 working-precision words and    55 shell-pairs
 PRISM was handed    16379952 working-precision words and    55 shell-pairs
 PRISM was handed    16379952 working-precision words and    55 shell-pairs
 PRISM was handed    16379952 working-precision words and    55 shell-pairs
 PRISM was handed    16379952 working-precision words and    55 shell-pairs
 PRISM was handed    16379952 working-precision words and    55 shell-pairs
 PRISM was handed    16379952 working-precision words and    55 shell-pairs
 Polarizability after L701:
                1             2             3
      1  0.126882D+02
      2  0.000000D+00  0.348991D+01
      3  0.000000D+00  0.000000D+00  0.348991D+01
 Dipole Derivatives after L701:
               1            2            3            4            5
      1 0.000000D+00 0.000000D+00 0.000000D+00 0.000000D+00 0.000000D+00
      2 0.000000D+00 0.000000D+00 0.000000D+00 0.000000D+00 0.000000D+00
      3 0.000000D+00 0.000000D+00 0.000000D+00 0.000000D+00 0.000000D+00
               6
      1 0.000000D+00
      2 0.000000D+00
      3 0.000000D+00
 Hessian after L701:
                1             2             3             4             5
      1 -0.843387D+01
      2  0.000000D+00  0.894023D+01
      3  0.000000D+00  0.000000D+00  0.894023D+01
      4  0.843387D+01  0.000000D+00  0.000000D+00 -0.843387D+01
      5  0.000000D+00 -0.894023D+01  0.000000D+00  0.000000D+00  0.894023D+01
      6  0.000000D+00  0.000000D+00 -0.894023D+01  0.000000D+00  0.000000D+00
                6
      6  0.894023D+01
 ReadGW:  IGet=0 IStart=          30 Next=         892 LGW=         862.
 ICntrl=12127.
 Symmetry not used in FoFDir.
 MinBra= 0 MaxBra= 2 Meth= 1.
 IRaf=       0 NMat=   1 IRICut=       1 DoRegI=T DoRafI=F ISym2E= 0 JSym2E=0.
 PrsmSu:  NPrtUS=   8 ThrOK=T
 PRISM was handed    16379294 working-precision words and    55 shell-pairs
 PRISM was handed    16379294 working-precision words and    55 shell-pairs
 PRISM was handed    16379294 working-precision words and    55 shell-pairs
 PRISM was handed    16379294 working-precision words and    55 shell-pairs
 PRISM was handed    16379294 working-precision words and    55 shell-pairs
 PRISM was handed    16379294 working-precision words and    55 shell-pairs
 PRISM was handed    16379294 working-precision words and    55 shell-pairs
 PRISM was handed    16379294 working-precision words and    55 shell-pairs
 Pruned (  75, 302) grid will be used in CalDFT.
 CkSvGd:  ISavGI=        -1 IRadAn=       4 IRASav=       4 ISavGd=        -1.
 CalDSu:  NPrtUS=   8 ThrOK=T
 IPart= 0 IRanGd=          0 ScrnBf=T ScrnGd=T RCrit=4.00D+00 DoMicB=T.
 IPart= 3 IRanGd=          0 ScrnBf=T ScrnGd=T RCrit=4.00D+00 DoMicB=T.
 IPart= 1 IRanGd=          0 ScrnBf=T ScrnGd=T RCrit=4.00D+00 DoMicB=T.
 CutRad = 1000.00    CtRdIn =    0.00    XCrit =  15.00   ICut = 0
 IPart= 6 IRanGd=          0 ScrnBf=T ScrnGd=T RCrit=4.00D+00 DoMicB=T.
 CutRad = 1000.00    CtRdIn =    0.00    XCrit =  15.00   ICut = 0
 IPart= 5 IRanGd=          0 ScrnBf=T ScrnGd=T RCrit=4.00D+00 DoMicB=T.
 CutRad = 1000.00    CtRdIn =    0.00    XCrit =  15.00   ICut = 0
 CutRad = 1000.00    CtRdIn =    0.00    XCrit =  15.00   ICut = 0
 IPart= 4 IRanGd=          0 ScrnBf=T ScrnGd=T RCrit=4.00D+00 DoMicB=T.
 IPart= 7 IRanGd=          0 ScrnBf=T ScrnGd=T RCrit=4.00D+00 DoMicB=T.
 CutRad = 1000.00    CtRdIn =    0.00    XCrit =  15.00   ICut = 0
 CutRad = 1000.00    CtRdIn =    0.00    XCrit =  15.00   ICut = 0
 IPart= 2 IRanGd=          0 ScrnBf=T ScrnGd=T RCrit=4.00D+00 DoMicB=T.
 CutRad = 1000.00    CtRdIn =    0.00    XCrit =  15.00   ICut = 0
 CutRad = 1000.00    CtRdIn =    0.00    XCrit =  15.00   ICut = 0
 IPart= 4         2450 of         2546 points in       6 batches and       33 microbatches, Max-NSigAt=       2 Max-NSgAt2=       2
 IPart= 1         1778 of         1796 points in       3 batches and       14 microbatches, Max-NSigAt=       2 Max-NSgAt2=       2
 IPart= 5         1783 of         1802 points in       4 batches and       18 microbatches, Max-NSigAt=       2 Max-NSgAt2=       2
 IPart= 0         1772 of         1792 points in       4 batches and       14 microbatches, Max-NSigAt=       2 Max-NSgAt2=       2
 IPart= 3         1770 of         1780 points in       3 batches and        7 microbatches, Max-NSigAt=       2 Max-NSgAt2=       2
 IPart= 7         1772 of         1792 points in       4 batches and       14 microbatches, Max-NSigAt=       2 Max-NSgAt2=       2
 IPart= 2         1783 of         1802 points in       4 batches and       17 microbatches, Max-NSigAt=       2 Max-NSgAt2=       2
 IPart= 6         2162 of         2198 points in       4 batches and        7 microbatches, Max-NSigAt=       2 Max-NSgAt2=       2
 Polarizability after L703:
                1             2             3
      1  0.126882D+02
      2  0.000000D+00  0.348991D+01
      3  0.000000D+00  0.000000D+00  0.348991D+01
 Dipole Derivatives after L703:
               1            2            3            4            5
      1 0.000000D+00 0.000000D+00 0.000000D+00 0.000000D+00 0.000000D+00
      2 0.000000D+00 0.000000D+00 0.000000D+00 0.000000D+00 0.000000D+00
      3 0.000000D+00 0.000000D+00 0.000000D+00 0.000000D+00 0.000000D+00
               6
      1 0.000000D+00
      2 0.000000D+00
      3 0.000000D+00
 Hessian after L703:
                1             2             3             4             5
      1  0.815232D+00
      2  0.000000D+00  0.132721D-03
      3  0.000000D+00  0.000000D+00  0.132721D-03
      4 -0.815232D+00  0.000000D+00  0.000000D+00  0.815232D+00
      5  0.000000D+00 -0.132721D-03  0.000000D+00  0.000000D+00  0.132721D-03
      6  0.000000D+00  0.000000D+00 -0.132721D-03  0.000000D+00  0.000000D+00
                6
      6  0.132721D-03
 FrcOut:
 IF    =    59 IFX   =    65 IFXYZ =    71
 IFFX  =    77 IFFFX =    98 IFLen =     6
 IFFLen=    21 IFFFLn=     0 IEDerv=    98
 LEDerv=   341 IFroze=   443 ICStrt=  3136
 DipoleDeriv   = 2.31148156D-11 1.32205115D-11-8.50837045D-12
                -9.43704855D-13 8.73441846D-12-7.87486233D-13
                -4.31983933D-12 4.76640233D-13 7.56282348D-12
                -2.32850406D-11-1.32205080D-11 8.50837045D-12
                 9.43704857D-13-8.89571684D-12 7.87505257D-13
                 4.31983932D-12-4.76664875D-13-7.72766711D-12
 Full mass-weighted force constant matrix:
 Low frequencies ---   -0.0016   -0.0013   -0.0013   20.9411   20.9411 1641.2276
 Dipole derivatives wrt mode   1:  2.56145D-10  1.45965D-10 -9.39390D-11
 Vibrational polarizability contributions from mode   1       0.0000000       0.0000000       0.0000000
 Vibrational hyperpolarizability contributions from mode   1       0.0000000       0.0000000       0.0000000
 Diagonal vibrational polarizability:
        0.0000000       0.0000000       0.0000000
 Harmonic frequencies (cm**-1), IR intensities (KM/Mole), Raman scattering
 activities (A**4/AMU), depolarization ratios for plane and unpolarized
 incident light, reduced masses (AMU), force constants (mDyne/A),
 and normal coordinates:
                           1
                          SGG
       Frequencies ---  1641.2276
    Reduced masses ---    15.9949
   Force constants ---    25.3846
    IR Intensities ---     0.0000
 Coord Atom Element:
   1     1     8          0.70711
   2     1     8          0.00000
   3     1     8          0.00000
   1     2     8         -0.70711
   2     2     8          0.00000
   3     2     8          0.00000
 Harmonic frequencies (cm**-1), IR intensities (KM/Mole), Raman scattering
 activities (A**4/AMU), depolarization ratios for plane and unpolarized
 incident light, reduced masses (AMU), force constants (mDyne/A),
 and normal coordinates:
                     1
                    SGG
 Frequencies --  1641.2276
 Red. masses --    15.9949
 Frc consts  --    25.3846
 IR Inten    --     0.0000
 Atom AN      X      Y      Z
   1   8     0.71   0.00   0.00
   2   8    -0.71   0.00   0.00

 -------------------
 - Thermochemistry -
 -------------------
 Temperature   298.150 Kelvin.  Pressure   1.00000 Atm.
 Atom  1 has atomic number  8 and mass  15.99491
 Atom  2 has atomic number  8 and mass  15.99491
 Molecular mass:    31.98983 amu.
 Principal axes and moments of inertia in atomic units:
                           1         2         3
     EIGENVALUES --     0.00000  41.51205  41.51205
           X            1.00000   0.00000   0.00000
           Y            0.00000   1.00000   0.00000
           Z            0.00000   0.00000   1.00000
 This molecule is a prolate symmetric top.
 Rotational symmetry number  2.
 Rotational temperature (Kelvin)      2.08647
 Rotational constant (GHZ):          43.475119
 Zero-point vibrational energy       9816.7 (Joules/Mol)
                                    2.34625 (Kcal/Mol)
 Vibrational temperatures:   2361.36
          (Kelvin)
 
 Zero-point correction=                           0.003739 (Hartree/Particle)
 Thermal correction to Energy=                    0.006102
 Thermal correction to Enthalpy=                  0.007046
 Thermal correction to Gibbs Free Energy=        -0.016226
 Sum of electronic and zero-point Energies=           -150.361052
 Sum of electronic and thermal Energies=              -150.358689
 Sum of electronic and thermal Enthalpies=            -150.357745
 Sum of electronic and thermal Free Energies=         -150.381017
 
                     E (Thermal)             CV                S
                      KCal/Mol        Cal/Mol-Kelvin    Cal/Mol-Kelvin
 Total                    3.829              5.013             48.981
 Electronic               0.000              0.000              2.183
 Translational            0.889              2.981             36.321
 Rotational               0.592              1.987             10.471
 Vibrational              2.348              0.045              0.006
                       Q            Log10(Q)             Ln(Q)
 Total Bot       0.290690D+08          7.463431         17.185185
 Total V=0       0.152491D+10          9.183244         21.145201
 Vib (Bot)       0.190697D-01         -1.719655         -3.959653
 Vib (V=0)       0.100036D+01          0.000158          0.000363
 Electronic      0.300000D+01          0.477121          1.098612
 Translational   0.711169D+07          6.851973         15.777251
 Rotational      0.714483D+02          1.853992          4.268974
 -------------------------------------------------------------------
 Center     Atomic                   Forces (Hartrees/Bohr)
 Number     Number              X              Y              Z
 -------------------------------------------------------------------
    1          8          -0.000002337    0.000000000    0.000000000
    2          8           0.000002337    0.000000000    0.000000000
 -------------------------------------------------------------------
 Cartesian Forces:  Max     0.000002337 RMS     0.000001349
 ------------------------------------------------------------------------
           Internal Coordinate Forces (Hartree/Bohr or radian)
 Cent Atom N1     Length/X     N2     Alpha/Y      N3      Beta/Z       J
 ------------------------------------------------------------------------
   1  O        -0.000002(   1)      0.000000(   3)      0.000000(   5)
   2  O         0.000002(   2)      0.000000(   4)      0.000000(   6)
 ------------------------------------------------------------------------
 Internal  Forces:  Max     0.000002337 RMS     0.000001349
 Force constants in Cartesian coordinates: 
                1             2             3             4             5
      1  0.815232D+00
      2  0.000000D+00  0.132721D-03
      3  0.000000D+00  0.000000D+00  0.132721D-03
      4 -0.815232D+00  0.000000D+00  0.000000D+00  0.815232D+00
      5  0.000000D+00 -0.132721D-03  0.000000D+00  0.000000D+00  0.132721D-03
      6  0.000000D+00  0.000000D+00 -0.132721D-03  0.000000D+00  0.000000D+00
                6
      6  0.132721D-03
 FCInt: Cartesian first derivatives: 
               1            2
      1-0.233718D-05 0.233718D-05
      2 0.000000D+00 0.000000D+00
      3 0.000000D+00 0.000000D+00
 FCInt: Cartesian force constants: 
                1             2             3             4             5
      1  0.815232D+00
      2  0.000000D+00  0.132721D-03
      3  0.000000D+00  0.000000D+00  0.132721D-03
      4 -0.815232D+00  0.000000D+00  0.000000D+00  0.815232D+00
      5  0.000000D+00 -0.132721D-03  0.000000D+00  0.000000D+00  0.132721D-03
      6  0.000000D+00  0.000000D+00 -0.132721D-03  0.000000D+00  0.000000D+00
                6
      6  0.132721D-03
 Internal force constants: 
                1             2             3             4             5
      1  0.815232D+00
      2 -0.815232D+00  0.815232D+00
      3  0.000000D+00  0.000000D+00  0.132721D-03
      4  0.000000D+00  0.000000D+00 -0.132721D-03  0.132721D-03
      5  0.000000D+00  0.000000D+00  0.000000D+00  0.000000D+00  0.132721D-03
      6  0.000000D+00  0.000000D+00  0.000000D+00  0.000000D+00 -0.132721D-03
                6
      6  0.132721D-03
 Force constants in internal coordinates: 
                1             2             3             4             5
      1  0.815232D+00
      2 -0.815232D+00  0.815232D+00
      3  0.000000D+00  0.000000D+00  0.132721D-03
      4  0.000000D+00  0.000000D+00 -0.132721D-03  0.132721D-03
      5  0.000000D+00  0.000000D+00  0.000000D+00  0.000000D+00  0.132721D-03
      6  0.000000D+00  0.000000D+00  0.000000D+00  0.000000D+00 -0.132721D-03
                6
      6  0.132721D-03
 Final forces over variables, Energy=-1.50364791D+02:
 -2.33718169D-06 2.33718169D-06-1.69221236D-15 1.69221236D-15
 -6.45417647D-15 6.45417647D-15

 GradGradGradGradGradGradGradGradGradGradGradGradGradGradGradGradGradGrad
 Berny optimization.
 Search for a local minimum.
 Step number   1 out of a maximum of   2
 All quantities printed in internal units (Hartrees-Bohrs-Radians)
 Second derivative matrix not updated -- analytic derivatives used.
 The second derivative matrix:
                          X1        Y1        Z1        X2        Y2
           X1           0.81523
           Y1           0.00000   0.00013
           Z1           0.00000   0.00000   0.00013
           X2          -0.81523   0.00000   0.00000   0.81523
           Y2           0.00000  -0.00013   0.00000   0.00000   0.00013
           Z2           0.00000   0.00000  -0.00013   0.00000   0.00000
                          Z2
           Z2           0.00013
     Eigenvalues ---    1.63046
 Angle between quadratic step and forces=   0.00 degrees.
 Linear search not attempted -- first point.
 TrRot=  0.000000  0.000000  0.000000  0.000000  0.000000  0.000000
 Variable       Old X    -DE/DX   Delta X   Delta X   Delta X     New X
                                 (Linear)    (Quad)   (Total)
    X1       -0.32422   0.00000   0.00000   0.00000   0.00000  -0.32422
    Y1        0.12351   0.00000   0.00000   0.00000   0.00000   0.12351
    Z1        0.00000   0.00000   0.00000   0.00000   0.00000   0.00000
    X2        1.95408   0.00000   0.00000   0.00000   0.00000   1.95408
    Y2        0.12351   0.00000   0.00000   0.00000   0.00000   0.12351
    Z2        0.00000   0.00000   0.00000   0.00000   0.00000   0.00000
         Item               Value     Threshold  Converged?
 Maximum Force            0.000002     0.000450     YES
 RMS     Force            0.000001     0.000300     YES
 Maximum Displacement     0.000001     0.001800     YES
 RMS     Displacement     0.000001     0.001200     YES
 Predicted change in Energy=-3.350225D-12
 Optimization completed.
    -- Stationary point found.
 GradGradGradGradGradGradGradGradGradGradGradGradGradGradGradGradGradGrad


 Test job not archived.
 1\1\GINC-NODE29\Freq\UB3LYP\CBSB7\O2(3)\NYEE\16-May-2015\0\\# freq nos
 ymm b3lyp/cbsb7 iop(7/33=1)\\Title Card Required\\0,3\O,-0.171571,0.06
 5359,0.\O,1.034054,0.065359,0.\\Version=AM64L-G03RevD.01\HF=-150.36479
 09\S2=2.007018\S2-1=0.\S2A=2.000026\RMSD=4.333e-09\RMSF=1.349e-06\Zero
 Point=0.003739\Thermal=0.0061022\Dipole=0.,0.,0.\DipoleDeriv=0.,0.,0.,
 0.,0.,0.,0.,0.,0.,0.,0.,0.,0.,0.,0.,0.,0.,0.\Polar=12.6881601,0.,3.489
 9137,0.,0.,3.4899137\PG=D*H [C*(O1.O1)]\NImag=0\\0.81523156,0.,0.00013
 272,0.,0.,0.00013272,-0.81523156,0.,0.,0.81523156,0.,-0.00013272,0.,0.
 ,0.00013272,0.,0.,-0.00013272,0.,0.,0.00013272\\0.00000234,0.,0.,-0.00
 000234,0.,0.\\\@


 A COMPUTER IS LIKE A HORSE, IT WILL SENSE WEAKNESS.
     -- GREG WETTSTEIN
 Job cpu time:  0 days  0 hours  0 minutes 44.3 seconds.
 File lengths (MBytes):  RWF=     13 Int=      0 D2E=      0 Chk=      6 Scr=      1
 Normal termination of Gaussian 03 at Sat May 16 14:10:29 2015.
