 Entering Gaussian System, Link 0=g03
 Input=ts3-freq.gjf
 Output=ts3-freq.log
 Initial command:
 /opt/g03/l1.exe /scratch/shamel/Gau-7601.inp -scrdir=/scratch/shamel/
 Entering Link 1 = /opt/g03/l1.exe PID=      7603.
  
 Copyright (c) 1988,1990,1992,1993,1995,1998,2003,2004, Gaussian, Inc.
                  All Rights Reserved.
  
 This is the Gaussian(R) 03 program.  It is based on the
 the Gaussian(R) 98 system (copyright 1998, Gaussian, Inc.),
 the Gaussian(R) 94 system (copyright 1995, Gaussian, Inc.),
 the Gaussian 92(TM) system (copyright 1992, Gaussian, Inc.),
 the Gaussian 90(TM) system (copyright 1990, Gaussian, Inc.),
 the Gaussian 88(TM) system (copyright 1988, Gaussian, Inc.),
 the Gaussian 86(TM) system (copyright 1986, Carnegie Mellon
 University), and the Gaussian 82(TM) system (copyright 1983,
 Carnegie Mellon University). Gaussian is a federally registered
 trademark of Gaussian, Inc.
  
 This software contains proprietary and confidential information,
 including trade secrets, belonging to Gaussian, Inc.
  
 This software is provided under written license and may be
 used, copied, transmitted, or stored only in accord with that
 written license.
  
 The following legend is applicable only to US Government
 contracts under FAR:
  
                    RESTRICTED RIGHTS LEGEND
  
 Use, reproduction and disclosure by the US Government is
 subject to restrictions as set forth in subparagraphs (a)
 and (c) of the Commercial Computer Software - Restricted
 Rights clause in FAR 52.227-19.
  
 Gaussian, Inc.
 340 Quinnipiac St., Bldg. 40, Wallingford CT 06492
  
  
 ---------------------------------------------------------------
 Warning -- This program may not be used in any manner that
 competes with the business of Gaussian, Inc. or will provide
 assistance to any competitor of Gaussian, Inc.  The licensee
 of this program is prohibited from giving any competitor of
 Gaussian, Inc. access to this program.  By using this program,
 the user acknowledges that Gaussian, Inc. is engaged in the
 business of creating and licensing software in the field of
 computational chemistry and represents and warrants to the
 licensee that it is not a competitor of Gaussian, Inc. and that
 it will not use this program in any manner prohibited above.
 ---------------------------------------------------------------
  

 Cite this work as:
 Gaussian 03, Revision D.01,
 M. J. Frisch, G. W. Trucks, H. B. Schlegel, G. E. Scuseria, 
 M. A. Robb, J. R. Cheeseman, J. A. Montgomery, Jr., T. Vreven, 
 K. N. Kudin, J. C. Burant, J. M. Millam, S. S. Iyengar, J. Tomasi, 
 V. Barone, B. Mennucci, M. Cossi, G. Scalmani, N. Rega, 
 G. A. Petersson, H. Nakatsuji, M. Hada, M. Ehara, K. Toyota, 
 R. Fukuda, J. Hasegawa, M. Ishida, T. Nakajima, Y. Honda, O. Kitao, 
 H. Nakai, M. Klene, X. Li, J. E. Knox, H. P. Hratchian, J. B. Cross, 
 V. Bakken, C. Adamo, J. Jaramillo, R. Gomperts, R. E. Stratmann, 
 O. Yazyev, A. J. Austin, R. Cammi, C. Pomelli, J. W. Ochterski, 
 P. Y. Ayala, K. Morokuma, G. A. Voth, P. Salvador, J. J. Dannenberg, 
 V. G. Zakrzewski, S. Dapprich, A. D. Daniels, M. C. Strain, 
 O. Farkas, D. K. Malick, A. D. Rabuck, K. Raghavachari, 
 J. B. Foresman, J. V. Ortiz, Q. Cui, A. G. Baboul, S. Clifford, 
 J. Cioslowski, B. B. Stefanov, G. Liu, A. Liashenko, P. Piskorz, 
 I. Komaromi, R. L. Martin, D. J. Fox, T. Keith, M. A. Al-Laham, 
 C. Y. Peng, A. Nanayakkara, M. Challacombe, P. M. W. Gill, 
 B. Johnson, W. Chen, M. W. Wong, C. Gonzalez, and J. A. Pople, 
 Gaussian, Inc., Wallingford CT, 2004.
 
 ******************************************
 Gaussian 03:  AM64L-G03RevD.01 13-Oct-2005
                18-Jun-2013 
 ******************************************
 %chk=ts3-freq.chk
 %mem=1000mb
 %nproc=8
 Will use up to    8 processors via shared memory.
 -------------------------------------
 # freq nosymm b3lyp/cbsb7 iop(7/33=1)
 -------------------------------------
 1/10=4,30=1,38=1/1,3;
 2/15=1,17=6,18=5,40=1/2;
 3/5=4,6=6,7=700,11=2,16=1,25=1,30=1,74=-5/1,2,3;
 4//1;
 5/5=2,38=5/2;
 8/6=4,10=90,11=11/1;
 11/6=1,8=1,9=11,15=111,16=1,31=1/1,2,10;
 10/6=1,31=1/2;
 6/7=2,8=2,9=2,10=2,18=1,28=1/1;
 7/8=1,10=1,25=1,30=1,33=1/1,2,3,16;
 1/10=4,30=1/3;
 99//99;
 -------------------
 Title Card Required
 -------------------
 Symbolic Z-matrix:
 Charge =  0 Multiplicity = 2
 C                    -2.30766   1.14949   0.37806 
 H                    -2.91828   2.00023   0.69024 
 H                    -2.8993    0.22817   0.36379 
 C                    -1.02762   0.9472    1.21059 
 H                    -0.46143   0.5219    0.06945 
 C                    -1.01931  -0.17173   2.21904 
 H                    -1.32415  -1.11891   1.76749 
 H                    -0.02786  -0.30265   2.66119 
 H                    -1.7156    0.03944   3.0427 
 C                    -0.31975   2.21208   1.64872 
 H                    -0.70405   2.51222   2.63478 
 H                     0.75029   1.99024   1.79044 
 O                    -0.50789   3.32737   0.79903 
 H                    -0.50277   3.02204  -0.11615 
 O                    -1.83386   1.45841  -0.9388 
 O                    -0.78623   0.51304  -1.13672 
 

 GradGradGradGradGradGradGradGradGradGradGradGradGradGradGradGradGradGrad
 Berny optimization.
 Initialization pass.
 Trust Radius=3.00D-01 FncErr=1.00D-07 GrdErr=1.00D-07
 Number of steps in this run=   2 maximum allowed number of steps=   2.
 GradGradGradGradGradGradGradGradGradGradGradGradGradGradGradGradGradGrad

                          Input orientation:                          
 ---------------------------------------------------------------------
 Center     Atomic     Atomic              Coordinates (Angstroms)
 Number     Number      Type              X           Y           Z
 ---------------------------------------------------------------------
    1          6             0       -2.307655    1.149488    0.378058
    2          1             0       -2.918278    2.000233    0.690237
    3          1             0       -2.899298    0.228172    0.363790
    4          6             0       -1.027621    0.947195    1.210585
    5          1             0       -0.461430    0.521904    0.069445
    6          6             0       -1.019307   -0.171726    2.219039
    7          1             0       -1.324146   -1.118910    1.767494
    8          1             0       -0.027858   -0.302652    2.661185
    9          1             0       -1.715602    0.039438    3.042695
   10          6             0       -0.319752    2.212078    1.648715
   11          1             0       -0.704048    2.512221    2.634782
   12          1             0        0.750292    1.990235    1.790441
   13          8             0       -0.507894    3.327367    0.799025
   14          1             0       -0.502773    3.022040   -0.116146
   15          8             0       -1.833857    1.458412   -0.938802
   16          8             0       -0.786229    0.513039   -1.136719
 ---------------------------------------------------------------------
                    Distance matrix (angstroms):
                    1          2          3          4          5
     1  C    0.000000
     2  H    1.092741   0.000000
     3  H    1.095020   1.801979   0.000000
     4  C    1.540296   2.225811   2.176518   0.000000
     5  H    1.974247   2.933759   2.473079   1.342999   0.000000
     6  C    2.606656   3.265078   2.671373   1.506331   2.326608
     7  H    2.836098   3.664805   2.503222   2.160293   2.513945
     8  H    3.538199   4.188370   3.715503   2.160066   2.754087
     9  H    2.946698   3.290168   2.934840   2.157306   3.262811
    10  C    2.587552   2.777750   3.498710   1.514254   2.317510
    11  H    3.085677   2.991020   3.897872   2.140641   3.255945
    12  H    3.471703   3.830007   4.296476   2.141294   2.566339
    13  O    2.856486   2.753738   3.938687   2.470772   2.899150
    14  H    2.647317   2.743904   3.712057   2.518067   2.507356
    15  O    1.433192   2.030593   2.084563   2.351855   1.943493
    16  O    2.239275   3.177286   2.607247   2.399291   1.249162
                    6          7          8          9         10
     6  C    0.000000
     7  H    1.092693   0.000000
     8  H    1.093438   1.773506   0.000000
     9  H    1.099011   1.766676   1.763818   0.000000
    10  C    2.548954   3.481149   2.726566   2.934611   0.000000
    11  H    2.734191   3.784418   2.895072   2.702645   1.100044
    12  H    2.826527   3.737727   2.573139   3.384432   1.101950
    13  O    3.810726   4.623157   4.107933   4.159698   1.414652
    14  H    3.989992   4.622794   4.358060   4.510559   1.950454
    15  O    3.645929   3.771794   4.395780   4.228450   3.091241
    16  O    3.432833   3.374473   3.957847   4.307613   3.295903
                   11         12         13         14         15
    11  H    0.000000
    12  H    1.760820   0.000000
    13  O    2.018153   2.086590   0.000000
    14  H    2.805001   2.503970   0.964774   0.000000
    15  O    3.893261   3.795975   2.875972   2.212121   0.000000
    16  O    4.269391   3.620949   3.427100   2.723417   1.424930
                   16
    16  O    0.000000
 Symmetry turned off by external request.
 Stoichiometry    C4H9O3(2)
 Framework group  C1[X(C4H9O3)]
 Deg. of freedom    42
 Full point group                 C1
 Rotational constants (GHZ):      2.8882128      2.4985823      1.6879377
 Standard basis: CBSB7 (5D, 7F)
 Integral buffers will be    131072 words long.
 Raffenetti 2 integral format.
 Two-electron integral symmetry is turned off.
   180 basis functions,   296 primitive gaussians,   187 cartesian basis functions
    29 alpha electrons       28 beta electrons
       nuclear repulsion energy       335.6160003136 Hartrees.
 NAtoms=   16 NActive=   16 NUniq=   16 SFac= 7.50D-01 NAtFMM=   80 NAOKFM=F Big=F
 One-electron integrals computed using PRISM.
 NBasis=   180 RedAO= T  NBF=   180
 NBsUse=   180 1.00D-06 NBFU=   180
 Harris functional with IExCor=  402 diagonalized for initial guess.
 ExpMin= 1.03D-01 ExpMax= 8.59D+03 ExpMxC= 1.30D+03 IAcc=1 IRadAn=         1 AccDes= 1.00D-06
 HarFok:  IExCor= 402 AccDes= 1.00D-06 IRadAn=         1 IDoV=1
 ScaDFX=  1.000000  1.000000  1.000000  1.000000
 <S**2> of initial guess= 0.7500
 Requested convergence on RMS density matrix=1.00D-08 within 128 cycles.
 Requested convergence on MAX density matrix=1.00D-06.
 Requested convergence on             energy=1.00D-06.
 No special actions if energy rises.
 Integral accuracy reduced to 1.0D-05 until final iterations.
 Initial convergence to 1.0D-05 achieved.  Increase integral accuracy.
 SCF Done:  E(UB+HF-LYP) =  -383.430288656     A.U. after   22 cycles
             Convg  =    0.8923D-08             -V/T =  2.0032
             S**2   =   0.7579
 Annihilation of the first spin contaminant:
 S**2 before annihilation     0.7579,   after     0.7500
 Range of M.O.s used for correlation:     1   180
 NBasis=   180 NAE=    29 NBE=    28 NFC=     0 NFV=     0
 NROrb=    180 NOA=    29 NOB=    28 NVA=   151 NVB=   152
 Symmetrizing basis deriv contribution to polar:
 IMax=3 JMax=2 DiffMx= 0.00D+00
 G2DrvN: will do   17 centers at a time, making    1 passes doing MaxLOS=2.
 FoFDir/FoFCou used for L=0 through L=2.
 DoAtom=TTTTTTTTTTTTTTTT
          Differentiating once with respect to electric field.
                with respect to dipole field.
          Differentiating once with respect to nuclear coordinates.
 Symmetry not used in FoFDir.
 MinBra= 0 MaxBra= 2 Meth= 1.
 IRaf=       0 NMat=  51 IRICut=      51 DoRegI=T DoRafI=T ISym2E= 0 JSym2E=0.
          There are  51 degrees of freedom in the 1st order CPHF.
    48 vectors were produced by pass  0.
 AX will form  48 AO Fock derivatives at one time.
    48 vectors were produced by pass  1.
    48 vectors were produced by pass  2.
    48 vectors were produced by pass  3.
    48 vectors were produced by pass  4.
    48 vectors were produced by pass  5.
    33 vectors were produced by pass  6.
     5 vectors were produced by pass  7.
     3 vectors were produced by pass  8.
 Inv2:  IOpt= 1 Iter= 1 AM= 3.28D-15 Conv= 1.00D-12.
 Inverted reduced A of dimension  329 with in-core refinement.
 Isotropic polarizability for W=    0.000000       63.45 Bohr**3.
 End of Minotr Frequency-dependent properties file   721 does not exist.

 **********************************************************************

            Population analysis using the SCF density.

 **********************************************************************

 Alpha  occ. eigenvalues --  -19.19105 -19.18165 -19.11771 -10.24185 -10.23456
 Alpha  occ. eigenvalues --  -10.22048 -10.19197  -1.14036  -1.02904  -0.88858
 Alpha  occ. eigenvalues --   -0.82908  -0.70685  -0.69668  -0.59745  -0.54109
 Alpha  occ. eigenvalues --   -0.52313  -0.50269  -0.46482  -0.45739  -0.44398
 Alpha  occ. eigenvalues --   -0.43259  -0.41930  -0.39840  -0.37458  -0.35610
 Alpha  occ. eigenvalues --   -0.33729  -0.28853  -0.26496  -0.25002
 Alpha virt. eigenvalues --    0.01681   0.03630   0.05776   0.06843   0.07306
 Alpha virt. eigenvalues --    0.09460   0.09874   0.10885   0.12476   0.13931
 Alpha virt. eigenvalues --    0.15859   0.16753   0.19351   0.22244   0.23833
 Alpha virt. eigenvalues --    0.29392   0.31043   0.32673   0.34654   0.38749
 Alpha virt. eigenvalues --    0.39697   0.42594   0.43994   0.45789   0.47676
 Alpha virt. eigenvalues --    0.48754   0.51935   0.53811   0.54565   0.55241
 Alpha virt. eigenvalues --    0.56394   0.57660   0.58093   0.58625   0.62052
 Alpha virt. eigenvalues --    0.64984   0.66896   0.72760   0.77152   0.79459
 Alpha virt. eigenvalues --    0.82433   0.84072   0.88444   0.93124   0.93650
 Alpha virt. eigenvalues --    0.93705   0.96216   0.97978   1.05860   1.08996
 Alpha virt. eigenvalues --    1.10837   1.15922   1.21686   1.25634   1.33795
 Alpha virt. eigenvalues --    1.35876   1.37458   1.39081   1.40640   1.43085
 Alpha virt. eigenvalues --    1.44958   1.45758   1.48955   1.50666   1.52925
 Alpha virt. eigenvalues --    1.53819   1.56172   1.56880   1.58243   1.61859
 Alpha virt. eigenvalues --    1.62605   1.64886   1.67741   1.68860   1.71089
 Alpha virt. eigenvalues --    1.73661   1.75528   1.78748   1.80637   1.87568
 Alpha virt. eigenvalues --    1.92948   1.93998   2.00188   2.01414   2.03946
 Alpha virt. eigenvalues --    2.06992   2.10914   2.13206   2.18298   2.23936
 Alpha virt. eigenvalues --    2.32348   2.33612   2.35035   2.36390   2.42714
 Alpha virt. eigenvalues --    2.44078   2.45138   2.46526   2.48602   2.51268
 Alpha virt. eigenvalues --    2.53741   2.55448   2.56362   2.59847   2.60410
 Alpha virt. eigenvalues --    2.66050   2.70236   2.72625   2.75668   2.83148
 Alpha virt. eigenvalues --    2.86153   2.88786   2.91268   2.94881   3.01800
 Alpha virt. eigenvalues --    3.06714   3.11553   3.15755   3.18815   3.20572
 Alpha virt. eigenvalues --    3.25581   3.29810   3.47187   3.49895   3.63079
 Alpha virt. eigenvalues --    3.67363   3.73906   3.75625   3.79789   3.81044
 Alpha virt. eigenvalues --    3.88551   3.92525   3.93083   4.24047   4.29029
 Alpha virt. eigenvalues --    4.70294   4.77999   4.87860   4.94309   5.00573
 Alpha virt. eigenvalues --    5.26962   5.31243   5.64280   5.65929  23.70805
 Alpha virt. eigenvalues --   23.74012  23.80856  23.90285  49.74965  49.82473
 Alpha virt. eigenvalues --   49.90038
  Beta  occ. eigenvalues --  -19.18970 -19.16845 -19.11766 -10.24184 -10.23478
  Beta  occ. eigenvalues --  -10.21229 -10.19227  -1.12794  -1.02858  -0.86794
  Beta  occ. eigenvalues --   -0.81669  -0.70359  -0.69302  -0.58562  -0.52183
  Beta  occ. eigenvalues --   -0.51788  -0.49856  -0.45957  -0.45057  -0.43809
  Beta  occ. eigenvalues --   -0.42647  -0.41503  -0.38338  -0.35991  -0.34970
  Beta  occ. eigenvalues --   -0.33007  -0.28429  -0.24925
  Beta virt. eigenvalues --   -0.13789   0.02100   0.04182   0.05938   0.06970
  Beta virt. eigenvalues --    0.07461   0.09577   0.10026   0.10975   0.12638
  Beta virt. eigenvalues --    0.14685   0.16587   0.17457   0.20007   0.22707
  Beta virt. eigenvalues --    0.24252   0.29910   0.31413   0.32839   0.34846
  Beta virt. eigenvalues --    0.38833   0.39886   0.42923   0.44425   0.46733
  Beta virt. eigenvalues --    0.47971   0.49440   0.52772   0.54334   0.54723
  Beta virt. eigenvalues --    0.55489   0.56656   0.57970   0.58341   0.58804
  Beta virt. eigenvalues --    0.62198   0.65428   0.67053   0.73490   0.78409
  Beta virt. eigenvalues --    0.79976   0.82813   0.84440   0.88815   0.93330
  Beta virt. eigenvalues --    0.94049   0.94773   0.96624   0.98578   1.06074
  Beta virt. eigenvalues --    1.09421   1.11374   1.16089   1.22020   1.25897
  Beta virt. eigenvalues --    1.34306   1.36440   1.37954   1.39556   1.41061
  Beta virt. eigenvalues --    1.43617   1.45386   1.46786   1.49224   1.51036
  Beta virt. eigenvalues --    1.53207   1.54168   1.56433   1.57320   1.58628
  Beta virt. eigenvalues --    1.62099   1.62905   1.65356   1.68092   1.69102
  Beta virt. eigenvalues --    1.71207   1.73798   1.76061   1.79297   1.80922
  Beta virt. eigenvalues --    1.87867   1.93789   1.94578   2.00522   2.02107
  Beta virt. eigenvalues --    2.04466   2.07422   2.11406   2.13604   2.19166
  Beta virt. eigenvalues --    2.24275   2.33034   2.33923   2.35244   2.36658
  Beta virt. eigenvalues --    2.43188   2.44758   2.45534   2.46859   2.49092
  Beta virt. eigenvalues --    2.51533   2.54092   2.55793   2.56811   2.60284
  Beta virt. eigenvalues --    2.60833   2.66606   2.71117   2.72902   2.76122
  Beta virt. eigenvalues --    2.83467   2.86659   2.89332   2.91577   2.97698
  Beta virt. eigenvalues --    3.02335   3.07039   3.12006   3.16730   3.19597
  Beta virt. eigenvalues --    3.20707   3.26394   3.30349   3.48277   3.51685
  Beta virt. eigenvalues --    3.63838   3.67637   3.74962   3.76385   3.79976
  Beta virt. eigenvalues --    3.81463   3.88689   3.92826   3.93326   4.24703
  Beta virt. eigenvalues --    4.29686   4.70813   4.79275   4.88244   4.94840
  Beta virt. eigenvalues --    5.04663   5.27030   5.31635   5.64560   5.66387
  Beta virt. eigenvalues --   23.71512  23.74176  23.80894  23.90260  49.76143
  Beta virt. eigenvalues --   49.82745  49.90047
          Condensed to atoms (all electrons):
              1          2          3          4          5          6
     1  C    4.926920   0.394715   0.401643   0.244783  -0.061862  -0.055071
     2  H    0.394715   0.541703  -0.030086  -0.035861   0.003791   0.000095
     3  H    0.401643  -0.030086   0.585763  -0.060449  -0.007432  -0.000087
     4  C    0.244783  -0.035861  -0.060449   5.712435   0.265694   0.295007
     5  H   -0.061862   0.003791  -0.007432   0.265694   0.533517  -0.015738
     6  C   -0.055071   0.000095  -0.000087   0.295007  -0.015738   4.881642
     7  H   -0.004215  -0.000321   0.006524  -0.030592  -0.006980   0.396553
     8  H    0.008298  -0.000279   0.000215  -0.037762  -0.002445   0.401624
     9  H   -0.007172   0.001690  -0.001434  -0.034375   0.004506   0.394222
    10  C   -0.053094  -0.000964   0.006425   0.297383  -0.023284  -0.035232
    11  H   -0.012478   0.000633  -0.000857  -0.035159   0.005436   0.000567
    12  H    0.013561   0.000947  -0.000311  -0.051239  -0.007616  -0.007725
    13  O    0.020156   0.008767   0.000392  -0.055011   0.001352   0.004235
    14  H   -0.011550  -0.003228   0.000836   0.003939   0.004459   0.000232
    15  O    0.202387  -0.022600  -0.031058  -0.026020  -0.056603   0.004243
    16  O   -0.072210   0.004175   0.010480  -0.088894   0.141534  -0.001175
              7          8          9         10         11         12
     1  C   -0.004215   0.008298  -0.007172  -0.053094  -0.012478   0.013561
     2  H   -0.000321  -0.000279   0.001690  -0.000964   0.000633   0.000947
     3  H    0.006524   0.000215  -0.001434   0.006425  -0.000857  -0.000311
     4  C   -0.030592  -0.037762  -0.034375   0.297383  -0.035159  -0.051239
     5  H   -0.006980  -0.002445   0.004506  -0.023284   0.005436  -0.007616
     6  C    0.396553   0.401624   0.394222  -0.035232   0.000567  -0.007725
     7  H    0.560445  -0.025794  -0.030009   0.006504  -0.000484  -0.000722
     8  H   -0.025794   0.561537  -0.028919  -0.002822  -0.002343   0.006896
     9  H   -0.030009  -0.028919   0.579201  -0.006280   0.006273  -0.000978
    10  C    0.006504  -0.002822  -0.006280   4.664609   0.381494   0.400936
    11  H   -0.000484  -0.002343   0.006273   0.381494   0.616863  -0.045990
    12  H   -0.000722   0.006896  -0.000978   0.400936  -0.045990   0.619289
    13  O   -0.000210   0.000037  -0.000146   0.316900  -0.034829  -0.032813
    14  H    0.000061  -0.000032   0.000031  -0.051321   0.009021  -0.005046
    15  O    0.000334  -0.000246  -0.000213   0.000723  -0.000669  -0.000754
    16  O    0.003748  -0.000030  -0.000249   0.003699  -0.000146   0.000528
             13         14         15         16
     1  C    0.020156  -0.011550   0.202387  -0.072210
     2  H    0.008767  -0.003228  -0.022600   0.004175
     3  H    0.000392   0.000836  -0.031058   0.010480
     4  C   -0.055011   0.003939  -0.026020  -0.088894
     5  H    0.001352   0.004459  -0.056603   0.141534
     6  C    0.004235   0.000232   0.004243  -0.001175
     7  H   -0.000210   0.000061   0.000334   0.003748
     8  H    0.000037  -0.000032  -0.000246  -0.000030
     9  H   -0.000146   0.000031  -0.000213  -0.000249
    10  C    0.316900  -0.051321   0.000723   0.003699
    11  H   -0.034829   0.009021  -0.000669  -0.000146
    12  H   -0.032813  -0.005046  -0.000754   0.000528
    13  O    7.855314   0.325134  -0.006849  -0.000086
    14  H    0.325134   0.455948   0.020367   0.000809
    15  O   -0.006849   0.020367   8.067927   0.077813
    16  O   -0.000086   0.000809   0.077813   8.144172
 Mulliken atomic charges:
              1
     1  C    0.065187
     2  H    0.136824
     3  H    0.119436
     4  C   -0.363879
     5  H    0.221671
     6  C   -0.263394
     7  H    0.125157
     8  H    0.122067
     9  H    0.123852
    10  C    0.094323
    11  H    0.112671
    12  H    0.111036
    13  O   -0.402341
    14  H    0.250341
    15  O   -0.228782
    16  O   -0.224168
 Sum of Mulliken charges=   0.00000
 Atomic charges with hydrogens summed into heavy atoms:
              1
     1  C    0.321447
     2  H    0.000000
     3  H    0.000000
     4  C   -0.363879
     5  H    0.000000
     6  C    0.107683
     7  H    0.000000
     8  H    0.000000
     9  H    0.000000
    10  C    0.318029
    11  H    0.000000
    12  H    0.000000
    13  O   -0.152000
    14  H    0.000000
    15  O   -0.228782
    16  O   -0.002498
 Sum of Mulliken charges=   0.00000
          Atomic-Atomic Spin Densities.
              1          2          3          4          5          6
     1  C   -0.012872   0.004259   0.000120  -0.001330   0.011764   0.002815
     2  H    0.004259   0.005212   0.001933  -0.004456  -0.000476  -0.000166
     3  H    0.000120   0.001933   0.001555   0.001305   0.002239  -0.000135
     4  C   -0.001330  -0.004456   0.001305   0.628642   0.052775  -0.024649
     5  H    0.011764  -0.000476   0.002239   0.052775  -0.068486  -0.002354
     6  C    0.002815  -0.000166  -0.000135  -0.024649  -0.002354  -0.026932
     7  H    0.001035  -0.000089  -0.000977  -0.004344   0.000050   0.004993
     8  H    0.000557  -0.000053  -0.000165  -0.005632  -0.000422   0.003950
     9  H   -0.002814   0.000572   0.001270  -0.014652   0.000221   0.006940
    10  C    0.001293  -0.000215  -0.000454  -0.030480  -0.001190   0.002394
    11  H   -0.001031   0.000797   0.000298  -0.013161   0.000091   0.000287
    12  H    0.000679  -0.000172  -0.000089  -0.012141  -0.001063   0.000929
    13  O    0.000036  -0.000412  -0.000047  -0.000153   0.000008   0.000013
    14  H    0.000339   0.000385   0.000093   0.002508   0.000376  -0.000070
    15  O   -0.007054  -0.001382  -0.002773   0.003647   0.004637  -0.000060
    16  O    0.005768  -0.000548  -0.001769  -0.075115  -0.029316   0.001958
              7          8          9         10         11         12
     1  C    0.001035   0.000557  -0.002814   0.001293  -0.001031   0.000679
     2  H   -0.000089  -0.000053   0.000572  -0.000215   0.000797  -0.000172
     3  H   -0.000977  -0.000165   0.001270  -0.000454   0.000298  -0.000089
     4  C   -0.004344  -0.005632  -0.014652  -0.030480  -0.013161  -0.012141
     5  H    0.000050  -0.000422   0.000221  -0.001190   0.000091  -0.001063
     6  C    0.004993   0.003950   0.006940   0.002394   0.000287   0.000929
     7  H    0.007103   0.001967  -0.004834   0.000163  -0.000235   0.000224
     8  H    0.001967   0.011421  -0.006804   0.001434  -0.001494   0.001623
     9  H   -0.004834  -0.006804   0.056517  -0.000876   0.004312  -0.001236
    10  C    0.000163   0.001434  -0.000876  -0.017975   0.004432   0.010346
    11  H   -0.000235  -0.001494   0.004312   0.004432   0.052407  -0.009975
    12  H    0.000224   0.001623  -0.001236   0.010346  -0.009975   0.027992
    13  O    0.000004   0.000008  -0.000045   0.003468  -0.001702   0.000000
    14  H   -0.000015  -0.000040   0.000070  -0.000872   0.000986  -0.001056
    15  O    0.000046  -0.000002  -0.000034  -0.000852   0.000185  -0.000200
    16  O    0.000429   0.000464  -0.000432   0.004212  -0.000495   0.001455
             13         14         15         16
     1  C    0.000036   0.000339  -0.007054   0.005768
     2  H   -0.000412   0.000385  -0.001382  -0.000548
     3  H   -0.000047   0.000093  -0.002773  -0.001769
     4  C   -0.000153   0.002508   0.003647  -0.075115
     5  H    0.000008   0.000376   0.004637  -0.029316
     6  C    0.000013  -0.000070  -0.000060   0.001958
     7  H    0.000004  -0.000015   0.000046   0.000429
     8  H    0.000008  -0.000040  -0.000002   0.000464
     9  H   -0.000045   0.000070  -0.000034  -0.000432
    10  C    0.003468  -0.000872  -0.000852   0.004212
    11  H   -0.001702   0.000986   0.000185  -0.000495
    12  H    0.000000  -0.001056  -0.000200   0.001455
    13  O    0.001454  -0.001588  -0.000433   0.000207
    14  H   -0.001588   0.002123   0.000760  -0.001820
    15  O   -0.000433   0.000760   0.064779  -0.027093
    16  O    0.000207  -0.001820  -0.027093   0.553886
 Mulliken atomic spin densities:
              1
     1  C    0.003563
     2  H    0.005190
     3  H    0.002405
     4  C    0.502766
     5  H   -0.031146
     6  C   -0.030086
     7  H    0.005521
     8  H    0.006812
     9  H    0.038175
    10  C   -0.025172
    11  H    0.035702
    12  H    0.017314
    13  O    0.000818
    14  H    0.002178
    15  O    0.034170
    16  O    0.431792
 Sum of Mulliken spin densities=   1.00000
 APT atomic charges:
              1
     1  C    0.245823
     2  H    0.036166
     3  H   -0.039146
     4  C    0.264158
     5  H   -0.196084
     6  C    0.001962
     7  H    0.002418
     8  H    0.007453
     9  H   -0.020462
    10  C    0.347338
    11  H   -0.034488
    12  H   -0.046797
    13  O   -0.562802
    14  H    0.270974
    15  O   -0.293922
    16  O    0.017408
 Sum of APT charges=   0.00000
 APT Atomic charges with hydrogens summed into heavy atoms:
              1
     1  C    0.242843
     2  H    0.000000
     3  H    0.000000
     4  C    0.264158
     5  H    0.000000
     6  C   -0.008629
     7  H    0.000000
     8  H    0.000000
     9  H    0.000000
    10  C    0.266053
    11  H    0.000000
    12  H    0.000000
    13  O   -0.291827
    14  H    0.000000
    15  O   -0.293922
    16  O   -0.178676
 Sum of APT charges=   0.00000
 Electronic spatial extent (au):  <R**2>=  1478.1699
 Charge=     0.0000 electrons
 Dipole moment (field-independent basis, Debye):
    X=    -0.4440    Y=    -1.6642    Z=     3.0717  Tot=     3.5217
 Quadrupole moment (field-independent basis, Debye-Ang):
   XX=   -39.8653   YY=   -51.9632   ZZ=   -42.0984
   XY=     0.7378   XZ=    -4.0492   YZ=    -0.0541
 Traceless Quadrupole moment (field-independent basis, Debye-Ang):
   XX=     4.7770   YY=    -7.3209   ZZ=     2.5439
   XY=     0.7378   XZ=    -4.0492   YZ=    -0.0541
 Octapole moment (field-independent basis, Debye-Ang**2):
  XXX=   132.7335  YYY=  -209.0355  ZZZ=   -79.6218  XYY=    51.4349
  XXY=   -53.4504  XXZ=   -22.2581  XZZ=    47.8890  YZZ=   -53.9427
  YYZ=   -40.7703  XYZ=    -3.3121
 Hexadecapole moment (field-independent basis, Debye-Ang**3):
 XXXX=  -475.5749 YYYY=  -976.3938 ZZZZ=  -531.2489 XXXY=   142.2321
 XXXZ=    48.4754 YYYX=   173.2213 YYYZ=  -158.0908 ZZZX=    51.8841
 ZZZY=   -86.5435 XXYY=  -214.4961 XXZZ=  -175.5934 YYZZ=  -223.4638
 XXYZ=   -24.4251 YYXZ=    20.4178 ZZXY=    51.2749
 N-N= 3.356160003136D+02 E-N=-1.570548858229D+03  KE= 3.821883088514D+02
  Exact polarizability:  55.488   0.578  58.450   4.378  -0.225  76.414
 Approx polarizability:  80.670  -5.772  82.228   0.828   3.234 115.371
                          Isotropic Fermi Contact Couplings
        Atom                 a.u.       MegaHertz       Gauss      10(-4) cm-1
     1  C(13)             -0.01526     -17.15459      -6.12118      -5.72216
     2  H(1)               0.00342      15.27679       5.45114       5.09579
     3  H(1)               0.00073       3.26305       1.16434       1.08844
     4  C(13)              0.06560      73.74230      26.31308      24.59778
     5  H(1)              -0.01869     -83.54069     -29.80940     -27.86618
     6  C(13)             -0.01205     -13.55094      -4.83531      -4.52011
     7  H(1)               0.00349      15.60990       5.57000       5.20690
     8  H(1)               0.00350      15.65714       5.58686       5.22266
     9  H(1)               0.01770      79.11019      28.22848      26.38832
    10  C(13)             -0.01203     -13.52524      -4.82614      -4.51154
    11  H(1)               0.01642      73.40398      26.19236      24.48493
    12  H(1)               0.00978      43.72295      15.60144      14.58441
    13  O(17)              0.00582      -3.53069      -1.25984      -1.17771
    14  H(1)               0.00023       1.03097       0.36787       0.34389
    15  O(17)              0.06293     -38.14839     -13.61229     -12.72493
    16  O(17)              0.03272     -19.83723      -7.07842      -6.61699
 --------------------------------------------------------
       Center         ----  Spin Dipole Couplings  ----
                      3XX-RR        3YY-RR        3ZZ-RR
 --------------------------------------------------------
     1   Atom       -0.006810     -0.024163      0.030972
     2   Atom        0.004389     -0.002884     -0.001504
     3   Atom        0.008134     -0.005290     -0.002844
     4   Atom        0.097952     -0.208567      0.110615
     5   Atom       -0.080924     -0.088041      0.168965
     6   Atom       -0.008496     -0.005449      0.013945
     7   Atom       -0.005717      0.008061     -0.002344
     8   Atom       -0.003230     -0.001514      0.004744
     9   Atom       -0.003324     -0.002147      0.005471
    10   Atom       -0.012150      0.016696     -0.004545
    11   Atom       -0.005407      0.001174      0.004232
    12   Atom        0.005809     -0.002724     -0.003085
    13   Atom        0.005044      0.001376     -0.006420
    14   Atom       -0.006387      0.009416     -0.003029
    15   Atom        0.109785     -0.028419     -0.081367
    16   Atom       -0.413734     -0.922547      1.336282
 --------------------------------------------------------
                        XY            XZ            YZ
 --------------------------------------------------------
     1   Atom       -0.013415      0.021969     -0.013195
     2   Atom       -0.008658      0.000175      0.002132
     3   Atom        0.005851      0.000541      0.000679
     4   Atom       -0.230817     -0.433941      0.232687
     5   Atom       -0.014427     -0.015905      0.038060
     6   Atom       -0.000644     -0.010264     -0.008568
     7   Atom        0.003310     -0.001481     -0.005997
     8   Atom       -0.003472      0.005225     -0.006232
     9   Atom        0.000337     -0.004553     -0.004443
    10   Atom       -0.003613     -0.003126      0.020486
    11   Atom        0.002953     -0.000476      0.005476
    12   Atom        0.007464      0.006023      0.003835
    13   Atom        0.006081      0.004125     -0.001982
    14   Atom        0.003110     -0.000421     -0.001385
    15   Atom        0.205203      0.096680      0.058779
    16   Atom        0.228843      1.177535      0.486977
 --------------------------------------------------------


 ---------------------------------------------------------------------------------
              Anisotropic Spin Dipole Couplings in Principal Axis System
 ---------------------------------------------------------------------------------

       Atom             a.u.   MegaHertz   Gauss  10(-4) cm-1        Axes

              Baa    -0.0315    -4.226    -1.508    -1.410  0.4595  0.8878  0.0259
     1 C(13)  Bbb    -0.0140    -1.885    -0.673    -0.629  0.7782 -0.3883 -0.4936
              Bcc     0.0455     6.111     2.181     2.038  0.4281 -0.2470  0.8693
 
              Baa    -0.0091    -4.857    -1.733    -1.620  0.5264  0.8154 -0.2409
     2 H(1)   Bbb    -0.0011    -0.604    -0.216    -0.202  0.2073  0.1517  0.9665
              Bcc     0.0102     5.461     1.949     1.822  0.8246 -0.5587 -0.0892
 
              Baa    -0.0075    -4.015    -1.433    -1.339 -0.3455  0.9335 -0.0954
     3 H(1)   Bbb    -0.0028    -1.517    -0.541    -0.506 -0.0861  0.0697  0.9938
              Bcc     0.0104     5.532     1.974     1.845  0.9345  0.3516  0.0563
 
              Baa    -0.3324   -44.601   -15.915   -14.877  0.4815  0.8764  0.0113
     4 C(13)  Bbb    -0.3293   -44.193   -15.769   -14.741  0.5799 -0.3282  0.7456
              Bcc     0.6617    88.794    31.684    29.619 -0.6572  0.3524  0.6663
 
              Baa    -0.1011   -53.951   -19.251   -17.996  0.5327  0.8418 -0.0873
     5 H(1)   Bbb    -0.0746   -39.806   -14.204   -13.278  0.8434 -0.5197  0.1363
              Bcc     0.1757    93.757    33.455    31.274 -0.0694  0.1462  0.9868
 
              Baa    -0.0144    -1.934    -0.690    -0.645  0.7818  0.4593  0.4218
     6 C(13)  Bbb    -0.0059    -0.791    -0.282    -0.264 -0.5380  0.8387  0.0839
              Bcc     0.0203     2.725     0.972     0.909 -0.3152 -0.2925  0.9028
 
              Baa    -0.0065    -3.456    -1.233    -1.153  0.9785 -0.1946  0.0683
     7 H(1)   Bbb    -0.0051    -2.711    -0.967    -0.904  0.0182  0.4113  0.9113
              Bcc     0.0116     6.167     2.201     2.057  0.2054  0.8905 -0.4060
 
              Baa    -0.0060    -3.199    -1.142    -1.067  0.8787  0.4467 -0.1683
     8 H(1)   Bbb    -0.0053    -2.827    -1.009    -0.943 -0.2660  0.7510  0.6044
              Bcc     0.0113     6.027     2.151     2.010  0.3964 -0.4863  0.7787
 
              Baa    -0.0060    -3.226    -1.151    -1.076  0.7373  0.4791  0.4763
     9 H(1)   Bbb    -0.0030    -1.587    -0.566    -0.529 -0.5885  0.8017  0.1046
              Bcc     0.0090     4.813     1.717     1.605 -0.3318 -0.3574  0.8730
 
              Baa    -0.0171    -2.300    -0.821    -0.767  0.1734 -0.4964  0.8506
    10 C(13)  Bbb    -0.0125    -1.683    -0.601    -0.561  0.9785  0.1850 -0.0915
              Bcc     0.0297     3.983     1.421     1.329 -0.1120  0.8481  0.5178
 
              Baa    -0.0072    -3.836    -1.369    -1.280  0.8446 -0.4682  0.2597
    11 H(1)   Bbb    -0.0013    -0.719    -0.256    -0.240  0.5250  0.6294 -0.5729
              Bcc     0.0085     4.555     1.625     1.519  0.1048  0.6202  0.7774
 
              Baa    -0.0071    -3.806    -1.358    -1.270 -0.3903  0.8841 -0.2568
    12 H(1)   Bbb    -0.0061    -3.267    -1.166    -1.090 -0.4733  0.0466  0.8797
              Bcc     0.0133     7.073     2.524     2.359  0.7897  0.4649  0.4002
 
              Baa    -0.0093     0.674     0.241     0.225 -0.4010  0.3824  0.8325
    13 O(17)  Bbb    -0.0005     0.040     0.014     0.013 -0.4083  0.7389 -0.5360
              Bcc     0.0099    -0.714    -0.255    -0.238  0.8201  0.5548  0.1402
 
              Baa    -0.0070    -3.726    -1.329    -1.243  0.9823 -0.1829  0.0404
    14 H(1)   Bbb    -0.0032    -1.697    -0.605    -0.566 -0.0196  0.1141  0.9933
              Bcc     0.0102     5.422     1.935     1.809  0.1862  0.9765 -0.1085
 
              Baa    -0.1770    12.806     4.569     4.272 -0.6056  0.7852  0.1296
    15 O(17)  Bbb    -0.1144     8.277     2.954     2.761 -0.1557 -0.2767  0.9483
              Bcc     0.2914   -21.083    -7.523    -7.033  0.7804  0.5540  0.2898
 
              Baa    -1.0291    74.467    26.572    24.839  0.3921  0.8428 -0.3687
    16 O(17)  Bbb    -0.9973    72.164    25.750    24.071  0.8072 -0.5074 -0.3014
              Bcc     2.0264  -146.631   -52.322   -48.911  0.4412  0.1794  0.8793
 

 ---------------------------------------------------------------------------------

 Use density number 0.
 Entering OneElI...
 Calculate overlap and kinetic energy integrals
    NBasis = 187  MinDer = 2  MaxDer = 2
 Requested accuracy = 0.1000D-12
 PrsmSu:  NPrtUS=   1 ThrOK=F
 PRISM was handed   130758196 working-precision words and  2555 shell-pairs
 Entering OneElI...
 Calculate potential energy integrals
    NBasis = 187  MinDer = 2  MaxDer = 2
 Requested accuracy = 0.1000D-12
 PrsmSu:  NPrtUS=   8 ThrOK=T
 PRISM was handed    16300315 working-precision words and  2410 shell-pairs
 PRISM was handed    16300315 working-precision words and  2410 shell-pairs
 PRISM was handed    16300315 working-precision words and  2410 shell-pairs
 PRISM was handed    16300315 working-precision words and  2410 shell-pairs
 PRISM was handed    16300315 working-precision words and  2410 shell-pairs
 PRISM was handed    16300315 working-precision words and  2410 shell-pairs
 PRISM was handed    16300315 working-precision words and  2410 shell-pairs
 PRISM was handed    16300315 working-precision words and  2410 shell-pairs
 Polarizability after L701:
                1             2             3
      1  0.554878D+02
      2  0.578112D+00  0.584505D+02
      3  0.437768D+01 -0.225286D+00  0.764144D+02
 Dipole Derivatives after L701:
               1            2            3            4            5
      1 0.401482D+00 0.935080D-01-0.134316D+00 0.217156D-01 0.939307D-01
      2 0.446721D-01 0.293607D+00-0.702599D-01 0.539428D-01-0.128225D-01
      3 0.634620D-01 0.432595D-01 0.423800D-01 0.521302D-01-0.145072D-01
               6            7            8            9           10
      1 0.453489D-01-0.338761D-01-0.142477D+00 0.105844D-01-0.193879D+00
      2-0.101934D-01-0.619307D-01-0.101667D+00-0.153216D-01 0.670343D-01
      3 0.996057D-01 0.396677D-02 0.202269D-02 0.181048D-01-0.458697D+00
              11           12           13           14           15
      1 0.903330D-01 0.186480D+00 0.124579D+00-0.406310D-01-0.261382D+00
      2 0.154374D+00-0.590288D-02-0.108235D-02 0.104940D+00-0.166007D-01
      3 0.212547D+00 0.831978D+00 0.112856D-01-0.657387D-01-0.817771D+00
              16           17           18           19           20
      1 0.107040D+00-0.428629D-01-0.385134D-01 0.572195D-01-0.449999D-01
      2-0.826126D-01-0.368449D-02 0.109712D+00-0.502610D-01-0.791835D-01
      3 0.126585D+00-0.135406D-01-0.974702D-01-0.331066D-01-0.132851D-01
              21           22           23           24           25
      1-0.236079D-01-0.930250D-01-0.921385D-02-0.532218D-01-0.356288D-02
      2-0.802752D-01 0.352423D-01 0.654862D-01 0.156008D-01 0.293076D-01
      3 0.292171D-01-0.954861D-01 0.210866D-01 0.498991D-01 0.816832D-01
              26           27           28           29           30
      1 0.563097D-01 0.656030D-01 0.365119D+00-0.696991D-01-0.106455D+00
      2 0.216876D-01 0.293418D-02-0.104073D+00 0.522633D+00-0.339523D+00
      3 0.807469D-02-0.795100D-01 0.116567D+00-0.191174D+00 0.154263D+00
              31           32           33           34           35
      1 0.171297D-01-0.266496D-01 0.471075D-01-0.163350D+00 0.638917D-01
      2 0.225216D-01-0.605548D-02-0.320600D-02 0.616504D-01-0.171871D-01
      3 0.653291D-01-0.101609D+00-0.114539D+00-0.611975D-01 0.464012D-01
              36           37           38           39           40
      1-0.145015D-01-0.473851D+00-0.601479D-01-0.215075D-01 0.306407D+00
      2 0.370827D-01-0.480651D-01-0.769577D+00 0.324980D+00 0.109595D+00
      3 0.401462D-01-0.348471D-01 0.224606D+00-0.444977D+00-0.214735D-01
              41           42           43           44           45
      1 0.743517D-01 0.494581D-02-0.464505D+00 0.810348D-01 0.820650D-01
      2 0.294366D+00-0.446459D-01-0.126680D-01-0.280918D+00 0.100925D+00
      3-0.966415D-01 0.212150D+00-0.560077D+00 0.415337D+00-0.136344D+00
              46           47           48
      1 0.253569D-01-0.116678D+00 0.211371D+00
      2-0.632739D-01-0.186000D+00-0.530612D-02
      3 0.743876D+00-0.476838D+00 0.212866D+00
 Hessian after L701:
                1             2             3             4             5
      1  0.163390D+02
      2 -0.297068D+00  0.179495D+02
      3 -0.681212D-01  0.966839D+00  0.125947D+02
      4 -0.376707D+01 -0.151901D+01 -0.676397D+00  0.332642D+01
      5 -0.128395D+01 -0.305635D+01  0.787242D+00  0.165964D+01  0.297978D+01
      6 -0.593907D+00  0.818875D+00 -0.443642D+01  0.696530D+00 -0.959436D+00
      7 -0.366367D+01  0.169254D+01 -0.690873D-01  0.134602D+00 -0.355592D-03
      8  0.149802D+01 -0.257759D+01 -0.820408D-01  0.840450D-02 -0.191373D+00
      9 -0.753725D-01 -0.919552D-01 -0.476893D+01 -0.187047D-02 -0.590822D-01
     10 -0.210430D+01 -0.705682D+00  0.288797D+01  0.578649D-01 -0.474992D-01
     11 -0.770699D+00 -0.572397D+01 -0.574021D+00 -0.712593D-02  0.142580D+00
     12  0.308736D+01 -0.569283D+00 -0.383601D+01 -0.413771D-01  0.755585D-02
     13 -0.556754D-01  0.128527D+00  0.149406D+00  0.615850D-01 -0.530659D-01
     14  0.167013D+00  0.192447D+00 -0.686328D-01 -0.522696D-01  0.113876D-01
     15  0.971021D-01 -0.337019D-01  0.204839D+00 -0.210518D-01  0.168904D-01
     16  0.361575D-01 -0.826324D-01  0.117832D+00  0.104797D-01 -0.456062D-01
     17  0.188892D-01 -0.135441D-01 -0.251240D-01 -0.372793D-01  0.225180D-01
     18  0.278868D-02 -0.488086D-01  0.661400D-01  0.199568D-01 -0.252924D-01
     19 -0.127662D-01  0.298636D-02 -0.225751D-02 -0.182007D-02 -0.549619D-04
     20  0.101521D-01  0.762292D-02 -0.153995D-01 -0.873353D-02  0.125166D-01
     21 -0.694657D-02  0.214197D-01 -0.271791D-01 -0.178189D-02  0.267507D-02
     22  0.545752D-01 -0.739402D-01  0.120250D+00  0.454734D-02 -0.689781D-02
     23 -0.703554D-01 -0.929481D-02 -0.711967D-01  0.990643D-04  0.716410D-03
     24  0.104950D+00 -0.676916D-01  0.655533D-01  0.166324D-02 -0.302810D-02
     25  0.606935D-02  0.261364D-02 -0.105517D-01 -0.661503D-02 -0.290234D-02
     26 -0.210638D-02 -0.120751D-01  0.180260D-01 -0.102377D-01  0.649413D-02
     27 -0.338520D-02 -0.448417D-02  0.779725D-02  0.199734D-01 -0.289989D-01
     28  0.995926D-01  0.608017D-01  0.761052D-01  0.411371D-01 -0.133938D-01
     29 -0.224443D-02  0.189169D-01  0.294832D-01  0.174584D-01 -0.274747D-01
     30 -0.500959D-01 -0.341999D-02  0.496192D-01  0.141955D-01  0.225435D-02
     31 -0.243510D-02 -0.370714D-01 -0.530274D-01  0.910732D-02  0.131613D-02
     32 -0.447819D-01 -0.148073D-01 -0.605578D-01  0.706740D-02 -0.882535D-02
     33 -0.659388D-01 -0.551161D-01 -0.483633D-01  0.273941D-01 -0.717149D-02
     34  0.243006D+00  0.887727D-01  0.157632D+00  0.306500D-01 -0.927950D-02
     35  0.719426D-01 -0.641177D-01  0.334258D-01 -0.130352D-02 -0.420366D-02
     36  0.139030D+00  0.384554D-01 -0.669978D-02  0.100541D-01 -0.180529D-02
     37 -0.316613D+00  0.460192D+00  0.103600D+00  0.786252D-01  0.248603D-01
     38  0.392849D+00  0.560724D+00  0.217151D+00  0.126084D+00 -0.602478D-01
     39  0.106262D+00  0.232656D+00 -0.394383D+00  0.227078D-01 -0.682385D-02
     40 -0.271702D-01 -0.408240D-01  0.180160D-01 -0.113022D-01 -0.895807D-02
     41 -0.706912D-01 -0.489058D-01  0.228206D-01 -0.128851D-01  0.282849D-02
     42  0.193852D-02 -0.249941D-01  0.184824D-01 -0.901109D-02  0.956792D-02
     43 -0.668461D+01  0.350053D+00 -0.273422D+01 -0.206542D-01 -0.108100D+00
     44  0.258517D+00 -0.740559D+01 -0.142120D+01 -0.753372D-01  0.137276D+00
     45 -0.278151D+01 -0.148398D+01  0.134848D+00  0.423300D-01  0.168538D+00
     46 -0.144057D+00 -0.302588D-01 -0.171516D-01  0.524457D-01 -0.105749D+00
     47  0.124514D+00  0.197012D+00  0.243191D+00 -0.945701D-01  0.323757D-01
     48  0.105840D+00  0.305186D+00  0.375986D+00 -0.103316D+00  0.969152D-01
                6             7             8             9            10
      6  0.439049D+01
      7 -0.258351D-02  0.322384D+01
      8 -0.540582D-01 -0.180300D+01  0.233596D+01
      9  0.111986D+00  0.187646D+00  0.149049D+00  0.475453D+01
     10 -0.617524D-01 -0.107326D+00 -0.119686D+00 -0.158268D+00  0.156793D+02
     11  0.442640D-01 -0.162834D+00  0.164596D+00 -0.877727D-01 -0.142722D+01
     12  0.623936D-01 -0.183730D+00 -0.766236D-01  0.125993D+00 -0.215938D+01
     13 -0.251922D-01 -0.837809D-01 -0.146694D-01  0.149013D-01 -0.250936D+01
     14  0.149904D-01 -0.848416D-02  0.246058D-01  0.204700D-03 -0.429940D+00
     15 -0.113071D-01  0.948399D-02 -0.235460D-02  0.256855D-01 -0.115162D+01
     16  0.852100D-02  0.148704D-01  0.295663D-01  0.504574D-01 -0.603276D+01
     17 -0.116821D-01  0.120143D-02 -0.441905D-01 -0.468616D-02 -0.124204D+00
     18 -0.199608D-01  0.683519D-01  0.195288D-01  0.200370D-01  0.118343D+00
     19  0.133802D-03  0.676092D-02 -0.195078D-01  0.255394D-01  0.477211D-01
     20  0.196494D-02 -0.475601D-01 -0.120726D-01 -0.314162D-01 -0.249696D-01
     21 -0.107396D-02  0.294253D-01 -0.191309D-01 -0.325832D-02  0.284557D-01
     22 -0.294478D-02  0.135385D-01  0.700173D-02  0.793037D-02  0.111297D+00
     23  0.177841D-02 -0.286898D-02 -0.401409D-02 -0.140863D-02  0.537176D-01
     24 -0.322175D-02  0.115903D-01  0.391779D-02  0.268163D-02 -0.393135D-01
     25  0.796290D-02 -0.512710D-02 -0.309048D-02 -0.544263D-02  0.106172D+00
     26 -0.148841D-01  0.226937D-02  0.969163D-03  0.217892D-02 -0.223181D-01
     27  0.107143D-01  0.445319D-02  0.987941D-02 -0.260177D-02 -0.412069D-01
     28  0.716085D-03  0.797494D-01  0.100744D+00  0.532516D-01 -0.530316D+01
     29  0.450291D-02  0.100394D+00  0.301735D-01  0.441821D-01  0.240976D+01
     30 -0.251042D-01  0.616261D-01  0.492848D-01 -0.177519D-01  0.574891D+00
     31  0.117108D-01 -0.494376D-02 -0.490317D-02 -0.427360D-02  0.125522D+00
     32  0.291958D-02 -0.246765D-02  0.134344D-03 -0.367787D-02  0.760381D-01
     33  0.323063D-02  0.173311D-02  0.437535D-02 -0.192765D-02  0.105286D+00
     34  0.376941D-02  0.380437D-02  0.733730D-02 -0.845175D-03 -0.227907D+00
     35  0.398156D-03 -0.275823D-02 -0.101281D-02 -0.160756D-02 -0.145758D+00
     36 -0.353115D-02 -0.131205D-03  0.130935D-02 -0.109272D-02 -0.151053D+00
     37 -0.185850D-01  0.147918D-01  0.465657D-01  0.397659D-02  0.264215D+00
     38 -0.139828D-01  0.536133D-01  0.554548D-01  0.631045D-02  0.455080D+00
     39 -0.909278D-01  0.174017D-01  0.214509D-01 -0.197980D-01 -0.616717D-01
     40  0.456069D-02  0.749701D-02  0.146996D-01 -0.268912D-02 -0.419553D-02
     41  0.397926D-02  0.128135D-01  0.979208D-02 -0.291557D-02  0.783537D-01
     42  0.107289D-01 -0.108293D-01 -0.136050D-01 -0.461965D-02 -0.702841D-01
     43  0.639978D-01  0.255712D+00  0.220772D+00  0.253884D-01 -0.285884D+00
     44  0.803955D-01  0.196015D+00  0.309988D+00  0.584627D-01  0.637848D-01
     45 -0.145380D-01  0.365401D-01  0.134049D-01 -0.220315D+00  0.342869D+00
     46 -0.929377D-01  0.109684D+00  0.317447D-01 -0.120329D+00  0.182840D+00
     47  0.799753D-01 -0.285174D-01 -0.101430D+00  0.241341D-01 -0.894490D-01
     48  0.165426D-01 -0.161890D+00 -0.243873D-01 -0.617907D-03 -0.163272D+00
               11            12            13            14            15
     11  0.134159D+02
     12  0.152369D+01  0.131261D+02
     13 -0.415585D+00 -0.136159D+01  0.507100D+01
     14 -0.273367D+01  0.104828D+01  0.135971D+00  0.522638D+01
     15  0.855803D+00 -0.399043D+00  0.541981D+00 -0.107082D+01 -0.650891D+00
     16 -0.949427D-01  0.910597D-01  0.288490D-01 -0.146434D-01  0.261867D-01
     17 -0.302936D+01 -0.279365D+01 -0.151455D-01  0.166928D-01  0.309775D-01
     18 -0.283436D+01 -0.361997D+01  0.220973D-01  0.417759D-01 -0.430374D-01
     19  0.118061D-01  0.122358D-01  0.106946D-01 -0.166530D-01  0.150859D-01
     20  0.728238D-01  0.407839D-01 -0.194047D-01 -0.146591D-01  0.327854D-01
     21  0.108428D+00  0.432477D-01  0.232930D-01  0.358922D-01 -0.201309D-01
     22  0.718897D-03 -0.615602D-02  0.334016D-02  0.173507D-02  0.200724D-02
     23  0.363902D-01  0.696855D-01  0.167296D-02  0.154152D-02  0.765508D-02
     24  0.426882D-01  0.548240D-02 -0.486645D-02  0.833347D-02 -0.166470D-01
     25  0.775669D-02 -0.692287D-01  0.107057D-02  0.280445D-02 -0.447342D-01
     26  0.438932D-01  0.459322D-01  0.662297D-02 -0.188045D-01 -0.134235D-01
     27  0.709453D-02  0.135319D+00 -0.438269D-01 -0.657944D-02  0.755349D-01
     28  0.242185D+01  0.504765D+00  0.728719D-01 -0.319091D-01 -0.230948D-01
     29 -0.197951D+01  0.103486D+01 -0.205115D-01 -0.113827D-01 -0.816303D-01
     30  0.117676D+01 -0.625902D+01 -0.157760D-01 -0.125509D+00 -0.703469D-01
     31  0.349700D-01  0.401700D-01 -0.212782D-01 -0.788227D-02 -0.100788D-01
     32 -0.354313D-01 -0.712461D-02 -0.114549D-01  0.252013D-01  0.616104D-01
     33  0.100405D-01  0.221280D+00 -0.148242D-01  0.711777D-01  0.684964D-01
     34 -0.906632D-01 -0.138880D+00  0.585921D-03 -0.282316D-01 -0.281114D-01
     35  0.184908D+00 -0.444576D-01 -0.250556D-01 -0.106358D-01 -0.375273D-01
     36 -0.384893D-01  0.114370D+00 -0.297773D-01 -0.398897D-01 -0.200742D-01
     37  0.397377D+00 -0.738044D-01 -0.406990D-01  0.174105D-01  0.106599D-01
     38  0.110778D+00  0.129320D+00  0.843592D-02  0.473553D-01  0.357984D-01
     39  0.165626D+00 -0.235574D+00  0.475927D-02  0.266921D-01 -0.376584D-01
     40  0.732588D-01 -0.280958D-01 -0.220498D-01  0.162716D-02 -0.361139D-02
     41 -0.436411D-01  0.625506D-01 -0.310904D-02  0.545292D-01 -0.484532D-02
     42 -0.170190D-01 -0.719230D-01  0.227284D-02 -0.213169D-01 -0.290770D-01
     43  0.476716D-01  0.355863D+00  0.724663D-01  0.329236D+00 -0.160460D+00
     44 -0.401887D+00  0.728753D-01  0.363017D+00 -0.939193D-02  0.256445D+00
     45  0.548640D-01  0.591844D+00 -0.150976D+00  0.237663D+00  0.289453D+00
     46 -0.263337D-01 -0.292098D-01 -0.258963D+01 -0.657842D-01  0.740251D+00
     47 -0.224356D+00 -0.544399D+00 -0.662451D-01 -0.280160D+01 -0.536621D-01
     48 -0.437603D+00 -0.450510D-02  0.888124D+00 -0.152266D+00  0.634205D+00
               16            17            18            19            20
     16  0.154829D+02
     17  0.169598D-01  0.129014D+02
     18 -0.301459D+00  0.220499D+01  0.132983D+02
     19 -0.399062D+01  0.663740D+00  0.314116D+00  0.396271D+01
     20  0.737340D+00 -0.203039D+01  0.109542D+01 -0.709949D+00  0.163380D+01
     21  0.270838D+00  0.858506D+00 -0.382493D+01 -0.306176D+00 -0.822589D+00
     22 -0.192962D+01 -0.297330D+00  0.101621D+01 -0.222884D-02 -0.397654D-01
     23 -0.458003D+00 -0.414867D+01 -0.189695D+00 -0.665779D-01  0.499527D-01
     24  0.114662D+01 -0.134889D+00 -0.367181D+01 -0.622140D-01 -0.314773D-01
     25 -0.300842D+01 -0.331688D+00 -0.129192D+01  0.813753D-01  0.217069D-01
     26 -0.232394D+00 -0.405384D+01  0.286758D+00  0.455276D-01  0.113953D-01
     27 -0.138888D+01  0.432136D+00 -0.247899D+01  0.397352D-01 -0.936421D-01
     28 -0.875470D-01  0.991915D-01  0.270435D-02 -0.300547D-01  0.598856D-01
     29  0.138897D+00  0.241056D+00  0.166966D-01  0.591609D-01  0.179792D+00
     30 -0.380965D-01 -0.761079D-01 -0.143691D+00 -0.359589D-02 -0.865993D-02
     31 -0.473653D-01 -0.279996D-01 -0.594305D-02 -0.175740D-02 -0.280830D-02
     32 -0.175338D-01  0.787511D-01  0.188964D-01  0.124978D-02  0.341938D-02
     33 -0.124541D-02  0.519811D-01 -0.266158D-01  0.214758D-02  0.959540D-02
     34  0.386685D-01  0.832652D-02  0.571491D-02  0.266976D-02  0.715437D-02
     35 -0.238668D-03 -0.459666D-01  0.120605D-01 -0.209377D-02 -0.382508D-02
     36 -0.119261D-02  0.455525D-02 -0.732401D-02  0.353717D-03  0.105340D-02
     37 -0.162193D+00  0.706663D-01 -0.300255D-01 -0.767145D-02  0.879885D-02
     38  0.688360D-01  0.316240D+00 -0.200502D+00  0.127681D-01  0.373978D-01
     39 -0.246808D-01 -0.185243D+00 -0.976775D-01 -0.986558D-04 -0.209284D-03
     40 -0.125084D-01  0.348949D-02 -0.330586D-02 -0.939712D-03  0.821481D-03
     41  0.350552D-02  0.129343D-01 -0.193504D-01  0.488727D-03  0.140814D-02
     42 -0.758976D-02 -0.430464D-01  0.130498D-01 -0.313736D-02 -0.117567D-01
     43 -0.155133D+00 -0.569748D-01  0.849169D-01 -0.227507D-01 -0.354792D-02
     44 -0.645123D-01 -0.560819D-01 -0.239147D+00  0.109032D-02  0.390519D-01
     45  0.107607D+00 -0.238494D+00  0.256670D+00 -0.267567D-02 -0.630056D-01
     46 -0.185778D+00  0.815729D-02 -0.225428D-01 -0.413310D-01  0.108799D-01
     47  0.154017D-01 -0.167556D+00 -0.138973D+00  0.160195D-01  0.117694D-01
     48 -0.559731D-01 -0.702223D-01  0.279821D+00 -0.291925D-01 -0.103449D+00
               21            22            23            24            25
     21  0.380289D+01
     22 -0.354384D-01  0.187803D+01
     23 -0.333474D-01  0.470776D+00  0.393134D+01
     24  0.325906D-01 -0.122444D+01  0.306200D+00  0.347452D+01
     25  0.113483D-01 -0.775250D-01  0.453136D-01  0.515625D-01  0.293202D+01
     26 -0.871166D-01  0.185890D-01  0.727363D-01 -0.812618D-02  0.172218D+00
     27 -0.898712D-02  0.276496D-01 -0.928827D-02  0.860234D-01  0.142540D+01
     28 -0.288902D-02 -0.176924D-01 -0.431957D-03  0.326201D-02  0.136490D-02
     29  0.127351D-02 -0.327617D-01  0.243379D-01 -0.175453D-01  0.129640D-01
     30 -0.508663D-01  0.219912D-01 -0.113981D-01 -0.191399D-01 -0.215792D-01
     31 -0.118632D-02  0.616772D-02  0.845607D-03  0.187639D-02 -0.130550D-01
     32  0.237612D-02 -0.311214D-02 -0.133838D-01 -0.135006D-02  0.372564D-01
     33  0.314520D-02 -0.854299D-02  0.408762D-02 -0.104341D-02  0.568978D-02
     34  0.398594D-02 -0.283605D-01  0.432060D-01 -0.225513D-01  0.822277D-02
     35  0.102747D-02  0.155304D-01  0.488076D-01 -0.337076D-01 -0.112559D-02
     36  0.469385D-03 -0.568573D-02 -0.247608D-01 -0.166782D-01  0.922996D-04
     37  0.179292D-02 -0.109383D-01 -0.961745D-02  0.634305D-02 -0.422377D-02
     38  0.885927D-02 -0.385783D-01  0.299544D-01 -0.357796D-01  0.285944D-01
     39 -0.926632D-02  0.103776D-01 -0.187474D-01 -0.526613D-02 -0.129936D-01
     40 -0.197642D-03 -0.732847D-03 -0.306143D-03  0.256918D-03 -0.549574D-03
     41 -0.114231D-02 -0.984883D-04 -0.235569D-03 -0.547516D-03  0.245884D-03
     42 -0.217965D-02  0.887321D-02 -0.525985D-02  0.603302D-02 -0.751599D-02
     43  0.131422D-02  0.922471D-03 -0.463290D-02  0.115116D-01 -0.124600D-01
     44 -0.286663D-01 -0.107558D-01 -0.623600D-02 -0.112382D-01  0.388367D-02
     45  0.547654D-03  0.300108D-01 -0.109757D-01  0.161134D-01 -0.161987D-01
     46 -0.158376D-01 -0.532592D-02 -0.283705D-02  0.137525D-01 -0.831601D-02
     47 -0.484647D-01 -0.111109D-01 -0.139424D-01 -0.157588D-01  0.344896D-02
     48  0.649793D-01  0.379111D-01 -0.133287D-01  0.448037D-01 -0.218912D-01
               26            27            28            29            30
     26  0.394636D+01
     27 -0.213262D+00  0.210671D+01
     28 -0.864740D-02 -0.332252D-02  0.194020D+02
     29 -0.237417D-01 -0.561697D-02 -0.886873D+00  0.127266D+02
     30  0.401924D-02  0.101011D-01 -0.145662D+01  0.259165D+01  0.170775D+02
     31  0.247899D-01 -0.569480D-02 -0.422454D+01 -0.210276D+00 -0.863966D+00
     32  0.464007D-01 -0.245339D-01 -0.260860D+00 -0.439236D+01  0.678284D+00
     33 -0.244578D-03 -0.297553D-01 -0.101644D+01  0.631517D+00 -0.183148D+01
     34 -0.160056D-02 -0.805193D-02 -0.153152D+01 -0.784936D+00  0.554216D+00
     35 -0.245903D-02  0.449572D-03 -0.639294D+00 -0.444855D+01 -0.117068D+00
     36  0.105704D-02 -0.203032D-03  0.650945D+00 -0.169331D+00 -0.446278D+01
     37  0.822108D-02 -0.139351D-01 -0.839317D+01 -0.934679D+00  0.798065D+00
     38  0.579415D-02 -0.396317D-01 -0.104741D+01 -0.231663D+01 -0.476840D+01
     39 -0.143835D-01  0.313334D-02  0.854318D+00 -0.450503D+01 -0.475806D+01
     40  0.642523D-03 -0.127785D-02  0.190947D+00 -0.187105D-01  0.142838D-01
     41  0.459427D-03 -0.128771D-02  0.806081D-04  0.207098D+00  0.150024D+00
     42 -0.253820D-02  0.952268D-02 -0.960968D-02 -0.306949D-01 -0.119346D-01
     43  0.122256D-02 -0.316761D-02 -0.790523D-01  0.730562D-01  0.277334D+00
     44 -0.127992D-01 -0.119408D-01  0.793962D-01 -0.212461D+00  0.162803D+00
     45 -0.455288D-02  0.383783D-01  0.296531D+00  0.131202D+00  0.284136D+00
     46 -0.279885D-02 -0.446216D-02 -0.220897D+00  0.793061D-01  0.133126D+00
     47 -0.107874D-01 -0.102942D-01  0.668681D-01 -0.158935D-01  0.295483D+00
     48  0.560097D-03  0.372995D-01  0.693769D-01  0.324491D+00  0.228821D+00
               31            32            33            34            35
     31  0.423010D+01
     32  0.510061D-01  0.433757D+01
     33  0.969057D+00 -0.907922D+00  0.127209D+01
     34 -0.125911D+00  0.123602D+00  0.197544D+00  0.110811D+01
     35  0.101793D+00  0.139217D+00 -0.610441D-01  0.658848D+00  0.434395D+01
     36  0.170664D+00 -0.622962D-01  0.831093D-01 -0.823612D+00  0.418486D-01
     37  0.137614D+00  0.381521D-01 -0.206869D+00  0.443634D+00 -0.522269D-01
     38  0.789516D-01 -0.114932D+00  0.241886D+00 -0.813253D-01 -0.107805D+00
     39 -0.215629D+00  0.287792D+00  0.149504D-01  0.138037D-03  0.177127D+00
     40 -0.396052D-01 -0.212914D-03 -0.150444D-01  0.428887D-02  0.976049D-02
     41  0.229443D-02 -0.392922D-01 -0.367966D-01  0.176892D-01  0.100136D-02
     42 -0.253516D-01 -0.240908D-01  0.192064D+00 -0.123094D-02  0.106720D-01
     43 -0.158233D-01  0.835832D-03  0.148351D-01  0.214642D-01  0.209321D-02
     44  0.445749D-03 -0.357012D-02  0.220527D-01  0.144802D-01 -0.150975D-01
     45 -0.806952D-03  0.182497D-01  0.418843D-01  0.427747D-01 -0.133691D-03
     46 -0.118011D-01  0.521563D-02  0.521688D-02  0.859519D-02  0.988633D-02
     47 -0.547129D-02 -0.809410D-02  0.215807D-01  0.266188D-01 -0.142074D-01
     48 -0.752129D-02  0.214242D-01  0.389354D-01  0.575067D-01  0.185373D-01
               36            37            38            39            40
     36  0.436383D+01
     37  0.115550D-01  0.156570D+02
     38  0.190888D+00 -0.412895D+00  0.794495D+01
     39 -0.700795D-01 -0.109874D+01  0.186945D+01  0.711821D+01
     40 -0.189295D-01 -0.726028D+01 -0.177236D-01  0.443936D-02  0.724827D+01
     41  0.231714D-01 -0.309167D-02 -0.683859D+01  0.106946D+01 -0.168064D+00
     42 -0.125483D-01  0.192745D+00  0.159065D+01 -0.149431D+01 -0.945297D-01
     43  0.191537D-01 -0.164810D+00  0.292541D+00  0.344627D+00 -0.279785D-01
     44  0.742674D-02  0.297730D+00  0.590623D-01  0.477147D+00  0.153909D+00
     45  0.634186D-02  0.291795D+00  0.402555D+00  0.584932D-01  0.126933D+00
     46  0.285327D-01 -0.235314D+00  0.801771D-01  0.487813D-01 -0.436929D-01
     47  0.268070D-01  0.425357D-01  0.270496D+00  0.403046D+00 -0.340901D-02
     48  0.328874D-01  0.214247D-01  0.365432D+00  0.182003D-01 -0.808621D-03
               41            42            43            44            45
     41  0.669126D+01
     42 -0.143029D+01  0.157342D+01
     43  0.144285D+00  0.448627D-01  0.736376D+01
     44 -0.449475D-01  0.248479D-01  0.289604D+01  0.896828D+01
     45  0.120578D+00 -0.148829D+00  0.297668D+01 -0.235206D+00  0.480099D+01
     46 -0.181629D-02 -0.116023D-01 -0.245164D+00 -0.417770D+01 -0.134191D+01
     47  0.342981D-01 -0.111303D-01 -0.418455D+01 -0.134559D+01  0.889290D+00
     48  0.445909D-01 -0.478825D-01 -0.132264D+01  0.784947D+00 -0.613602D+01
               46            47            48
     46  0.337774D+01
     47  0.418791D+01  0.415751D+01
     48  0.686320D+00 -0.116083D+01  0.441654D+01
 ReadGW:  IGet=0 IStart=         114 Next=        7220 LGW=        7106.
 ICntrl=12127.
 Symmetry not used in FoFDir.
 MinBra= 0 MaxBra= 2 Meth= 1.
 IRaf=       0 NMat=   1 IRICut=       1 DoRegI=T DoRafI=F ISym2E= 0 JSym2E=0.
 PrsmSu:  NPrtUS=   8 ThrOK=T
 PRISM was handed    16286550 working-precision words and  2485 shell-pairs
 PRISM was handed    16286550 working-precision words and  2485 shell-pairs
 PRISM was handed    16286550 working-precision words and  2485 shell-pairs
 PRISM was handed    16286550 working-precision words and  2485 shell-pairs
 PRISM was handed    16286550 working-precision words and  2485 shell-pairs
 PRISM was handed    16286550 working-precision words and  2485 shell-pairs
 PRISM was handed    16286550 working-precision words and  2485 shell-pairs
 PRISM was handed    16286550 working-precision words and  2485 shell-pairs
 Pruned (  75, 302) grid will be used in CalDFT.
 CkSvGd:  ISavGI=        -1 IRadAn=       4 IRASav=       4 ISavGd=        -1.
 CalDSu:  NPrtUS=   8 ThrOK=T
 IPart= 0 IRanGd=          0 ScrnBf=T ScrnGd=T RCrit=4.00D+00 DoMicB=T.
 IPart= 4 IRanGd=          0 ScrnBf=T ScrnGd=T RCrit=4.00D+00 DoMicB=T.
 IPart= 1 IRanGd=          0 ScrnBf=T ScrnGd=T RCrit=4.00D+00 DoMicB=T.
 IPart= 3 IRanGd=          0 ScrnBf=T ScrnGd=T RCrit=4.00D+00 DoMicB=T.
 CutRad = 1000.00    CtRdIn =    0.00    XCrit =  15.00   ICut = 0
 IPart= 7 IRanGd=          0 ScrnBf=T ScrnGd=T RCrit=4.00D+00 DoMicB=T.
 CutRad = 1000.00    CtRdIn =    0.00    XCrit =  15.00   ICut = 0
 IPart= 2 IRanGd=          0 ScrnBf=T ScrnGd=T RCrit=4.00D+00 DoMicB=T.
 CutRad = 1000.00    CtRdIn =    0.00    XCrit =  15.00   ICut = 0
 IPart= 6 IRanGd=          0 ScrnBf=T ScrnGd=T RCrit=4.00D+00 DoMicB=T.
 CutRad = 1000.00    CtRdIn =    0.00    XCrit =  15.00   ICut = 0
 CutRad = 1000.00    CtRdIn =    0.00    XCrit =  15.00   ICut = 0
 CutRad = 1000.00    CtRdIn =    0.00    XCrit =  15.00   ICut = 0
 CutRad = 1000.00    CtRdIn =    0.00    XCrit =  15.00   ICut = 0
 IPart= 5 IRanGd=          0 ScrnBf=T ScrnGd=T RCrit=4.00D+00 DoMicB=T.
 CutRad = 1000.00    CtRdIn =    0.00    XCrit =  15.00   ICut = 0
 IPart= 2        14538 of        16492 points in      34 batches and      104 microbatches, Max-NSigAt=      16 Max-NSgAt2=      16
 IPart= 5        14308 of        15870 points in      31 batches and       92 microbatches, Max-NSigAt=      16 Max-NSgAt2=      16
 IPart= 1        12859 of        15108 points in      31 batches and       76 microbatches, Max-NSigAt=      16 Max-NSgAt2=      16
 IPart= 6        13995 of        16044 points in      33 batches and       97 microbatches, Max-NSigAt=      16 Max-NSgAt2=      16
 IPart= 0        13656 of        15688 points in      33 batches and      101 microbatches, Max-NSigAt=      16 Max-NSgAt2=      16
 IPart= 3        13066 of        15360 points in      33 batches and      108 microbatches, Max-NSigAt=      16 Max-NSgAt2=      16
 IPart= 7        14389 of        16188 points in      32 batches and      100 microbatches, Max-NSigAt=      16 Max-NSgAt2=      16
 IPart= 4        14912 of        16894 points in      34 batches and       91 microbatches, Max-NSigAt=      16 Max-NSgAt2=      16
 Polarizability after L703:
                1             2             3
      1  0.554878D+02
      2  0.578112D+00  0.584505D+02
      3  0.437768D+01 -0.225286D+00  0.764144D+02
 Dipole Derivatives after L703:
               1            2            3            4            5
      1 0.401482D+00 0.935080D-01-0.134316D+00 0.217156D-01 0.939307D-01
      2 0.446721D-01 0.293607D+00-0.702599D-01 0.539428D-01-0.128225D-01
      3 0.634620D-01 0.432595D-01 0.423800D-01 0.521302D-01-0.145072D-01
               6            7            8            9           10
      1 0.453489D-01-0.338761D-01-0.142477D+00 0.105844D-01-0.193879D+00
      2-0.101934D-01-0.619307D-01-0.101667D+00-0.153216D-01 0.670343D-01
      3 0.996057D-01 0.396677D-02 0.202269D-02 0.181048D-01-0.458697D+00
              11           12           13           14           15
      1 0.903330D-01 0.186480D+00 0.124579D+00-0.406310D-01-0.261382D+00
      2 0.154374D+00-0.590288D-02-0.108235D-02 0.104940D+00-0.166007D-01
      3 0.212547D+00 0.831978D+00 0.112856D-01-0.657387D-01-0.817771D+00
              16           17           18           19           20
      1 0.107040D+00-0.428629D-01-0.385134D-01 0.572195D-01-0.449999D-01
      2-0.826126D-01-0.368449D-02 0.109712D+00-0.502610D-01-0.791835D-01
      3 0.126585D+00-0.135406D-01-0.974702D-01-0.331066D-01-0.132851D-01
              21           22           23           24           25
      1-0.236079D-01-0.930250D-01-0.921385D-02-0.532218D-01-0.356288D-02
      2-0.802752D-01 0.352423D-01 0.654862D-01 0.156008D-01 0.293076D-01
      3 0.292171D-01-0.954861D-01 0.210866D-01 0.498991D-01 0.816832D-01
              26           27           28           29           30
      1 0.563097D-01 0.656030D-01 0.365119D+00-0.696991D-01-0.106455D+00
      2 0.216876D-01 0.293418D-02-0.104073D+00 0.522633D+00-0.339523D+00
      3 0.807469D-02-0.795100D-01 0.116567D+00-0.191174D+00 0.154263D+00
              31           32           33           34           35
      1 0.171297D-01-0.266496D-01 0.471075D-01-0.163350D+00 0.638917D-01
      2 0.225216D-01-0.605548D-02-0.320600D-02 0.616504D-01-0.171871D-01
      3 0.653291D-01-0.101609D+00-0.114539D+00-0.611975D-01 0.464012D-01
              36           37           38           39           40
      1-0.145015D-01-0.473851D+00-0.601479D-01-0.215075D-01 0.306407D+00
      2 0.370827D-01-0.480651D-01-0.769577D+00 0.324980D+00 0.109595D+00
      3 0.401462D-01-0.348471D-01 0.224606D+00-0.444977D+00-0.214735D-01
              41           42           43           44           45
      1 0.743517D-01 0.494581D-02-0.464505D+00 0.810348D-01 0.820650D-01
      2 0.294366D+00-0.446459D-01-0.126680D-01-0.280918D+00 0.100925D+00
      3-0.966415D-01 0.212150D+00-0.560077D+00 0.415337D+00-0.136344D+00
              46           47           48
      1 0.253569D-01-0.116678D+00 0.211371D+00
      2-0.632739D-01-0.186000D+00-0.530612D-02
      3 0.743876D+00-0.476838D+00 0.212866D+00
 Hessian after L703:
                1             2             3             4             5
      1  0.523910D+00
      2 -0.157647D-01  0.629802D+00
      3 -0.363360D-01  0.455466D-01  0.349117D+00
      4 -0.125905D+00  0.109052D+00  0.413084D-01  0.137085D+00
      5  0.114037D+00 -0.217247D+00 -0.595525D-01 -0.123841D+00  0.225478D+00
      6  0.328768D-01 -0.483599D-01 -0.644904D-01 -0.489635D-01  0.620909D-01
      7 -0.122275D+00 -0.108304D+00 -0.480009D-02  0.112093D-01  0.142984D-01
      8 -0.111885D+00 -0.233600D+00 -0.159073D-01 -0.127326D-01 -0.171466D-01
      9 -0.766583D-02 -0.183829D-01 -0.443613D-01 -0.556821D-02 -0.662630D-02
     10 -0.126208D+00 -0.151950D-02 -0.400938D-01 -0.109798D-01  0.192627D-02
     11 -0.540385D-02 -0.860374D-01  0.106561D-01  0.164554D-01 -0.723817D-03
     12 -0.497504D-01  0.116205D-02 -0.549749D-01  0.408892D-02  0.714847D-04
     13 -0.233940D-01  0.114747D-01  0.223312D-03 -0.157877D-02  0.589346D-03
     14  0.104468D-01 -0.170750D-03  0.227232D-03  0.602716D-03 -0.302731D-03
     15  0.272767D-01 -0.587338D-02 -0.252955D-01  0.329818D-02  0.131506D-02
     16  0.219176D-02  0.159825D-01 -0.170095D-01 -0.150530D-02  0.873064D-03
     17  0.358084D-02 -0.106004D-02  0.545765D-02 -0.563467D-03 -0.200986D-03
     18  0.215062D-02  0.102489D-01 -0.109993D-01  0.103990D-03 -0.285525D-03
     19  0.484985D-03  0.142862D-02  0.260108D-03 -0.848523D-05 -0.999479D-04
     20 -0.142319D-02  0.148897D-03 -0.358197D-03  0.246211D-04  0.246970D-03
     21  0.634567D-03  0.475555D-04  0.617574D-03  0.622363D-04 -0.106432D-03
     22  0.105876D-02 -0.587500D-03  0.596970D-03  0.159295D-04  0.126360D-04
     23 -0.236916D-02 -0.254008D-02  0.195133D-02  0.364950D-03  0.409107D-04
     24  0.969978D-03  0.335036D-02 -0.471364D-03 -0.524063D-03  0.274890D-03
     25  0.397181D-03  0.539664D-04 -0.607590D-04  0.153823D-03 -0.595965D-04
     26 -0.593220D-03  0.664384D-04  0.000000D+00  0.154504D-03 -0.492982D-04
     27  0.127186D-02  0.853772D-03  0.855267D-03 -0.313914D-03  0.179489D-03
     28 -0.173073D-01 -0.241322D-01 -0.116117D-01  0.930909D-03 -0.271519D-03
     29 -0.305618D-02  0.100260D-01 -0.259836D-02  0.155079D-02 -0.304248D-03
     30 -0.430052D-02 -0.144876D-01 -0.431544D-02 -0.908326D-03  0.162578D-03
     31  0.106913D-02 -0.595607D-03  0.388162D-03 -0.326315D-03  0.235937D-03
     32  0.122864D-02 -0.449647D-03  0.238033D-03 -0.554468D-03  0.153222D-03
     33  0.522342D-03 -0.524414D-03  0.167636D-03 -0.319723D-03  0.222198D-03
     34 -0.183861D-03 -0.271609D-02  0.126336D-02  0.407739D-03  0.140929D-03
     35 -0.254362D-02 -0.482706D-02 -0.877263D-03  0.893457D-04  0.135811D-04
     36 -0.130214D-02 -0.193615D-02  0.412163D-03  0.934060D-04  0.190173D-03
     37 -0.152948D-02  0.149232D-02  0.507709D-03  0.170598D-02 -0.699943D-03
     38  0.317234D-02  0.135464D-02  0.728563D-03 -0.708266D-03 -0.128332D-04
     39 -0.573280D-03  0.179687D-02 -0.109804D-02  0.273964D-03 -0.407877D-03
     40 -0.128483D-02 -0.218245D-02  0.213472D-02 -0.620290D-03 -0.141025D-03
     41 -0.278395D-02 -0.150684D-02  0.168552D-02  0.273739D-03  0.193022D-04
     42  0.747735D-03  0.124181D-02  0.117214D-02  0.729631D-03  0.231851D-03
     43 -0.682707D-01 -0.999748D-02  0.289854D-01 -0.855309D-02 -0.378293D-02
     44 -0.776165D-02 -0.934557D-01  0.350849D-01  0.835865D-02  0.657965D-02
     45  0.882434D-02  0.576276D-01 -0.134932D+00  0.480306D-02 -0.660539D-03
     46 -0.427535D-01  0.263155D-01  0.342437D-01 -0.203084D-02 -0.321840D-02
     47  0.211187D-01 -0.503127D-03 -0.222814D-01  0.147312D-02  0.345587D-02
     48  0.246533D-01 -0.323111D-01 -0.114032D-01  0.183597D-02  0.290056D-02
                6             7             8             9            10
      6  0.766086D-01
      7 -0.504639D-03  0.130553D+00
      8 -0.112331D-02  0.124826D+00  0.248713D+00
      9  0.201358D-02  0.426291D-02  0.435705D-02  0.580446D-01
     10 -0.656746D-02 -0.175286D-01  0.259096D-02 -0.100937D-01  0.332930D+00
     11  0.125121D-01 -0.231954D-01  0.310103D-02 -0.150924D-01  0.625123D-01
     12  0.281374D-02 -0.538021D-02  0.157375D-02 -0.233225D-02  0.120829D+00
     13 -0.204523D-02  0.649112D-03 -0.449926D-03  0.107052D-02 -0.278596D-01
     14  0.107979D-02 -0.117793D-02 -0.262413D-03  0.754849D-04 -0.740585D-02
     15  0.576549D-02 -0.160210D-02 -0.140564D-02  0.958795D-03 -0.675404D-01
     16 -0.603992D-03  0.161704D-02  0.123954D-02 -0.355288D-05 -0.731389D-01
     17 -0.327566D-03 -0.134448D-02  0.832182D-03 -0.892455D-03 -0.567042D-02
     18  0.323833D-03  0.506555D-03  0.318976D-03  0.390054D-03 -0.142579D-01
     19 -0.104108D-03  0.446024D-04 -0.185549D-03 -0.777620D-04 -0.229691D-02
     20 -0.258380D-03  0.118756D-02  0.332498D-03  0.596196D-03 -0.778859D-02
     21  0.510449D-04 -0.189452D-03 -0.230844D-03  0.574620D-05  0.843384D-02
     22 -0.144249D-05  0.241960D-03  0.572291D-04  0.237430D-03  0.194051D-02
     23 -0.116362D-04  0.148301D-03  0.238312D-03  0.700210D-04  0.237703D-01
     24 -0.603220D-03  0.443146D-03 -0.152139D-04  0.997514D-04 -0.207312D-01
     25  0.178255D-03 -0.270859D-05 -0.150446D-03  0.270235D-04 -0.284188D-03
     26 -0.365135D-04  0.239974D-03  0.280825D-04 -0.949785D-04 -0.154921D-01
     27 -0.276918D-03 -0.377221D-03 -0.346148D-03 -0.188609D-03  0.115265D-01
     28 -0.904861D-04 -0.237720D-02  0.101438D-02 -0.279457D-02 -0.888591D-01
     29  0.286132D-04  0.361155D-02 -0.118253D-03  0.167776D-02 -0.434779D-01
     30  0.205805D-02 -0.279133D-02  0.116256D-02 -0.567534D-03 -0.397138D-01
     31  0.306794D-03 -0.393959D-03  0.152535D-03  0.189929D-04  0.308562D-02
     32  0.158751D-03 -0.457448D-03 -0.336924D-05  0.532739D-04  0.411881D-02
     33 -0.282983D-03 -0.271658D-03 -0.778555D-04  0.470375D-04  0.151630D-02
     34  0.113636D-03 -0.652533D-03  0.452806D-04 -0.634447D-03 -0.156729D-01
     35  0.133758D-03 -0.100119D-02  0.246828D-03 -0.915863D-03 -0.254045D-01
     36 -0.134672D-03 -0.461750D-03  0.844265D-04 -0.320290D-03 -0.130092D-01
     37 -0.340552D-03  0.110730D-02 -0.777310D-03 -0.111289D-03  0.291357D-02
     38 -0.584470D-05  0.158894D-03  0.102750D-03  0.313300D-03  0.446424D-02
     39 -0.596464D-03  0.745184D-03 -0.567974D-03  0.266218D-03  0.683927D-02
     40  0.464944D-03 -0.107539D-03  0.533150D-03 -0.395238D-03  0.215576D-03
     41 -0.509123D-04  0.101203D-03  0.284373D-03 -0.377771D-03 -0.155231D-02
     42  0.156574D-03 -0.636217D-04  0.101183D-03 -0.692483D-03 -0.119343D-03
     43  0.249231D-01 -0.554318D-02 -0.502458D-02  0.255504D-01 -0.225581D-01
     44 -0.277264D-01 -0.810020D-02 -0.519878D-02  0.357300D-01  0.290978D-01
     45 -0.135856D-01  0.103726D-01  0.118358D-01 -0.161465D-01 -0.280572D-02
     46  0.357926D-03  0.345836D-02  0.746529D-03 -0.382266D-02  0.443011D-01
     47  0.189656D-02 -0.991574D-03  0.245073D-02 -0.490367D-03 -0.201695D-01
     48 -0.982062D-02  0.111714D-03  0.240530D-03  0.278323D-02  0.657878D-01
               11            12            13            14            15
     11  0.458854D+00
     12 -0.800766D-01  0.377625D+00
     13  0.495175D-02  0.185881D-01  0.894807D-01
     14 -0.263677D-01  0.714196D-02 -0.284658D-01  0.635322D-01
     15  0.407348D-01  0.975332D-01  0.273072D-02 -0.288002D-01 -0.137516D+00
     16 -0.991244D-02 -0.127238D-01 -0.111825D-02 -0.417773D-02  0.162055D-01
     17 -0.145320D+00  0.645782D-01  0.147666D-03  0.173962D-02 -0.186471D-02
     18  0.668913D-01 -0.123060D+00  0.743726D-03  0.801755D-02 -0.217625D-01
     19 -0.145144D-02  0.258424D-02  0.121670D-03 -0.651507D-03 -0.948530D-03
     20 -0.220153D-01 -0.929598D-02 -0.399868D-03 -0.182227D-03 -0.551965D-03
     21  0.217195D-01  0.980695D-02  0.169209D-03  0.745584D-03  0.877518D-03
     22  0.844159D-03  0.444122D-04  0.154903D-03  0.683232D-04  0.153627D-04
     23 -0.160004D-02  0.937990D-02  0.296084D-05  0.507294D-05 -0.736333D-03
     24  0.236558D-02 -0.122504D-01 -0.413278D-03  0.161538D-04  0.167655D-02
     25 -0.225854D-02  0.109831D-02  0.696924D-03 -0.592296D-03 -0.246013D-02
     26  0.294126D-02  0.182507D-01 -0.492214D-03 -0.122135D-02  0.286085D-02
     27  0.489709D-03 -0.204320D-01  0.269392D-03  0.230018D-02 -0.143927D-02
     28 -0.323195D-01 -0.261764D-01  0.744273D-03  0.546619D-02  0.101611D-01
     29 -0.143691D+00 -0.310689D-01 -0.334075D-02 -0.633112D-02 -0.772596D-02
     30 -0.204436D-01 -0.816830D-01 -0.493241D-02 -0.146591D-01 -0.270173D-01
     31 -0.670563D-02 -0.141232D-01  0.366901D-03 -0.121863D-02 -0.211875D-02
     32 -0.113021D-01 -0.225420D-01 -0.104552D-02 -0.226282D-02 -0.407357D-02
     33 -0.923253D-02 -0.111801D-01 -0.678221D-03 -0.589110D-03  0.176476D-02
     34  0.342036D-03 -0.371922D-02  0.343316D-03  0.485241D-03  0.252339D-02
     35  0.434985D-02 -0.531604D-02 -0.515937D-03  0.447549D-03  0.103280D-02
     36 -0.338425D-02 -0.310599D-02 -0.714945D-03  0.255443D-03  0.179501D-02
     37 -0.134013D-01  0.741086D-02 -0.350983D-03 -0.271392D-03  0.123238D-02
     38 -0.345760D-01  0.319271D-01  0.479193D-03  0.101871D-02 -0.109230D-03
     39  0.613064D-03 -0.162070D-02 -0.539948D-03  0.124980D-02  0.630758D-02
     40  0.130107D-02  0.342561D-02  0.619694D-03 -0.844280D-04 -0.353000D-02
     41  0.140785D-02  0.329636D-02  0.341661D-03 -0.201311D-02 -0.141068D-02
     42 -0.258215D-04  0.533537D-02  0.234621D-03  0.832217D-04 -0.216609D-02
     43  0.255349D-01  0.789962D-02 -0.168422D-01  0.124873D-01 -0.629227D-01
     44 -0.842180D-02 -0.805311D-02  0.111654D-01 -0.803093D-03  0.455360D-01
     45  0.188882D-01 -0.655661D-01 -0.123670D-01  0.156352D-01  0.878776D-02
     46 -0.172935D-01 -0.540956D-01 -0.220337D-01  0.144891D-01  0.776794D-01
     47  0.940093D-02  0.189711D-01  0.555738D-02 -0.268258D-01 -0.389277D-01
     48 -0.466151D-01 -0.116909D+00 -0.233856D-02  0.722083D-02  0.897300D-01
               16            17            18            19            20
     16  0.546714D+00
     17  0.110492D-01  0.516695D+00
     18  0.258615D-01  0.415124D-01  0.496100D+00
     19 -0.668945D-01 -0.615814D-01 -0.340229D-01  0.682002D-01
     20 -0.620675D-01 -0.240834D+00 -0.960468D-01  0.695803D-01  0.263707D+00
     21 -0.337143D-01 -0.973145D-01 -0.931992D-01  0.344860D-01  0.102562D+00
     22 -0.262555D+00  0.258008D-01 -0.953771D-01 -0.703481D-02  0.823190D-03
     23  0.256065D-01 -0.528888D-01  0.117080D-01 -0.257343D-01  0.485956D-02
     24 -0.944875D-01  0.108827D-01 -0.848200D-01 -0.118474D-01  0.222940D-02
     25 -0.144144D+00  0.339049D-01  0.115311D+00  0.568028D-02 -0.137058D-02
     26  0.304541D-01 -0.539138D-01 -0.352304D-01  0.185065D-01 -0.549631D-02
     27  0.119398D+00 -0.406483D-01 -0.179200D+00  0.876133D-02 -0.298278D-02
     28  0.215278D-02 -0.150085D-02  0.384004D-02  0.123665D-02  0.176233D-02
     29 -0.782908D-02 -0.226974D-01 -0.165187D-02  0.589145D-04 -0.479086D-03
     30  0.113742D-01  0.198192D-01  0.102546D-01  0.637806D-03  0.440477D-02
     31  0.685073D-03  0.686445D-03  0.348622D-05 -0.151902D-03  0.347330D-03
     32  0.126128D-03  0.134494D-02  0.501938D-04 -0.155846D-04  0.496581D-03
     33  0.218812D-03  0.124426D-02  0.328875D-03 -0.433332D-03 -0.131642D-04
     34 -0.362792D-03  0.278904D-04 -0.906308D-03  0.372530D-03 -0.272235D-03
     35 -0.171771D-03  0.981855D-03 -0.502046D-03  0.349107D-03  0.970330D-04
     36  0.460630D-03  0.140852D-04 -0.826610D-03 -0.279208D-04 -0.103870D-03
     37 -0.266688D-03 -0.270889D-02 -0.252352D-02  0.234541D-03 -0.707570D-03
     38 -0.383690D-02 -0.497692D-02 -0.541320D-02 -0.195579D-03 -0.191410D-02
     39 -0.738343D-03  0.537849D-03  0.188152D-02 -0.216289D-03  0.267904D-03
     40 -0.691696D-04 -0.447014D-03 -0.145478D-03  0.394109D-04 -0.509750D-04
     41  0.500007D-03 -0.589253D-03 -0.499614D-03  0.104865D-04 -0.149391D-04
     42 -0.415145D-03 -0.112445D-02 -0.100035D-02 -0.855040D-04 -0.370808D-03
     43  0.341763D-02 -0.463207D-02 -0.640356D-02 -0.249541D-03  0.709301D-03
     44 -0.183394D-02  0.325005D-02  0.322117D-02 -0.121501D-03  0.189153D-03
     45 -0.694147D-02 -0.296953D-02 -0.285740D-02  0.593494D-03 -0.702914D-03
[...]
    Z7        3.34008   0.00000   0.00000  -0.00034  -0.00035   3.33973
    X8       -0.05264   0.00000   0.00000   0.00006   0.00011  -0.05254
    Y8       -0.57193   0.00000   0.00000   0.00043   0.00037  -0.57156
    Z8        5.02891   0.00000   0.00000   0.00031   0.00018   5.02909
    X9       -3.24202   0.00000   0.00000  -0.00030  -0.00019  -3.24221
    Y9        0.07453   0.00000   0.00000  -0.00048  -0.00042   0.07410
    Z9        5.74986   0.00000   0.00000  -0.00041  -0.00038   5.74948
   X10       -0.60424   0.00000   0.00000  -0.00021  -0.00007  -0.60432
   Y10        4.18022   0.00000   0.00000   0.00010   0.00006   4.18028
   Z10        3.11562   0.00000   0.00000   0.00018   0.00008   3.11570
   X11       -1.33046  -0.00001   0.00000  -0.00117  -0.00092  -1.33138
   Y11        4.74741   0.00000   0.00000   0.00051   0.00049   4.74790
   Z11        4.97902   0.00000   0.00000  -0.00031  -0.00037   4.97865
   X12        1.41785   0.00000   0.00000  -0.00039  -0.00026   1.41759
   Y12        3.76100   0.00000   0.00000  -0.00001  -0.00013   3.76086
   Z12        3.38344   0.00001   0.00000   0.00135   0.00115   3.38460
   X13       -0.95978   0.00000   0.00000   0.00085   0.00098  -0.95880
   Y13        6.28781   0.00000   0.00000  -0.00017  -0.00020   6.28762
   Z13        1.50994   0.00000   0.00000  -0.00040  -0.00048   1.50946
   X14       -0.95010   0.00000   0.00000   0.00111   0.00114  -0.94896
   Y14        5.71083   0.00000   0.00000  -0.00054  -0.00057   5.71026
   Z14       -0.21948   0.00000   0.00000  -0.00027  -0.00035  -0.21983
   X15       -3.46549   0.00000   0.00000  -0.00047  -0.00063  -3.46612
   Y15        2.75600  -0.00001   0.00000  -0.00002   0.00005   2.75605
   Z15       -1.77408   0.00000   0.00000   0.00008   0.00012  -1.77396
   X16       -1.48576   0.00001   0.00000  -0.00025  -0.00050  -1.48626
   Y16        0.96950   0.00000   0.00000   0.00027   0.00027   0.96977
   Z16       -2.14809   0.00000   0.00000  -0.00009  -0.00015  -2.14824
         Item               Value     Threshold  Converged?
 Maximum Force            0.000008     0.000450     YES
 RMS     Force            0.000003     0.000300     YES
 Maximum Displacement     0.001154     0.001800     YES
 RMS     Displacement     0.000418     0.001200     YES
 Predicted change in Energy=-4.682433D-09
 Optimization completed.
    -- Stationary point found.
 GradGradGradGradGradGradGradGradGradGradGradGradGradGradGradGradGradGrad


 Test job not archived.
 1\1\GINC-NODE36\Freq\UB3LYP\CBSB7\C4H9O3(2)\SHAMEL\18-Jun-2013\0\\# fr
 eq nosymm b3lyp/cbsb7 iop(7/33=1)\\Title Card Required\\0,2\C,-2.30765
 5,1.149488,0.378058\H,-2.918278,2.000233,0.690237\H,-2.899298,0.228172
 ,0.36379\C,-1.027621,0.947195,1.210585\H,-0.46143,0.521904,0.069445\C,
 -1.019307,-0.171726,2.219039\H,-1.324146,-1.11891,1.767494\H,-0.027858
 ,-0.302652,2.661185\H,-1.715602,0.039438,3.042695\C,-0.319752,2.212078
 ,1.648715\H,-0.704048,2.512221,2.634782\H,0.750292,1.990235,1.790441\O
 ,-0.507894,3.327367,0.799025\H,-0.502773,3.02204,-0.116146\O,-1.833857
 ,1.458412,-0.938802\O,-0.786229,0.513039,-1.136719\\Version=AM64L-G03R
 evD.01\HF=-383.4302887\S2=0.757948\S2-1=0.\S2A=0.750031\RMSD=8.923e-09
 \RMSF=3.018e-06\ZeroPoint=0.1267097\Thermal=0.1346788\Dipole=-0.174673
 8,-0.6547596,1.2084951\DipoleDeriv=0.4014821,0.0446721,0.063462,0.0935
 08,0.2936074,0.0432595,-0.1343162,-0.0702599,0.04238,0.0217156,0.05394
 28,0.0521302,0.0939307,-0.0128225,-0.0145072,0.0453489,-0.0101934,0.09
 96057,-0.0338761,-0.0619307,0.0039668,-0.1424775,-0.1016665,0.0020227,
 0.0105844,-0.0153216,0.0181048,-0.1938795,0.0670343,-0.4586966,0.09033
 3,0.154374,0.2125468,0.1864803,-0.0059029,0.831978,0.1245793,-0.001082
 4,0.0112856,-0.040631,0.1049404,-0.0657387,-0.2613822,-0.0166007,-0.81
 77713,0.1070402,-0.0826126,0.1265851,-0.0428629,-0.0036845,-0.0135406,
 -0.0385134,0.1097117,-0.0974702,0.0572195,-0.050261,-0.0331066,-0.0449
 999,-0.0791835,-0.0132851,-0.0236079,-0.0802752,0.0292171,-0.093025,0.
 0352423,-0.0954861,-0.0092138,0.0654862,0.0210866,-0.0532218,0.0156008
 ,0.0498991,-0.0035629,0.0293076,0.0816832,0.0563097,0.0216876,0.008074
 7,0.065603,0.0029342,-0.07951,0.3651193,-0.1040729,0.1165666,-0.069699
 1,0.5226326,-0.1911742,-0.1064555,-0.3395226,0.1542633,0.0171297,0.022
 5216,0.0653291,-0.0266496,-0.0060555,-0.1016089,0.0471075,-0.003206,-0
 .1145387,-0.1633499,0.0616504,-0.0611975,0.0638917,-0.0171871,0.046401
 2,-0.0145015,0.0370827,0.0401462,-0.4738512,-0.0480651,-0.0348471,-0.0
 601479,-0.7695774,0.2246064,-0.0215075,0.3249801,-0.4449767,0.3064068,
 0.1095953,-0.0214735,0.0743517,0.2943663,-0.0966415,0.0049458,-0.04464
 59,0.2121502,-0.4645047,-0.012668,-0.560077,0.0810348,-0.2809179,0.415
 3365,0.082065,0.1009249,-0.1363439,0.0253569,-0.0632739,0.7438759,-0.1
 166777,-0.1859995,-0.4768383,0.2113709,-0.0053061,0.2128663\Polar=55.4
 87848,0.5781121,58.4504944,4.3776784,-0.2252863,76.4143851\PG=C01 [X(C
 4H9O3)]\NImag=1\\0.52391004,-0.01576470,0.62980167,-0.03633599,0.04554
 657,0.34911657,-0.12590523,0.10905174,0.04130837,0.13708453,0.11403745
 ,-0.21724659,-0.05955249,-0.12384069,0.22547757,0.03287676,-0.04835994
 ,-0.06449038,-0.04896350,0.06209088,0.07660856,-0.12227468,-0.10830385
 ,-0.00480009,0.01120926,0.01429843,-0.00050464,0.13055281,-0.11188526,
 -0.23360042,-0.01590728,-0.01273265,-0.01714658,-0.00112331,0.12482612
 ,0.24871302,-0.00766583,-0.01838292,-0.04436132,-0.00556821,-0.0066263
 0,0.00201358,0.00426291,0.00435705,0.05804461,-0.12620823,-0.00151950,
 -0.04009377,-0.01097984,0.00192627,-0.00656746,-0.01752864,0.00259096,
 -0.01009374,0.33293008,-0.00540385,-0.08603742,0.01065610,0.01645536,-
 0.00072382,0.01251213,-0.02319537,0.00310103,-0.01509238,0.06251234,0.
 45885392,-0.04975039,0.00116205,-0.05497486,0.00408892,0.00007148,0.00
 281374,-0.00538021,0.00157375,-0.00233225,0.12082881,-0.08007656,0.377
 62483,-0.02339396,0.01147470,0.00022331,-0.00157877,0.00058935,-0.0020
 4523,0.00064911,-0.00044993,0.00107052,-0.02785965,0.00495175,0.018588
 05,0.08948072,0.01044680,-0.00017075,0.00022723,0.00060272,-0.00030273
 ,0.00107979,-0.00117793,-0.00026241,0.00007548,-0.00740585,-0.02636771
 ,0.00714196,-0.02846584,0.06353222,0.02727669,-0.00587338,-0.02529554,
 0.00329818,0.00131506,0.00576549,-0.00160210,-0.00140564,0.00095880,-0
 .06754041,0.04073476,0.09753316,0.00273072,-0.02880023,-0.13751596,0.0
 0219176,0.01598247,-0.01700947,-0.00150530,0.00087306,-0.00060399,0.00
 161704,0.00123954,-0.00000355,-0.07313889,-0.00991244,-0.01272380,-0.0
 0111825,-0.00417773,0.01620546,0.54671380,0.00358084,-0.00106004,0.005
 45765,-0.00056347,-0.00020099,-0.00032757,-0.00134448,0.00083218,-0.00
 089246,-0.00567042,-0.14532006,0.06457822,0.00014767,0.00173962,-0.001
 86471,0.01104918,0.51669502,0.00215062,0.01024885,-0.01099934,0.000103
 99,-0.00028552,0.00032383,0.00050656,0.00031898,0.00039005,-0.01425793
 ,0.06689130,-0.12305967,0.00074373,0.00801755,-0.02176247,0.02586148,0
 .04151243,0.49610048,0.00048499,0.00142862,0.00026011,-0.00000849,-0.0
 0009995,-0.00010411,0.00004460,-0.00018555,-0.00007776,-0.00229691,-0.
 00145144,0.00258424,0.00012167,-0.00065151,-0.00094853,-0.06689453,-0.
 06158142,-0.03402285,0.06820023,-0.00142319,0.00014890,-0.00035820,0.0
 0002462,0.00024697,-0.00025838,0.00118756,0.00033250,0.00059620,-0.007
 78859,-0.02201531,-0.00929598,-0.00039987,-0.00018223,-0.00055197,-0.0
 6206749,-0.24083437,-0.09604682,0.06958034,0.26370733,0.00063457,0.000
 04756,0.00061757,0.00006224,-0.00010643,0.00005104,-0.00018945,-0.0002
 3084,0.00000575,0.00843384,0.02171948,0.00980695,0.00016921,0.00074558
 ,0.00087752,-0.03371435,-0.09731454,-0.09319919,0.03448598,0.10256172,
 0.10113130,0.00105876,-0.00058750,0.00059697,0.00001593,0.00001264,-0.
 00000144,0.00024196,0.00005723,0.00023743,0.00194051,0.00084416,0.0000
 4441,0.00015490,0.00006832,0.00001536,-0.26255517,0.02580079,-0.095377
 11,-0.00703481,0.00082319,-0.00198517,0.28477663,-0.00236916,-0.002540
 08,0.00195133,0.00036495,0.00004091,-0.00001164,0.00014830,0.00023831,
 0.00007002,0.02377026,-0.00160004,0.00937990,0.00000296,0.00000507,-0.
 00073633,0.02560647,-0.05288877,0.01170804,-0.02573432,0.00485956,-0.0
 0991050,-0.02897030,0.05297277,0.00096998,0.00335036,-0.00047136,-0.00
 052406,0.00027489,-0.00060322,0.00044315,-0.00001521,0.00009975,-0.020
 73119,0.00236558,-0.01225041,-0.00041328,0.00001615,0.00167655,-0.0944
 8746,0.01088274,-0.08481997,-0.01184745,0.00222940,-0.00588874,0.10434
 604,-0.01608289,0.09359646,0.00039718,0.00005397,-0.00006076,0.0001538
 2,-0.00005960,0.00017826,-0.00000271,-0.00015045,0.00002702,-0.0002841
 9,-0.00225854,0.00109831,0.00069692,-0.00059230,-0.00246013,-0.1441439
 7,0.03390488,0.11531078,0.00568028,-0.00137058,-0.00741114,-0.01894895
 ,0.00634572,0.02239149,0.15596353,-0.00059322,0.00006644,-0.00000089,0
 .00015450,-0.00004930,-0.00003651,0.00023997,0.00002808,-0.00009498,-0
 .01549213,0.00294126,0.01825070,-0.00049221,-0.00122135,0.00286085,0.0
 3045411,-0.05391376,-0.03523045,0.01850648,-0.00549631,-0.02041653,0.0
 0184450,-0.00133111,-0.00270466,-0.03565989,0.05832406,0.00127186,0.00
 085377,0.00085527,-0.00031391,0.00017949,-0.00027692,-0.00037722,-0.00
 034615,-0.00018861,0.01152652,0.00048971,-0.02043203,0.00026939,0.0023
 0018,-0.00143927,0.11939769,-0.04064833,-0.17920037,0.00876133,-0.0029
 8278,-0.01040819,-0.00792261,0.00240982,0.01018451,-0.13103958,0.03891
 204,0.19923820,-0.01730733,-0.02413216,-0.01161173,0.00093091,-0.00027
 152,-0.00009049,-0.00237720,0.00101438,-0.00279457,-0.08885908,-0.0323
 1955,-0.02617639,0.00074427,0.00546619,0.01016105,0.00215278,-0.001500
 85,0.00384004,0.00123665,0.00176233,-0.00110353,-0.00012731,0.00096581
 ,-0.00079962,0.00010292,-0.00005594,-0.00059909,0.52167958,-0.00305618
 ,0.01002599,-0.00259836,0.00155079,-0.00030425,0.00002861,0.00361155,-
 0.00011825,0.00167776,-0.04347788,-0.14369065,-0.03106887,-0.00334075,
 -0.00633112,-0.00772596,-0.00782908,-0.02269740,-0.00165187,0.00005891
 ,-0.00047909,0.00159104,-0.00079641,0.00009321,-0.00078015,0.00051743,
 0.00112268,-0.00103792,-0.03493724,0.45132616,-0.00430052,-0.01448764,
 -0.00431544,-0.00090833,0.00016258,0.00205805,-0.00279133,0.00116256,-
 0.00056753,-0.03971378,-0.02044364,-0.08168303,-0.00493241,-0.01465911
 ,-0.02701726,0.01137419,0.01981918,0.01025463,0.00063781,0.00440477,-0
 .00368709,0.00010690,-0.00023376,0.00039764,0.00057072,0.00063392,-0.0
 0097426,-0.00825730,0.01418614,0.53594864,0.00106913,-0.00059561,0.000
 38816,-0.00032631,0.00023594,0.00030679,-0.00039396,0.00015253,0.00001
 899,0.00308562,-0.00670563,-0.01412317,0.00036690,-0.00121863,-0.00211
 875,0.00068507,0.00068644,0.00000349,-0.00015190,0.00034733,-0.0002027
 1,-0.00012622,0.00006669,0.00018949,-0.00001355,-0.00004738,0.00009186
 ,-0.07850112,0.02570283,0.07762421,0.08180215,0.00122864,-0.00044965,0
 .00023803,-0.00055447,0.00015322,0.00015875,-0.00045745,-0.00000337,0.
 00005327,0.00411881,-0.01130207,-0.02254205,-0.00104552,-0.00226282,-0
 .00407357,0.00012613,0.00134494,0.00005019,-0.00001558,0.00049658,0.00
 012878,0.00025295,-0.00027334,-0.00000332,-0.00051712,-0.00050833,0.00
 044351,0.03111402,-0.06664325,-0.07477931,-0.02904041,0.07964756,0.000
 52234,-0.00052441,0.00016764,-0.00031972,0.00022220,-0.00028298,-0.000
 27166,-0.00007786,0.00004704,0.00151630,-0.00923253,-0.01118015,-0.000
 67822,-0.00058911,0.00176476,0.00021881,0.00124426,0.00032887,-0.00043
 333,-0.00001316,0.00021983,-0.00004563,-0.00011054,0.00003918,-0.00028
 605,-0.00040294,0.00069711,0.07904273,-0.06022487,-0.22781826,-0.08383
 502,0.06157411,0.26416103,-0.00018386,-0.00271609,0.00126336,0.0004077
 4,0.00014093,0.00011364,-0.00065253,0.00004528,-0.00063445,-0.01567287
 ,0.00034204,-0.00371922,0.00034332,0.00048524,0.00252339,-0.00036279,0
 .00002789,-0.00090631,0.00037253,-0.00027224,0.00013287,0.00047606,-0.
 00062214,0.00074134,0.00024284,0.00019205,0.00000402,-0.27369318,0.036
 52956,-0.01745374,-0.01324688,0.00186600,0.00080143,0.29831856,-0.0025
 4362,-0.00482706,-0.00087726,0.00008935,0.00001358,0.00013376,-0.00100
 119,0.00024683,-0.00091586,-0.02540454,0.00434985,-0.00531604,-0.00051
 594,0.00044755,0.00103280,-0.00017177,0.00098186,-0.00050205,0.0003491
 1,0.00009703,-0.00004353,0.00032407,-0.00026011,0.00031842,0.00004536,
 0.00000458,-0.00012175,0.03513692,-0.05138793,0.00364631,0.01140923,0.
 00066146,-0.00112589,-0.04568985,0.06703754,-0.00130214,-0.00193615,0.
 00041216,0.00009341,0.00019017,-0.00013467,-0.00046175,0.00008443,-0.0
 0032029,-0.01300924,-0.00338425,-0.00310599,-0.00071495,0.00025544,0.0
 0179501,0.00046063,0.00001409,-0.00082661,-0.00002792,-0.00010387,0.00
 004847,0.00012453,0.00024611,0.00033142,0.00008924,0.00023648,0.000245
 14,-0.01633502,0.00246211,-0.04840986,0.02796818,-0.00439753,0.0022993
 0,0.02754144,-0.00964559,0.05568784,-0.00152948,0.00149232,0.00050771,
 0.00170598,-0.00069994,-0.00034055,0.00110730,-0.00077731,-0.00011129,
 0.00291357,-0.01340134,0.00741086,-0.00035098,-0.00027139,0.00123238,-
 0.00026669,-0.00270889,-0.00252352,0.00023454,-0.00070757,0.00071314,0
 .00039817,-0.00043696,0.00056590,0.00006094,0.00054935,-0.00007222,-0.
 06237889,0.02795871,-0.01125992,0.00545858,-0.00644724,0.00206496,0.00
 379863,0.02649925,-0.02276382,0.05325317,0.00317234,0.00135464,0.00072
 856,-0.00070827,-0.00001283,-0.00000584,0.00015889,0.00010275,0.000313
 30,0.00446424,-0.03457595,0.03192711,0.00047919,0.00101871,-0.00010923
 ,-0.00383690,-0.00497692,-0.00541320,-0.00019558,-0.00191410,0.0020162
 4,0.00015807,0.00055537,-0.00032870,-0.00040534,-0.00030872,0.00017800
 ,0.01796109,-0.17341227,0.03844054,-0.00202730,0.00270246,0.00486823,0
 .00927357,-0.01688395,0.01516096,-0.03440860,0.32726728,-0.00057328,0.
 00179687,-0.00109804,0.00027396,-0.00040788,-0.00059646,0.00074518,-0.
 00056797,0.00026622,0.00683927,0.00061306,-0.00162070,-0.00053995,0.00
 124980,0.00630758,-0.00073834,0.00053785,0.00188152,-0.00021629,0.0002
 6790,-0.00008606,0.00011200,-0.00062624,0.00004656,-0.00019593,-0.0006
 2004,0.00066615,-0.01690260,0.08793097,-0.14326502,-0.00634756,0.03621
 616,-0.02927832,-0.00858662,0.01578959,-0.00743636,0.02708945,0.039740
 70,0.63111430,-0.00128483,-0.00218245,0.00213472,-0.00062029,-0.000141
 03,0.00046494,-0.00010754,0.00053315,-0.00039524,0.00021558,0.00130107
 ,0.00342561,0.00061969,-0.00008443,-0.00353000,-0.00006917,-0.00044701
 ,-0.00014548,0.00003941,-0.00005098,0.00002360,-0.00014041,0.00013184,
 -0.00018477,0.00003557,0.00010437,-0.00018469,-0.00327724,-0.00092235,
 -0.00774915,-0.00002571,-0.00172884,0.00221069,-0.00002608,0.00081377,
 -0.00171460,-0.00240634,0.00880484,0.00454865,0.00511937,-0.00278395,-
 0.00150684,0.00168552,0.00027374,0.00001930,-0.00005091,0.00010120,0.0
 0028437,-0.00037777,-0.00155231,0.00140785,0.00329636,0.00034166,-0.00
 201311,-0.00141068,0.00050001,-0.00058925,-0.00049961,0.00001049,-0.00
 001494,-0.00002601,-0.00015421,0.00017920,-0.00007244,0.00008871,0.000
 31886,-0.00037493,-0.00035975,0.00628537,0.03898413,0.00069818,-0.0043
 0943,0.00431557,0.00059675,-0.00085185,0.00081354,0.00757437,-0.099365
 65,-0.17642315,-0.00799162,0.10043314,0.00074774,0.00124181,0.00117214
 ,0.00072963,0.00023185,0.00015657,-0.00006362,0.00010118,-0.00069248,-
 0.00011934,-0.00002582,0.00533537,0.00023462,0.00008322,-0.00216609,-0
 .00041514,-0.00112445,-0.00100035,-0.00008550,-0.00037081,0.00033764,-
 0.00001795,0.00011019,-0.00004645,-0.00009063,0.00005659,-0.00005032,0
 .00117951,-0.00701021,-0.02794435,-0.00185317,0.00359013,-0.00069336,0
 .00062126,-0.00139613,0.00046525,-0.00016970,-0.12382607,-0.45130698,-
 0.00170472,0.12931736,0.47725944,-0.06827074,-0.00999748,0.02898536,-0
 .00855309,-0.00378293,0.02492309,-0.00554318,-0.00502458,0.02555042,-0
 .02255814,0.02553493,0.00789962,-0.01684221,0.01248726,-0.06292267,0.0
 0341763,-0.00463207,-0.00640356,-0.00024954,0.00070930,0.00056506,-0.0
 0021069,0.00021901,-0.00007332,-0.00095016,0.00221776,-0.00256539,0.00
 802551,-0.00022294,-0.01028201,-0.00149750,-0.00280799,-0.00049728,0.0
 0092191,0.00106046,0.00077273,-0.00162703,-0.00420570,0.00143551,-0.00
 019408,-0.00065581,-0.00199540,0.19768280,-0.00776165,-0.09345565,0.03
 508491,0.00835865,0.00657965,-0.02772638,-0.00810020,-0.00519878,0.035
 72995,0.02909784,-0.00842180,-0.00805311,0.01116540,-0.00080309,0.0455
 3596,-0.00183394,0.00325005,0.00322117,-0.00012150,0.00018915,-0.00053
 746,0.00039356,0.00019530,0.00020222,0.00040685,-0.00146601,0.00143085
 ,-0.00689097,-0.00470469,0.01361657,0.00161120,0.00356341,0.00013043,-
 0.00067913,-0.00022099,-0.00085261,-0.00461092,-0.00170760,-0.00943120
 ,0.00404938,0.00234193,0.00079274,-0.09326178,0.20677964,0.00882434,0.
 05762764,-0.13493190,0.00480306,-0.00066054,-0.01358561,0.01037256,0.0
 1183578,-0.01614653,-0.00280572,0.01888819,-0.06556613,-0.01236696,0.0
 1563522,0.00878776,-0.00694147,-0.00296953,-0.00285740,0.00059349,-0.0
 0070291,0.00033277,-0.00011953,0.00128236,-0.00145452,0.00028558,-0.00
 041229,0.00030427,-0.00242498,0.00198060,0.00590478,0.00080452,0.00137
 776,0.00016818,-0.00059408,0.00005070,-0.00025093,-0.00176253,-0.00331
 144,-0.00285866,0.00100629,0.00072245,-0.00142014,-0.03238621,-0.07993
 658,0.29218387,-0.04275351,0.02631552,0.03424375,-0.00203084,-0.003218
 40,0.00035793,0.00345836,0.00074653,-0.00382266,0.04430108,-0.01729349
 ,-0.05409565,-0.02203369,0.01448907,0.07767936,-0.00672332,0.00325093,
 0.00511609,0.00022128,-0.00035417,-0.00061413,0.00008062,0.00051086,-0
 .00058624,0.00100953,-0.00192233,0.00175204,-0.00835128,-0.00134695,0.
 01733465,0.00181571,0.00390806,-0.00001036,-0.00104339,-0.00040060,-0.
 00072071,-0.00037147,0.00131544,-0.00694346,0.00212208,0.00331254,0.00
 300241,-0.08355149,0.06817720,0.03271163,0.11385032,0.02111871,-0.0005
 0313,-0.02228144,0.00147312,0.00345587,0.00189656,-0.00099157,0.002450
 73,-0.00049037,-0.02016950,0.00940093,0.01897107,0.00555738,-0.0268258
 5,-0.03892773,0.00399838,-0.00236211,-0.00233900,0.00010290,0.00085832
 ,-0.00022456,-0.00007105,-0.00024627,0.00034760,-0.00034912,0.00148892
 ,-0.00168549,0.00704724,0.00091550,-0.01045326,-0.00127541,-0.00281739
 ,-0.00005350,0.00048014,0.00059162,0.00085666,0.00039617,0.00015679,0.
 00393356,-0.00218972,-0.00261895,-0.00177158,0.08236256,-0.10692051,-0
 .02140741,-0.09749021,0.12297552,0.02465327,-0.03231105,-0.01140316,0.
 00183597,0.00290056,-0.00982062,0.00011171,0.00024053,0.00278323,0.065
 78784,-0.04661514,-0.11690884,-0.00233856,0.00722083,0.08972997,-0.006
 88067,0.00109517,0.00844596,0.00044079,0.00062488,-0.00015958,-0.00011
 422,0.00055412,-0.00083742,0.00159282,-0.00103130,0.00077932,-0.007128
 03,0.00224097,0.01111834,0.00108468,0.00196506,-0.00063988,-0.00184834
 ,-0.00102747,-0.00079987,-0.00058085,-0.00037917,-0.00273573,0.0017941
 6,0.00010058,0.00059409,0.02699406,-0.00920746,-0.06860980,-0.10540464
 ,0.07362889,0.09846399\\-0.00000269,0.00000008,0.00000239,0.00000058,0
 .00000261,0.00000553,-0.00000332,0.00000311,0.00000453,0.00000023,0.00
 000266,0.00000110,-0.00000326,-0.00000290,-0.00000281,0.00000096,-0.00
 000025,-0.00000106,-0.00000096,-0.00000063,-0.00000132,0.00000271,-0.0
 0000254,-0.00000381,0.00000410,-0.00000092,0.00000070,0.00000446,-0.00
 000279,0.00000002,0.00000638,-0.00000145,0.00000031,0.00000264,-0.0000
 0267,-0.00000544,0.00000090,-0.00000156,-0.00000289,-0.00000112,0.0000
 0101,0.00000150,-0.00000391,0.00000611,0.00000339,-0.00000770,0.000000
 13,-0.00000214\\\@


 NEVER LOSE YOUR IGNORANCE, IT CAN'T BE REPLACED.
   -- ANDY CAPP
 Job cpu time:  0 days  1 hours 10 minutes 14.3 seconds.
 File lengths (MBytes):  RWF=    125 Int=      0 D2E=      0 Chk=      8 Scr=      1
 Normal termination of Gaussian 03 at Tue Jun 18 11:01:41 2013.
