 Entering Gaussian System, Link 0=g03
 Input=TSN07freq.gjf
 Output=TSN07freq.log
 Initial command:
 /opt/g03/l1.exe /scratch/nyee/Gau-1711.inp -scrdir=/scratch/nyee/
 Entering Link 1 = /opt/g03/l1.exe PID=      1713.
  
 Copyright (c) 1988,1990,1992,1993,1995,1998,2003,2004, Gaussian, Inc.
                  All Rights Reserved.
  
 This is the Gaussian(R) 03 program.  It is based on the
 the Gaussian(R) 98 system (copyright 1998, Gaussian, Inc.),
 the Gaussian(R) 94 system (copyright 1995, Gaussian, Inc.),
 the Gaussian 92(TM) system (copyright 1992, Gaussian, Inc.),
 the Gaussian 90(TM) system (copyright 1990, Gaussian, Inc.),
 the Gaussian 88(TM) system (copyright 1988, Gaussian, Inc.),
 the Gaussian 86(TM) system (copyright 1986, Carnegie Mellon
 University), and the Gaussian 82(TM) system (copyright 1983,
 Carnegie Mellon University). Gaussian is a federally registered
 trademark of Gaussian, Inc.
  
 This software contains proprietary and confidential information,
 including trade secrets, belonging to Gaussian, Inc.
  
 This software is provided under written license and may be
 used, copied, transmitted, or stored only in accord with that
 written license.
  
 The following legend is applicable only to US Government
 contracts under FAR:
  
                    RESTRICTED RIGHTS LEGEND
  
 Use, reproduction and disclosure by the US Government is
 subject to restrictions as set forth in subparagraphs (a)
 and (c) of the Commercial Computer Software - Restricted
 Rights clause in FAR 52.227-19.
  
 Gaussian, Inc.
 340 Quinnipiac St., Bldg. 40, Wallingford CT 06492
  
  
 ---------------------------------------------------------------
 Warning -- This program may not be used in any manner that
 competes with the business of Gaussian, Inc. or will provide
 assistance to any competitor of Gaussian, Inc.  The licensee
 of this program is prohibited from giving any competitor of
 Gaussian, Inc. access to this program.  By using this program,
 the user acknowledges that Gaussian, Inc. is engaged in the
 business of creating and licensing software in the field of
 computational chemistry and represents and warrants to the
 licensee that it is not a competitor of Gaussian, Inc. and that
 it will not use this program in any manner prohibited above.
 ---------------------------------------------------------------
  

 Cite this work as:
 Gaussian 03, Revision D.01,
 M. J. Frisch, G. W. Trucks, H. B. Schlegel, G. E. Scuseria, 
 M. A. Robb, J. R. Cheeseman, J. A. Montgomery, Jr., T. Vreven, 
 K. N. Kudin, J. C. Burant, J. M. Millam, S. S. Iyengar, J. Tomasi, 
 V. Barone, B. Mennucci, M. Cossi, G. Scalmani, N. Rega, 
 G. A. Petersson, H. Nakatsuji, M. Hada, M. Ehara, K. Toyota, 
 R. Fukuda, J. Hasegawa, M. Ishida, T. Nakajima, Y. Honda, O. Kitao, 
 H. Nakai, M. Klene, X. Li, J. E. Knox, H. P. Hratchian, J. B. Cross, 
 V. Bakken, C. Adamo, J. Jaramillo, R. Gomperts, R. E. Stratmann, 
 O. Yazyev, A. J. Austin, R. Cammi, C. Pomelli, J. W. Ochterski, 
 P. Y. Ayala, K. Morokuma, G. A. Voth, P. Salvador, J. J. Dannenberg, 
 V. G. Zakrzewski, S. Dapprich, A. D. Daniels, M. C. Strain, 
 O. Farkas, D. K. Malick, A. D. Rabuck, K. Raghavachari, 
 J. B. Foresman, J. V. Ortiz, Q. Cui, A. G. Baboul, S. Clifford, 
 J. Cioslowski, B. B. Stefanov, G. Liu, A. Liashenko, P. Piskorz, 
 I. Komaromi, R. L. Martin, D. J. Fox, T. Keith, M. A. Al-Laham, 
 C. Y. Peng, A. Nanayakkara, M. Challacombe, P. M. W. Gill, 
 B. Johnson, W. Chen, M. W. Wong, C. Gonzalez, and J. A. Pople, 
 Gaussian, Inc., Wallingford CT, 2004.
 
 ******************************************
 Gaussian 03:  AM64L-G03RevD.01 13-Oct-2005
                25-Jul-2014 
 ******************************************
 %chk=g-Q1_freq.chk
 %mem=1000mb
 %nproc=8
 Will use up to    8 processors via shared memory.
 -------------------------------------
 # freq nosymm b3lyp/cbsb7 iop(7/33=1)
 -------------------------------------
 1/10=4,30=1,38=1/1,3;
 2/15=1,17=6,18=5,40=1/2;
 3/5=4,6=6,7=700,11=2,16=1,25=1,30=1,74=-5/1,2,3;
 4//1;
 5/5=2,38=5/2;
 8/6=4,10=90,11=11/1;
 11/6=1,8=1,9=11,15=111,16=1,31=1/1,2,10;
 10/6=1,31=1/2;
 6/7=2,8=2,9=2,10=2,18=1,28=1/1;
 7/8=1,10=1,25=1,30=1,33=1/1,2,3,16;
 1/10=4,30=1/3;
 99//99;
 -------------------
 Title Card Required
 -------------------
 Symbolic Z-matrix:
 Charge =  0 Multiplicity = 2
 C                     0.22229   1.57692   0.50028 
 H                    -0.06435   1.69504  -0.55347 
 H                     1.02905   0.84354   0.56918 
 C                    -0.98098   1.16598   1.37734 
 H                    -0.58892   1.04029   2.39194 
 C                    -1.59627  -0.16189   0.9038 
 H                    -0.84365  -0.95471   0.8883 
 H                    -2.40498  -0.47398   1.56803 
 H                    -2.01404  -0.06901  -0.10135 
 C                    -1.99922   2.29945   1.44745 
 H                    -2.54617   2.38696   2.38498 
 O                    -2.89203   2.43457   0.39677 
 H                    -2.39995   2.45253  -0.43333 
 O                     0.77725   2.79073   0.98638 
 O                    -0.17892   3.81195   0.76997 
 H                    -1.14504   3.33199   1.32618 
 

 GradGradGradGradGradGradGradGradGradGradGradGradGradGradGradGradGradGrad
 Berny optimization.
 Initialization pass.
 Trust Radius=3.00D-01 FncErr=1.00D-07 GrdErr=1.00D-07
 Number of steps in this run=   2 maximum allowed number of steps=   2.
 GradGradGradGradGradGradGradGradGradGradGradGradGradGradGradGradGradGrad

                          Input orientation:                          
 ---------------------------------------------------------------------
 Center     Atomic     Atomic              Coordinates (Angstroms)
 Number     Number      Type              X           Y           Z
 ---------------------------------------------------------------------
    1          6             0        0.222285    1.576922    0.500280
    2          1             0       -0.064354    1.695041   -0.553466
    3          1             0        1.029051    0.843542    0.569184
    4          6             0       -0.980978    1.165976    1.377338
    5          1             0       -0.588916    1.040286    2.391935
    6          6             0       -1.596266   -0.161886    0.903799
    7          1             0       -0.843645   -0.954709    0.888298
    8          1             0       -2.404977   -0.473980    1.568034
    9          1             0       -2.014037   -0.069005   -0.101347
   10          6             0       -1.999220    2.299449    1.447445
   11          1             0       -2.546166    2.386957    2.384982
   12          8             0       -2.892033    2.434565    0.396771
   13          1             0       -2.399945    2.452534   -0.433332
   14          8             0        0.777247    2.790731    0.986379
   15          8             0       -0.178922    3.811951    0.769968
   16          1             0       -1.145036    3.331992    1.326176
 ---------------------------------------------------------------------
                    Distance matrix (angstroms):
                    1          2          3          4          5
     1  C    0.000000
     2  H    1.098406   0.000000
     3  H    1.092458   1.783516   0.000000
     4  C    1.544652   2.201843   2.190272   0.000000
     5  H    2.127060   3.062557   2.445188   1.094951   0.000000
     6  C    2.548217   2.813992   2.831103   1.538192   2.162064
     7  H    2.774152   3.115630   2.615823   2.180671   2.511138
     8  H    3.499829   3.831962   3.811314   2.180274   2.503975
     9  H    2.841156   2.667871   3.246958   2.186069   3.078628
    10  C    2.520764   2.848273   3.472957   1.525284   2.113412
    11  H    3.445661   3.908019   4.296676   2.226197   2.375794
    12  O    3.231910   3.073372   4.235089   2.494586   3.350976
    13  H    2.917948   2.458295   3.918151   2.635759   3.640935
    14  O    1.420425   2.068804   2.007237   2.425703   2.627936
    15  O    2.286712   2.499182   3.211069   2.830791   3.237437
    16  H    2.373171   2.716714   3.389996   2.172823   2.587862
                    6          7          8          9         10
     6  C    0.000000
     7  H    1.093274   0.000000
     8  H    1.092073   1.769435   0.000000
     9  H    1.092464   1.770222   1.761724   0.000000
    10  C    2.552664   3.498220   2.805546   2.829938   0.000000
    11  H    3.097227   4.037991   2.978640   3.535073   1.088937
    12  O    2.945785   3.990573   3.173124   2.699419   1.385383
    13  H    3.044505   3.972163   3.545416   2.572411   1.929077
    14  O    3.789239   4.082307   4.595999   4.141558   2.857045
    15  O    4.221156   4.814240   4.895042   4.380486   2.461732
    16  H    3.548125   4.319535   4.016388   3.789428   1.345541
                   11         12         13         14         15
    11  H    0.000000
    12  O    2.018632   0.000000
    13  H    2.822866   0.965166   0.000000
    14  O    3.628250   3.733377   3.496356   0.000000
    15  O    3.200425   3.065524   2.868604   1.415621   0.000000
    16  H    1.994324   2.172825   2.333262   2.025734   1.213715
                   16
    16  H    0.000000
 Symmetry turned off by external request.
 Stoichiometry    C4H9O3(2)
 Framework group  C1[X(C4H9O3)]
 Deg. of freedom    42
 Full point group                 C1
 Rotational constants (GHZ):      3.4986027      2.2684994      1.5671908
 Standard basis: CBSB7 (5D, 7F)
 Integral buffers will be    131072 words long.
 Raffenetti 2 integral format.
 Two-electron integral symmetry is turned off.
   180 basis functions,   296 primitive gaussians,   187 cartesian basis functions
    29 alpha electrons       28 beta electrons
       nuclear repulsion energy       335.4852855537 Hartrees.
 NAtoms=   16 NActive=   16 NUniq=   16 SFac= 7.50D-01 NAtFMM=   80 NAOKFM=F Big=F
 One-electron integrals computed using PRISM.
 NBasis=   180 RedAO= T  NBF=   180
 NBsUse=   180 1.00D-06 NBFU=   180
 Harris functional with IExCor=  402 diagonalized for initial guess.
 ExpMin= 1.03D-01 ExpMax= 8.59D+03 ExpMxC= 1.30D+03 IAcc=1 IRadAn=         1 AccDes= 1.00D-06
 HarFok:  IExCor= 402 AccDes= 1.00D-06 IRadAn=         1 IDoV=1
 ScaDFX=  1.000000  1.000000  1.000000  1.000000
 <S**2> of initial guess= 0.7500
 Requested convergence on RMS density matrix=1.00D-08 within 128 cycles.
 Requested convergence on MAX density matrix=1.00D-06.
 Requested convergence on             energy=1.00D-06.
 No special actions if energy rises.
 Integral accuracy reduced to 1.0D-05 until final iterations.
 Initial convergence to 1.0D-05 achieved.  Increase integral accuracy.
 SCF Done:  E(UB+HF-LYP) =  -383.448870782     A.U. after   18 cycles
             Convg  =    0.7981D-08             -V/T =  2.0033
             S**2   =   0.7560
 Annihilation of the first spin contaminant:
 S**2 before annihilation     0.7560,   after     0.7500
 Range of M.O.s used for correlation:     1   180
 NBasis=   180 NAE=    29 NBE=    28 NFC=     0 NFV=     0
 NROrb=    180 NOA=    29 NOB=    28 NVA=   151 NVB=   152
 Symmetrizing basis deriv contribution to polar:
 IMax=3 JMax=2 DiffMx= 0.00D+00
 G2DrvN: will do   17 centers at a time, making    1 passes doing MaxLOS=2.
 FoFDir/FoFCou used for L=0 through L=2.
 DoAtom=TTTTTTTTTTTTTTTT
          Differentiating once with respect to electric field.
                with respect to dipole field.
          Differentiating once with respect to nuclear coordinates.
 Symmetry not used in FoFDir.
 MinBra= 0 MaxBra= 2 Meth= 1.
 IRaf=       0 NMat=  51 IRICut=      51 DoRegI=T DoRafI=T ISym2E= 0 JSym2E=0.
          There are  51 degrees of freedom in the 1st order CPHF.
    48 vectors were produced by pass  0.
 AX will form  48 AO Fock derivatives at one time.
    48 vectors were produced by pass  1.
    48 vectors were produced by pass  2.
    48 vectors were produced by pass  3.
    48 vectors were produced by pass  4.
    48 vectors were produced by pass  5.
    34 vectors were produced by pass  6.
     3 vectors were produced by pass  7.
     3 vectors were produced by pass  8.
 Inv2:  IOpt= 1 Iter= 1 AM= 3.03D-15 Conv= 1.00D-12.
 Inverted reduced A of dimension  328 with in-core refinement.
 Isotropic polarizability for W=    0.000000       63.12 Bohr**3.
 End of Minotr Frequency-dependent properties file   721 does not exist.

 **********************************************************************

            Population analysis using the SCF density.

 **********************************************************************

 Alpha  occ. eigenvalues --  -19.18435 -19.16681 -19.15762 -10.24334 -10.23629
 Alpha  occ. eigenvalues --  -10.20165 -10.18319  -1.13061  -1.06773  -0.89058
 Alpha  occ. eigenvalues --   -0.81777  -0.70839  -0.68059  -0.60582  -0.55068
 Alpha  occ. eigenvalues --   -0.52667  -0.49469  -0.47173  -0.46391  -0.43978
 Alpha  occ. eigenvalues --   -0.41885  -0.40681  -0.38759  -0.38010  -0.36873
 Alpha  occ. eigenvalues --   -0.34849  -0.31171  -0.26613  -0.21835
 Alpha virt. eigenvalues --    0.01579   0.03693   0.04367   0.07149   0.07412
 Alpha virt. eigenvalues --    0.09825   0.10896   0.12208   0.12480   0.15715
 Alpha virt. eigenvalues --    0.16827   0.18231   0.18558   0.22350   0.23573
 Alpha virt. eigenvalues --    0.29445   0.31605   0.32850   0.35851   0.36734
 Alpha virt. eigenvalues --    0.40204   0.42079   0.45671   0.46425   0.48898
 Alpha virt. eigenvalues --    0.49786   0.51741   0.53368   0.55331   0.55455
 Alpha virt. eigenvalues --    0.56604   0.57142   0.59399   0.60433   0.63195
 Alpha virt. eigenvalues --    0.64245   0.67945   0.75099   0.77672   0.79929
 Alpha virt. eigenvalues --    0.83083   0.86636   0.88479   0.92619   0.93394
 Alpha virt. eigenvalues --    0.95119   0.95864   1.02004   1.03738   1.04640
 Alpha virt. eigenvalues --    1.14668   1.18658   1.21656   1.24151   1.29485
 Alpha virt. eigenvalues --    1.33196   1.37809   1.39041   1.41457   1.42749
 Alpha virt. eigenvalues --    1.44771   1.46170   1.47838   1.50752   1.51774
 Alpha virt. eigenvalues --    1.53253   1.54619   1.57611   1.59627   1.61750
 Alpha virt. eigenvalues --    1.63557   1.65960   1.67768   1.69814   1.72556
 Alpha virt. eigenvalues --    1.72958   1.76210   1.81758   1.85190   1.88555
 Alpha virt. eigenvalues --    1.89826   1.97668   1.99075   2.04560   2.05720
 Alpha virt. eigenvalues --    2.05877   2.13606   2.16374   2.20190   2.22226
 Alpha virt. eigenvalues --    2.25762   2.30963   2.37642   2.38662   2.42168
 Alpha virt. eigenvalues --    2.44375   2.45832   2.48454   2.50161   2.53714
 Alpha virt. eigenvalues --    2.55602   2.57758   2.58178   2.59146   2.65235
 Alpha virt. eigenvalues --    2.69425   2.71861   2.74497   2.78866   2.81231
 Alpha virt. eigenvalues --    2.83361   2.87538   2.89892   2.94357   2.99911
 Alpha virt. eigenvalues --    3.04291   3.08572   3.15359   3.19927   3.22332
 Alpha virt. eigenvalues --    3.30844   3.34525   3.38263   3.46937   3.63873
 Alpha virt. eigenvalues --    3.72868   3.76596   3.78040   3.80896   3.85128
 Alpha virt. eigenvalues --    3.89093   3.91603   4.02022   4.19432   4.24549
 Alpha virt. eigenvalues --    4.70891   4.82553   4.86927   4.88277   5.10981
 Alpha virt. eigenvalues --    5.23364   5.28468   5.61843   5.74096  23.69281
 Alpha virt. eigenvalues --   23.78394  23.80102  23.90667  49.77766  49.82165
 Alpha virt. eigenvalues --   49.88005
  Beta  occ. eigenvalues --  -19.18225 -19.15486 -19.15429 -10.23604 -10.23535
  Beta  occ. eigenvalues --  -10.20146 -10.18245  -1.11878  -1.05995  -0.87308
  Beta  occ. eigenvalues --   -0.81154  -0.69970  -0.67288  -0.60247  -0.53322
  Beta  occ. eigenvalues --   -0.52353  -0.48644  -0.46274  -0.45941  -0.43062
  Beta  occ. eigenvalues --   -0.41388  -0.39422  -0.37561  -0.37290  -0.35660
  Beta  occ. eigenvalues --   -0.34059  -0.29436  -0.25197
  Beta virt. eigenvalues --   -0.10821   0.01692   0.04014   0.04931   0.07301
  Beta virt. eigenvalues --    0.07596   0.10003   0.11059   0.12341   0.12563
  Beta virt. eigenvalues --    0.16075   0.17339   0.18663   0.19425   0.22691
  Beta virt. eigenvalues --    0.24024   0.29655   0.31800   0.33286   0.36053
  Beta virt. eigenvalues --    0.36900   0.40952   0.42682   0.46314   0.46824
  Beta virt. eigenvalues --    0.49109   0.50060   0.52058   0.54304   0.55527
  Beta virt. eigenvalues --    0.55556   0.56701   0.57645   0.59627   0.60690
  Beta virt. eigenvalues --    0.63503   0.64725   0.68301   0.75784   0.78683
  Beta virt. eigenvalues --    0.80536   0.83637   0.86976   0.88989   0.92963
  Beta virt. eigenvalues --    0.93716   0.95467   0.96458   1.02725   1.04186
  Beta virt. eigenvalues --    1.05018   1.15126   1.18789   1.22106   1.24540
  Beta virt. eigenvalues --    1.30007   1.33619   1.38056   1.39243   1.42004
  Beta virt. eigenvalues --    1.43116   1.45086   1.46514   1.48190   1.51000
  Beta virt. eigenvalues --    1.52014   1.53603   1.55212   1.57954   1.60170
  Beta virt. eigenvalues --    1.61982   1.63786   1.66481   1.68069   1.70094
  Beta virt. eigenvalues --    1.72988   1.73212   1.76630   1.81915   1.85346
  Beta virt. eigenvalues --    1.88768   1.90070   1.98016   1.99269   2.05072
  Beta virt. eigenvalues --    2.06059   2.06522   2.13791   2.17343   2.21634
  Beta virt. eigenvalues --    2.22642   2.25959   2.31241   2.37789   2.38772
  Beta virt. eigenvalues --    2.42412   2.44583   2.45928   2.48602   2.50353
  Beta virt. eigenvalues --    2.54049   2.56059   2.57876   2.58837   2.59521
  Beta virt. eigenvalues --    2.65513   2.69609   2.72226   2.74738   2.79127
  Beta virt. eigenvalues --    2.81688   2.84191   2.87821   2.90345   2.96417
  Beta virt. eigenvalues --    3.00805   3.04864   3.09350   3.16181   3.20570
  Beta virt. eigenvalues --    3.23390   3.31888   3.35151   3.38947   3.48716
  Beta virt. eigenvalues --    3.64601   3.73905   3.76841   3.78178   3.81223
  Beta virt. eigenvalues --    3.86858   3.89603   3.91973   4.02318   4.19927
  Beta virt. eigenvalues --    4.24741   4.71446   4.83456   4.88143   4.89306
  Beta virt. eigenvalues --    5.14774   5.23996   5.28815   5.62228   5.74807
  Beta virt. eigenvalues --   23.70002  23.78495  23.80213  23.90760  49.78700
  Beta virt. eigenvalues --   49.82632  49.88326
          Condensed to atoms (all electrons):
              1          2          3          4          5          6
     1  C    4.880141   0.392088   0.390812   0.297084  -0.037703  -0.068944
     2  H    0.392088   0.629256  -0.028850  -0.076988   0.011787   0.003306
     3  H    0.390812  -0.028850   0.558173  -0.034074  -0.009838  -0.000274
     4  C    0.297084  -0.076988  -0.034074   5.403624   0.367551   0.286388
     5  H   -0.037703   0.011787  -0.009838   0.367551   0.591979  -0.025143
     6  C   -0.068944   0.003306  -0.000274   0.286388  -0.025143   4.920787
     7  H   -0.004880  -0.001252   0.004022  -0.034527  -0.006625   0.404011
     8  H    0.007394  -0.000423  -0.000110  -0.024236  -0.006954   0.394270
     9  H   -0.009546   0.005058  -0.001442  -0.034381   0.009567   0.401064
    10  C   -0.063539  -0.006649   0.008888   0.287204  -0.036276  -0.066566
    11  H    0.008806   0.000023  -0.000141  -0.040920  -0.004764  -0.004614
    12  O    0.000512   0.001781  -0.000246  -0.057600   0.004386   0.004117
    13  H    0.006564   0.006104   0.000133  -0.008751   0.000021  -0.001315
    14  O    0.238787  -0.035277  -0.017069  -0.040775   0.006314   0.003822
    15  O   -0.044031   0.007129   0.006190  -0.025123  -0.000358  -0.000015
    16  H   -0.018746  -0.000627  -0.002155  -0.000014   0.001906   0.004012
              7          8          9         10         11         12
     1  C   -0.004880   0.007394  -0.009546  -0.063539   0.008806   0.000512
     2  H   -0.001252  -0.000423   0.005058  -0.006649   0.000023   0.001781
     3  H    0.004022  -0.000110  -0.001442   0.008888  -0.000141  -0.000246
     4  C   -0.034527  -0.024236  -0.034381   0.287204  -0.040920  -0.057600
     5  H   -0.006625  -0.006954   0.009567  -0.036276  -0.004764   0.004386
     6  C    0.404011   0.394270   0.401064  -0.066566  -0.004614   0.004117
     7  H    0.574590  -0.026402  -0.029883   0.008041  -0.000191   0.000185
     8  H   -0.026402   0.563939  -0.028732  -0.001462   0.002441  -0.000533
     9  H   -0.029883  -0.028732   0.586556  -0.013359  -0.000649   0.014432
    10  C    0.008041  -0.001462  -0.013359   5.142117   0.389037   0.276598
    11  H   -0.000191   0.002441  -0.000649   0.389037   0.544909  -0.030315
    12  O    0.000185  -0.000533   0.014432   0.276598  -0.030315   7.812849
    13  H   -0.000169   0.000164  -0.000207  -0.050309   0.009228   0.315626
    14  O    0.000079  -0.000246   0.000011   0.001327  -0.000025   0.000096
    15  O    0.000030   0.000027  -0.000312  -0.070001   0.002301  -0.001552
    16  H   -0.000255  -0.000040   0.000654   0.225399  -0.013857  -0.010362
             13         14         15         16
     1  C    0.006564   0.238787  -0.044031  -0.018746
     2  H    0.006104  -0.035277   0.007129  -0.000627
     3  H    0.000133  -0.017069   0.006190  -0.002155
     4  C   -0.008751  -0.040775  -0.025123  -0.000014
     5  H    0.000021   0.006314  -0.000358   0.001906
     6  C   -0.001315   0.003822  -0.000015   0.004012
     7  H   -0.000169   0.000079   0.000030  -0.000255
     8  H    0.000164  -0.000246   0.000027  -0.000040
     9  H   -0.000207   0.000011  -0.000312   0.000654
    10  C   -0.050309   0.001327  -0.070001   0.225399
    11  H    0.009228  -0.000025   0.002301  -0.013857
    12  O    0.315626   0.000096  -0.001552  -0.010362
    13  H    0.474487  -0.000729   0.008787  -0.006382
    14  O   -0.000729   8.014403   0.069959  -0.033800
    15  O    0.008787   0.069959   8.152766   0.144109
    16  H   -0.006382  -0.033800   0.144109   0.473219
 Mulliken atomic charges:
              1
     1  C    0.025201
     2  H    0.093533
     3  H    0.125981
     4  C   -0.264462
     5  H    0.134149
     6  C   -0.254907
     7  H    0.113225
     8  H    0.120903
     9  H    0.101168
    10  C   -0.030449
    11  H    0.138731
    12  O   -0.329976
    13  H    0.246748
    14  O   -0.206877
    15  O   -0.249906
    16  H    0.236938
 Sum of Mulliken charges=   0.00000
 Atomic charges with hydrogens summed into heavy atoms:
              1
     1  C    0.244715
     2  H    0.000000
     3  H    0.000000
     4  C   -0.130312
     5  H    0.000000
     6  C    0.080390
     7  H    0.000000
     8  H    0.000000
     9  H    0.000000
    10  C    0.108281
    11  H    0.000000
    12  O   -0.083228
    13  H    0.000000
    14  O   -0.206877
    15  O   -0.012968
    16  H    0.000000
 Sum of Mulliken charges=   0.00000
          Atomic-Atomic Spin Densities.
              1          2          3          4          5          6
     1  C    0.019542  -0.007293   0.000748   0.025904  -0.002874  -0.014640
     2  H   -0.007293   0.007165   0.000295  -0.001316   0.000406   0.002983
     3  H    0.000748   0.000295  -0.003582   0.000755   0.000089  -0.000126
     4  C    0.025904  -0.001316   0.000755   0.012498  -0.005257  -0.033390
     5  H   -0.002874   0.000406   0.000089  -0.005257   0.001514   0.006188
     6  C   -0.014640   0.002983  -0.000126  -0.033390   0.006188   0.094951
     7  H    0.001062  -0.000348  -0.000073   0.002376  -0.000492  -0.002795
     8  H    0.000625  -0.000146   0.000010   0.003802  -0.000606  -0.007933
     9  H   -0.001297   0.001024   0.000011  -0.001921   0.000279   0.004110
    10  C   -0.013869   0.003775  -0.000251  -0.018553   0.002563  -0.016114
    11  H    0.001139  -0.000270   0.000007   0.010258  -0.001358  -0.005189
    12  O    0.000061   0.000011   0.000006  -0.002265   0.000063   0.006275
    13  H    0.000675  -0.001112  -0.000009   0.002085  -0.000091  -0.001298
    14  O   -0.009446  -0.000397   0.000110  -0.002853   0.001064   0.001048
    15  O    0.006531  -0.002550  -0.000064   0.009140  -0.001269  -0.001251
    16  H    0.000850   0.002163   0.000032  -0.005109   0.000710   0.000922
              7          8          9         10         11         12
     1  C    0.001062   0.000625  -0.001297  -0.013869   0.001139   0.000061
     2  H   -0.000348  -0.000146   0.001024   0.003775  -0.000270   0.000011
     3  H   -0.000073   0.000010   0.000011  -0.000251   0.000007   0.000006
     4  C    0.002376   0.003802  -0.001921  -0.018553   0.010258  -0.002265
     5  H   -0.000492  -0.000606   0.000279   0.002563  -0.001358   0.000063
     6  C   -0.002795  -0.007933   0.004110  -0.016114  -0.005189   0.006275
     7  H    0.001171   0.001229  -0.001002   0.000325   0.000096  -0.000130
     8  H    0.001229   0.001778  -0.001097   0.002639   0.000713  -0.000874
     9  H   -0.001002  -0.001097  -0.001004  -0.001572  -0.000376   0.001352
    10  C    0.000325   0.002639  -0.001572   0.575337  -0.017183  -0.071104
    11  H    0.000096   0.000713  -0.000376  -0.017183   0.005665   0.000606
    12  O   -0.000130  -0.000874   0.001352  -0.071104   0.000606   0.164977
    13  H    0.000030   0.000100  -0.000356  -0.004827   0.000361   0.000560
    14  O   -0.000050  -0.000028   0.000074   0.013268  -0.000586  -0.000170
    15  O    0.000025   0.000041  -0.000154  -0.081471   0.002993   0.004801
    16  H    0.000005  -0.000089   0.000001   0.070450  -0.002921  -0.003018
             13         14         15         16
     1  C    0.000675  -0.009446   0.006531   0.000850
     2  H   -0.001112  -0.000397  -0.002550   0.002163
     3  H   -0.000009   0.000110  -0.000064   0.000032
     4  C    0.002085  -0.002853   0.009140  -0.005109
     5  H   -0.000091   0.001064  -0.001269   0.000710
     6  C   -0.001298   0.001048  -0.001251   0.000922
     7  H    0.000030  -0.000050   0.000025   0.000005
     8  H    0.000100  -0.000028   0.000041  -0.000089
     9  H   -0.000356   0.000074  -0.000154   0.000001
    10  C   -0.004827   0.013268  -0.081471   0.070450
    11  H    0.000361  -0.000586   0.002993  -0.002921
    12  O    0.000560  -0.000170   0.004801  -0.003018
    13  H    0.002352  -0.000047   0.000698   0.000188
    14  O   -0.000047   0.095317  -0.041638   0.006486
    15  O    0.000698  -0.041638   0.514039  -0.037089
    16  H    0.000188   0.006486  -0.037089  -0.046905
 Mulliken atomic spin densities:
              1
     1  C    0.007719
     2  H    0.004388
     3  H   -0.002040
     4  C   -0.003844
     5  H    0.000930
     6  C    0.033740
     7  H    0.001429
     8  H    0.000165
     9  H   -0.001926
    10  C    0.443413
    11  H   -0.006046
    12  O    0.101151
    13  H   -0.000689
    14  O    0.062153
    15  O    0.372781
    16  H   -0.013323
 Sum of Mulliken spin densities=   1.00000
 APT atomic charges:
              1
     1  C    0.382481
     2  H   -0.042988
     3  H    0.001036
     4  C   -0.096232
     5  H   -0.034791
     6  C    0.103609
     7  H   -0.022309
     8  H   -0.005684
     9  H   -0.011460
    10  C    0.630507
    11  H   -0.004386
    12  O   -0.628322
    13  H    0.262343
    14  O   -0.395177
    15  O   -0.040413
    16  H   -0.098214
 Sum of APT charges=   0.00000
 APT Atomic charges with hydrogens summed into heavy atoms:
              1
     1  C    0.340529
     2  H    0.000000
     3  H    0.000000
     4  C   -0.131023
     5  H    0.000000
     6  C    0.064156
     7  H    0.000000
     8  H    0.000000
     9  H    0.000000
    10  C    0.626121
    11  H    0.000000
    12  O   -0.365980
    13  H    0.000000
    14  O   -0.395177
    15  O   -0.138626
    16  H    0.000000
 Sum of APT charges=   0.00000
 Electronic spatial extent (au):  <R**2>=  1943.7069
 Charge=     0.0000 electrons
 Dipole moment (field-independent basis, Debye):
    X=    -0.7511    Y=    -3.1821    Z=    -0.3201  Tot=     3.2851
 Quadrupole moment (field-independent basis, Debye-Ang):
   XX=   -47.4148   YY=   -59.1951   ZZ=   -39.8889
   XY=    -2.2115   XZ=    -1.4275   YZ=    -3.6118
 Traceless Quadrupole moment (field-independent basis, Debye-Ang):
   XX=     1.4182   YY=   -10.3622   ZZ=     8.9440
   XY=    -2.2115   XZ=    -1.4275   YZ=    -3.6118
 Octapole moment (field-independent basis, Debye-Ang**2):
  XXX=   149.2929  YYY=  -309.9686  ZZZ=  -110.9903  XYY=    36.6219
  XXY=   -93.6951  XXZ=   -39.9498  XZZ=    31.4146  YZZ=   -76.1123
  YYZ=   -54.0236  XYZ=    -3.2891
 Hexadecapole moment (field-independent basis, Debye-Ang**3):
 XXXX=  -764.2415 YYYY= -1632.9294 ZZZZ=  -309.1057 XXXY=   250.9613
 XXXZ=   123.4519 YYYX=   178.9149 YYYZ=  -272.3402 ZZZX=   100.8669
 ZZZY=  -203.5662 XXYY=  -372.6529 XXZZ=  -143.0093 YYZZ=  -277.1844
 XXYZ=   -77.9771 YYXZ=    30.2445 ZZXY=    39.9485
 N-N= 3.354852855537D+02 E-N=-1.570305626636D+03  KE= 3.821964780196D+02
  Exact polarizability:  71.578   3.918  65.038  -3.337  -0.606  52.751
 Approx polarizability: 111.902   6.548  92.447  -2.707  -2.132  77.553
                          Isotropic Fermi Contact Couplings
        Atom                 a.u.       MegaHertz       Gauss      10(-4) cm-1
     1  C(13)             -0.00110      -1.23755      -0.44159      -0.41280
     2  H(1)               0.00122       5.45505       1.94650       1.81961
     3  H(1)              -0.00075      -3.34254      -1.19270      -1.11495
     4  C(13)              0.01586      17.82720       6.36119       5.94651
     5  H(1)              -0.00022      -0.98378      -0.35104      -0.32815
     6  C(13)              0.02209      24.83327       8.86113       8.28349
     7  H(1)               0.00084       3.73629       1.33320       1.24629
     8  H(1)              -0.00056      -2.48155      -0.88548      -0.82775
     9  H(1)              -0.00059      -2.64100      -0.94237      -0.88094
    10  C(13)              0.10342     116.26437      41.48601      38.78162
    11  H(1)               0.00105       4.67659       1.66872       1.55994
    12  O(17)              0.01191      -7.21757      -2.57541      -2.40752
    13  H(1)               0.00064       2.87937       1.02743       0.96045
    14  O(17)              0.01912     -11.59236      -4.13644      -3.86679
    15  O(17)              0.03897     -23.62582      -8.43028      -7.88073
    16  H(1)              -0.01617     -72.27456     -25.78936     -24.10820
 --------------------------------------------------------
       Center         ----  Spin Dipole Couplings  ----
                      3XX-RR        3YY-RR        3ZZ-RR
 --------------------------------------------------------
     1   Atom        0.014029      0.002213     -0.016242
     2   Atom       -0.002524      0.000277      0.002247
     3   Atom        0.001221      0.003658     -0.004879
     4   Atom       -0.016523      0.036339     -0.019816
     5   Atom       -0.001192      0.003534     -0.002342
     6   Atom       -0.019805      0.033412     -0.013606
     7   Atom       -0.000562      0.004776     -0.004214
     8   Atom       -0.001390      0.005692     -0.004302
     9   Atom       -0.004203      0.003774      0.000429
    10   Atom       -0.035644      0.346196     -0.310552
    11   Atom       -0.009688     -0.012469      0.022157
    12   Atom       -0.120856      0.393572     -0.272716
    13   Atom       -0.009496     -0.013957      0.023453
    14   Atom        0.067896     -0.169866      0.101970
    15   Atom        0.418578     -0.333895     -0.084682
    16   Atom        0.068767      0.005077     -0.073844
 --------------------------------------------------------
                        XY            XZ            YZ
 --------------------------------------------------------
     1   Atom        0.013251     -0.017183     -0.004460
     2   Atom       -0.000911     -0.002985      0.006284
     3   Atom       -0.004637     -0.001501      0.001142
     4   Atom       -0.004183     -0.003383     -0.011431
     5   Atom       -0.005101      0.004894     -0.007065
     6   Atom        0.017892      0.009215      0.026988
     7   Atom       -0.002952      0.000408      0.001280
     8   Atom        0.003723     -0.002187     -0.001179
     9   Atom        0.000235      0.002316      0.003819
    10   Atom        0.431377     -0.044956     -0.064071
    11   Atom        0.008353     -0.033250      0.009006
    12   Atom        0.340769      0.031758      0.078147
    13   Atom        0.002962     -0.009306      0.006883
    14   Atom        0.120046     -0.309643     -0.076695
    15   Atom        0.873120     -1.039518     -0.705379
    16   Atom        0.128011     -0.068894     -0.044941
 --------------------------------------------------------


 ---------------------------------------------------------------------------------
              Anisotropic Spin Dipole Couplings in Principal Axis System
 ---------------------------------------------------------------------------------

       Atom             a.u.   MegaHertz   Gauss  10(-4) cm-1        Axes

              Baa    -0.0241    -3.233    -1.154    -1.078  0.4282 -0.0629  0.9015
     1 C(13)  Bbb    -0.0049    -0.661    -0.236    -0.221 -0.3934  0.8851  0.2486
              Bcc     0.0290     3.894     1.390     1.299  0.8136  0.4611 -0.3543
 
              Baa    -0.0057    -3.044    -1.086    -1.015  0.4352 -0.6197  0.6531
     2 H(1)   Bbb    -0.0027    -1.427    -0.509    -0.476  0.8631  0.4936 -0.1068
              Bcc     0.0084     4.472     1.596     1.492 -0.2562  0.6102  0.7497
 
              Baa    -0.0052    -2.790    -0.996    -0.931  0.2191 -0.0111  0.9756
     3 H(1)   Bbb    -0.0023    -1.213    -0.433    -0.405  0.7616  0.6270 -0.1639
              Bcc     0.0075     4.003     1.428     1.335 -0.6099  0.7790  0.1458
 
              Baa    -0.0243    -3.260    -1.163    -1.088  0.4775  0.1945  0.8568
     4 C(13)  Bbb    -0.0145    -1.945    -0.694    -0.649  0.8764 -0.0359 -0.4803
              Bcc     0.0388     5.206     1.858     1.736 -0.0627  0.9803 -0.1876
 
              Baa    -0.0075    -4.016    -1.433    -1.340 -0.3508  0.3838  0.8542
     5 H(1)   Bbb    -0.0044    -2.363    -0.843    -0.788  0.8100  0.5821  0.0711
              Bcc     0.0120     6.378     2.276     2.128 -0.4699  0.7169 -0.5151
 
              Baa    -0.0266    -3.576    -1.276    -1.193 -0.6048 -0.1695  0.7781
     6 C(13)  Bbb    -0.0247    -3.318    -1.184    -1.107  0.7485 -0.4545  0.4828
              Bcc     0.0514     6.894     2.460     2.299  0.2718  0.8745  0.4018
 
              Baa    -0.0046    -2.454    -0.876    -0.819 -0.2469 -0.2070  0.9467
     7 H(1)   Bbb    -0.0016    -0.845    -0.302    -0.282  0.8853  0.3491  0.3072
              Bcc     0.0062     3.300     1.177     1.101 -0.3940  0.9140  0.0971
 
              Baa    -0.0055    -2.953    -1.054    -0.985  0.5233 -0.0845  0.8479
     8 H(1)   Bbb    -0.0021    -1.109    -0.396    -0.370  0.7466 -0.4342 -0.5040
              Bcc     0.0076     4.062     1.449     1.355  0.4107  0.8969 -0.1641
 
              Baa    -0.0054    -2.869    -1.024    -0.957  0.8720  0.1692 -0.4592
     9 H(1)   Bbb    -0.0011    -0.588    -0.210    -0.196  0.4688 -0.5586  0.6843
              Bcc     0.0065     3.457     1.233     1.153  0.1407  0.8120  0.5664
 
              Baa    -0.3195   -42.870   -15.297   -14.300  0.5941 -0.3137  0.7407
    10 C(13)  Bbb    -0.3140   -42.139   -15.036   -14.056 -0.5926  0.4519  0.6667
              Bcc     0.6335    85.009    30.333    28.356  0.5439  0.8351 -0.0826
 
              Baa    -0.0365   -19.485    -6.953    -6.499  0.7485 -0.4443  0.4923
    11 H(1)   Bbb    -0.0068    -3.611    -1.289    -1.205  0.4065  0.8939  0.1889
              Bcc     0.0433    23.096     8.241     7.704 -0.5240  0.0587  0.8497
 
              Baa    -0.2938    21.259     7.586     7.091  0.7803 -0.4376  0.4469
    12 O(17)  Bbb    -0.2779    20.108     7.175     6.707 -0.4416  0.1206  0.8891
              Bcc     0.5717   -41.367   -14.761   -13.798  0.4430  0.8910  0.0991
 
              Baa    -0.0182    -9.694    -3.459    -3.234 -0.5454  0.7988 -0.2540
    13 H(1)   Bbb    -0.0086    -4.588    -1.637    -1.530  0.8046  0.5838  0.1082
              Bcc     0.0268    14.282     5.096     4.764 -0.2348  0.1454  0.9611
 
              Baa    -0.2491    18.027     6.432     6.013  0.6755 -0.5664  0.4721
    14 O(17)  Bbb    -0.1780    12.881     4.596     4.297  0.2892  0.7925  0.5369
              Bcc     0.4271   -30.908   -11.029   -10.310 -0.6782 -0.2262  0.6992
 
              Baa    -0.9256    66.976    23.899    22.341 -0.0151  0.7752  0.6315
    15 O(17)  Bbb    -0.8955    64.795    23.120    21.613  0.7184 -0.4309  0.5461
              Bcc     1.8211  -131.771   -47.019   -43.954  0.6955  0.4619 -0.5504
 
              Baa    -0.1040   -55.470   -19.793   -18.503  0.5508 -0.3308  0.7663
    16 H(1)   Bbb    -0.0900   -48.004   -17.129   -16.012 -0.3501  0.7419  0.5718
              Bcc     0.1939   103.474    36.922    34.515  0.7577  0.5832 -0.2928
 

 ---------------------------------------------------------------------------------

 Use density number 0.
 Entering OneElI...
 Calculate overlap and kinetic energy integrals
    NBasis = 187  MinDer = 2  MaxDer = 2
 Requested accuracy = 0.1000D-12
 PrsmSu:  NPrtUS=   1 ThrOK=F
 PRISM was handed   130758578 working-precision words and  2549 shell-pairs
 Entering OneElI...
 Calculate potential energy integrals
    NBasis = 187  MinDer = 2  MaxDer = 2
 Requested accuracy = 0.1000D-12
 PrsmSu:  NPrtUS=   8 ThrOK=T
 PRISM was handed    16300015 working-precision words and  2424 shell-pairs
 PRISM was handed    16300015 working-precision words and  2424 shell-pairs
 PRISM was handed    16300015 working-precision words and  2424 shell-pairs
 PRISM was handed    16300015 working-precision words and  2424 shell-pairs
 PRISM was handed    16300015 working-precision words and  2424 shell-pairs
 PRISM was handed    16300015 working-precision words and  2424 shell-pairs
 PRISM was handed    16300015 working-precision words and  2424 shell-pairs
 PRISM was handed    16300015 working-precision words and  2424 shell-pairs
 Polarizability after L701:
                1             2             3
      1  0.715780D+02
      2  0.391761D+01  0.650381D+02
      3 -0.333712D+01 -0.606253D+00  0.527508D+02
 Dipole Derivatives after L701:
               1            2            3            4            5
      1 0.334649D+00-0.398447D-01-0.164904D+00 0.275396D-01 0.795501D-02
      2 0.123478D+00 0.400128D+00 0.874390D-02-0.417949D-01 0.930262D-02
      3 0.556423D-01 0.687548D-01 0.412667D+00-0.941010D-01 0.469082D-01
               6            7            8            9           10
      1 0.207439D-02-0.293702D-01 0.104482D+00-0.178222D-01-0.227544D+00
      2-0.157788D-01 0.736058D-01-0.373418D-01 0.672807D-02-0.781645D-01
      3-0.165805D+00 0.534770D-02-0.178342D-01 0.698195D-01 0.493680D-01
              11           12           13           14           15
      1 0.112201D+00 0.207718D+00 0.372707D-02-0.212073D-01-0.413109D-01
      2-0.754302D-01-0.508758D-01-0.110820D-02 0.572167D-02 0.130885D-01
      3 0.574086D-02 0.142777D-01-0.555864D-01-0.124279D-02-0.113821D+00
              16           17           18           19           20
      1 0.154965D+00-0.467494D-01-0.265996D-01-0.483457D-01 0.509714D-01
      2 0.464966D-01 0.671091D-01 0.346112D-01 0.110260D+00-0.935353D-01
      3-0.242327D-01-0.216658D-01 0.887539D-01 0.176635D-02-0.511908D-02
              21           22           23           24           25
      1-0.172312D-01-0.355071D-01-0.208447D-01 0.980488D-01 0.322902D-01
      2-0.310418D-01-0.795462D-01 0.245961D-01 0.380826D-01-0.228866D-01
      3 0.749529D-01 0.805860D-01 0.213344D-02-0.613952D-02-0.563254D-01
              26           27           28           29           30
      1 0.144126D-01-0.668172D-01 0.105515D+01 0.328420D+00 0.478490D+00
      2 0.417883D-01-0.695853D-02 0.170697D-01 0.362452D+00 0.102181D-02
      3 0.577565D-01-0.108459D+00 0.834229D-01-0.187422D+00 0.473915D+00
              31           32           33           34           35
      1-0.233616D-01-0.453113D-01 0.380225D-01-0.828695D+00-0.861638D-01
      2 0.589021D-01 0.668937D-01-0.152841D-01 0.702869D-01-0.511241D+00
      3 0.894020D-01 0.743772D-01-0.566911D-01-0.258897D+00 0.532500D-01
              36           37           38           39           40
      1-0.720278D+00 0.210432D+00 0.642077D-01 0.135009D+00-0.644033D+00
      2-0.417796D-02-0.311859D-01 0.341153D+00-0.286759D-01-0.244779D+00
      3-0.545031D+00 0.121229D+00-0.455272D-01 0.235443D+00 0.647294D-01
              41           42           43           44           45
      1 0.313985D+00-0.366622D-01 0.427806D+00-0.383427D+00-0.112332D+00
      2-0.272600D+00-0.211621D-01 0.118139D+00-0.381582D+00-0.333846D-01
      3-0.827570D-01-0.268900D+00-0.144128D+00-0.478820D-01-0.167463D+00
              46           47           48
      1-0.409707D+00-0.353088D+00 0.244594D+00
      2-0.118773D+00 0.525863D-01 0.105063D+00
      3 0.817768D-01 0.100529D+00 0.624797D-01
 Hessian after L701:
                1             2             3             4             5
      1  0.157282D+02
      2 -0.291053D+01  0.140484D+02
      3  0.499639D+00 -0.100486D+01  0.185652D+02
      4 -0.465489D+01 -0.590490D-01  0.749621D+00  0.447017D+01
      5 -0.373123D-01 -0.483118D+01 -0.104921D+00  0.153477D+00  0.464847D+01
      6  0.987178D+00 -0.257981D+00 -0.161207D+01 -0.805324D+00 -0.111274D-01
      7 -0.307460D+01 -0.155560D+01  0.861699D-01  0.123627D-01  0.760131D-01
      8 -0.153742D+01 -0.316497D+01 -0.709858D-01  0.707024D-01  0.541333D-01
      9  0.255772D-01 -0.109004D-01 -0.466097D+01 -0.108583D+00  0.871231D-01
     10 -0.215186D+01  0.150519D+01 -0.253350D+01  0.242254D+00 -0.553162D-01
     11  0.166521D+01 -0.545073D+01 -0.999557D+00 -0.955179D-01  0.225983D+00
     12 -0.251880D+01 -0.934534D+00 -0.460090D+01  0.218312D+00  0.170590D+00
     13  0.530687D-01 -0.172800D-01  0.129044D+00 -0.452351D-01  0.247525D-02
     14 -0.260073D-01  0.118763D+00  0.173053D-01  0.756193D-02 -0.371456D-01
     15  0.105384D+00 -0.369270D-01  0.156284D-01 -0.362218D-01 -0.441037D-01
     16  0.607441D-01  0.109973D-01 -0.485193D-01 -0.292338D-01  0.437560D-01
     17 -0.119211D+00 -0.493221D-01 -0.142643D-01  0.361903D-01  0.151421D-01
     18 -0.993653D-01 -0.855347D-01  0.633953D-01 -0.299374D-01 -0.555482D-01
     19 -0.197899D-01 -0.202431D-01 -0.701415D-02 -0.484354D-03 -0.469100D-02
     20  0.632714D-02  0.285120D-01 -0.828870D-02 -0.417404D-02 -0.174889D-03
     21 -0.699304D-02 -0.152438D-01 -0.135819D-01  0.129851D-02  0.121549D-02
     22  0.915632D-01  0.116086D+00 -0.508321D-01 -0.209203D-02  0.116324D-02
     23  0.115428D+00  0.417594D-01 -0.435513D-01 -0.121366D-02 -0.911946D-03
     24 -0.602961D-01 -0.531980D-01 -0.282659D-01  0.726690D-03 -0.121269D-02
     25 -0.521229D-02 -0.195547D-02  0.620683D-03  0.216982D-01  0.424223D-01
     26 -0.285991D-01 -0.195174D-01 -0.852661D-02  0.406848D-01  0.132182D-01
     27  0.359172D-02  0.106918D-01  0.143305D-01 -0.358068D-02 -0.339475D-03
     28  0.306271D+00  0.670391D-01  0.294995D-01 -0.363653D-01  0.110925D-01
     29  0.555986D-01  0.163521D-01 -0.456767D-01  0.147210D-01 -0.205022D-02
     30  0.135308D-01 -0.568955D-01 -0.802865D-02  0.502295D-01 -0.153847D-01
     31  0.123647D+00 -0.538616D-01 -0.113977D+00  0.104722D-02 -0.772151D-03
     32 -0.610840D-01 -0.458707D-01  0.382429D-01 -0.459301D-03 -0.190467D-02
     33 -0.146726D+00  0.424505D-01  0.315028D-01 -0.424292D-02  0.106574D-02
     34  0.349795D+00 -0.167906D+00  0.115716D+00  0.506425D-01 -0.275271D-01
     35 -0.181275D+00 -0.161379D+00 -0.282198D-01 -0.236640D-01 -0.420066D-01
     36 -0.162908D-01  0.659847D-02 -0.264710D+00 -0.524343D-01  0.129914D-01
     37  0.544204D-01 -0.500688D-01  0.632999D-01  0.478120D-01 -0.253413D-01
     38 -0.568710D-01 -0.317026D-01 -0.287233D-01 -0.266679D-01 -0.193221D-01
     39  0.118704D+00 -0.398443D-01  0.130135D-01  0.106051D-01 -0.348135D-02
     40 -0.656906D+01  0.299521D+01  0.110202D+01  0.443026D-02 -0.167919D+00
     41  0.290739D+01 -0.769449D+00  0.261833D+01 -0.106647D+00 -0.755109D-01
     42  0.114200D+01  0.260985D+01 -0.752820D+01  0.669954D-02 -0.406101D-01
     43 -0.311651D+00  0.154217D-01 -0.127587D-01 -0.791190D-01 -0.172039D-01
     44  0.955750D-01  0.461363D+00 -0.274764D+00 -0.102636D-01  0.603414D-01
     45 -0.471451D-01 -0.126663D+00 -0.667740D-01 -0.141232D-02  0.114024D-01
     46  0.193884D-01  0.126551D+00 -0.902013D-02 -0.299463D-02  0.568384D-02
     47  0.112785D+00 -0.191024D+00 -0.415353D-01  0.431926D-02 -0.708502D-02
     48  0.151378D-04 -0.470074D-01  0.804305D-01  0.424343D-02 -0.765978D-02
                6             7             8             9            10
      6  0.129521D+01
      7 -0.109109D+00  0.279198D+01
      8  0.817319D-01  0.185266D+01  0.278649D+01
      9  0.638006D-02  0.388249D-01 -0.206626D-01  0.480819D+01
     10  0.156367D+00 -0.657466D-01 -0.946480D-02  0.420555D-01  0.142477D+02
     11  0.237053D+00  0.326078D-01  0.971718D-01 -0.215400D-01 -0.720152D-01
     12 -0.211081D+00  0.199694D-01 -0.433323D-02  0.867067D-01  0.134767D+01
     13 -0.270423D-01 -0.281041D-01  0.117572D-01  0.609701D-01 -0.440574D+01
     14 -0.578146D-01  0.446996D-02  0.306378D-01 -0.505290D-02 -0.115577D+00
     15  0.194796D+00  0.599052D-01 -0.254985D-02 -0.396611D-01  0.983450D+00
     16 -0.508631D-01  0.728701D-01 -0.475740D-02  0.225659D-02 -0.483974D+01
     17 -0.676199D-01  0.185349D-01 -0.316843D-01  0.265950D-02  0.176467D+01
     18  0.221301D-01 -0.944971D-02  0.586026D-02 -0.337926D-01  0.523805D+00
     19  0.700061D-02  0.995259D-02  0.251990D-01 -0.508353D-02  0.927462D-01
     20 -0.808528D-02  0.526373D-01  0.548622D-02 -0.589456D-02  0.384801D-01
     21  0.698945D-03 -0.661843D-02 -0.409325D-02 -0.173162D-01  0.143411D-01
     22 -0.729367D-02  0.111756D-01 -0.466146D-02 -0.136372D-02  0.524268D-01
     23 -0.336706D-02  0.443548D-02 -0.362163D-02 -0.479709D-03 -0.241773D-01
     24  0.600478D-02 -0.717702D-02  0.311259D-02 -0.121770D-02 -0.543275D-01
     25 -0.242958D-01  0.444584D-04 -0.698168D-02  0.520169D-05  0.766490D-01
     26 -0.178738D-01 -0.356323D-02 -0.971165D-03 -0.435457D-03 -0.318213D-01
     27 -0.295285D-01  0.870660D-02 -0.599125D-02  0.195604D-02  0.800867D-02
     28  0.281105D-01  0.181170D+00 -0.133440D+00 -0.535888D-01 -0.349971D+01
     29 -0.212172D-01 -0.109360D+00 -0.530410D-02  0.268894D-01 -0.313332D+01
     30 -0.480272D-01 -0.526860D-01  0.306598D-01 -0.440532D-01 -0.168040D+00
     31 -0.105892D-01  0.397882D-02 -0.546862D-02  0.352673D-03 -0.112560D+00
     32  0.306381D-02 -0.973525D-03  0.144683D-02 -0.660598D-03  0.107985D+00
     33  0.147739D-01 -0.885340D-02  0.742702D-02 -0.243062D-03  0.106008D+00
     34 -0.106415D+00  0.439938D-01 -0.380821D-01  0.415072D-02  0.220648D+00
     35  0.263086D-01 -0.209459D-01  0.138498D-02 -0.175161D-02 -0.300823D+00
     36 -0.184761D-03 -0.437839D-02  0.439901D-02 -0.132735D-01 -0.104564D+00
     37 -0.964314D-02 -0.160950D-03 -0.140256D-03  0.112252D-02 -0.763218D-01
     38  0.515392D-02 -0.355541D-02 -0.181821D-03 -0.735099D-03  0.661844D-02
     39 -0.409697D-01  0.114886D-01 -0.901322D-02 -0.274074D-03 -0.520877D-01
     40 -0.232591D-01  0.464918D-01 -0.109633D+00 -0.107810D-01  0.318039D+00
     41 -0.434230D-02 -0.202406D+00  0.424528D-01 -0.408381D-01  0.366379D+00
     42  0.473566D+00 -0.330887D-01  0.261446D-02 -0.286286D-01 -0.296505D+00
     43 -0.104038D-01  0.182147D-02 -0.122117D+00  0.271092D-03 -0.707463D-01
     44  0.964025D-01 -0.154704D+00  0.195471D+00 -0.358872D-02  0.153758D+00
     45 -0.672183D-01  0.243379D-02 -0.137799D-01 -0.659150D-01  0.286977D-01
     46  0.558107D-02 -0.722563D-02  0.118411D-01  0.381330D-02 -0.280606D-01
     47 -0.285384D-03  0.974206D-02 -0.794163D-02 -0.413232D-02 -0.200560D+00
     48 -0.447866D-02  0.386211D-02 -0.439598D-02  0.211872D-02 -0.137615D-02
               11            12            13            14            15
     11  0.140956D+02
     12 -0.226317D+00  0.185959D+02
     13 -0.589249D-01  0.923705D+00  0.443430D+01
     14 -0.474721D+01 -0.283947D+00  0.181381D-01  0.460566D+01
     15 -0.138787D+00 -0.215649D+01 -0.114802D+01  0.490685D+00  0.164351D+01
     16  0.172366D+01  0.522019D+00  0.447971D-01 -0.493292D-01  0.144674D-01
     17 -0.157841D+01  0.145925D+01 -0.449565D-01 -0.364683D-01 -0.621618D-01
     18  0.143079D+01 -0.509025D+01  0.864113D-02 -0.709175D-01  0.993203D-01
     19 -0.334738D-01  0.664363D-02  0.141330D-01 -0.661153D-02 -0.127446D-01
     20 -0.624964D-02 -0.273506D-01 -0.320868D-02 -0.271957D-01 -0.269798D-01
     21 -0.163023D-01  0.604782D-01 -0.308155D-02 -0.308724D-01 -0.627430D-02
     22  0.316917D-01 -0.362132D-01 -0.160276D-01 -0.309821D-01 -0.965691D-02
     23  0.141111D-01 -0.895950D-02 -0.335873D-01 -0.982497D-02 -0.140304D-01
     24 -0.457071D-01  0.573949D-01 -0.204855D-01 -0.133104D-01  0.436220D-02
     25  0.583101D-02 -0.230837D-01  0.619158D-02  0.246802D-01  0.803511D-01
     26  0.642986D-01 -0.882708D-01  0.316925D-01 -0.197511D-01  0.613497D-01
     27  0.725940D-02  0.515508D-01  0.756086D-01  0.453659D-01  0.106922D+00
     28 -0.332810D+01 -0.107838D+00 -0.406428D-01  0.106573D+00 -0.827285D-01
     29 -0.337500D+01  0.101741D+00  0.787639D-01  0.550427D-01  0.460567D-01
     30  0.866810D-01 -0.620664D+01 -0.799419D-01  0.693159D-01  0.828438D-01
     31  0.937635D-01  0.928659D-01 -0.180883D-01  0.232331D-01  0.715388D-02
     32  0.126219D+00 -0.412586D-01  0.202673D-01 -0.511837D-02 -0.295127D-02
     33 -0.181095D-01  0.122774D+00 -0.720132D-02  0.287629D-02  0.173615D-02
     34 -0.261567D+00 -0.165065D+00  0.619738D-01 -0.571205D-01  0.133252D+00
     35  0.415471D+00 -0.115735D+00 -0.541802D-01 -0.244970D-01 -0.683945D-01
     36 -0.970237D-01 -0.300199D+00  0.963352D-01 -0.516507D-01  0.546777D-01
     37  0.275615D-01 -0.935393D-01 -0.226860D-02 -0.581327D-03 -0.445387D-03
     38  0.487747D-01  0.276737D-02 -0.274114D-02 -0.896500D-03 -0.471379D-02
     39 -0.275926D-01 -0.545003D-01  0.106480D-01 -0.656879D-02  0.173626D-01
     40  0.216256D+00 -0.216206D+00 -0.162724D-01  0.986291D-01 -0.819847D-01
     41 -0.824252D-01 -0.286862D+00  0.682184D-01  0.419921D-01 -0.107706D+00
     42 -0.389014D+00 -0.134228D+00 -0.262074D-01 -0.525698D-01 -0.294985D-01
     43  0.178519D+00  0.250475D-01 -0.315462D-01  0.806570D-02 -0.130939D-01
     44  0.154920D+00  0.163453D+00 -0.636184D-02  0.404416D-01 -0.685199D-01
     45  0.138860D+00 -0.180683D+00  0.303961D-02 -0.422885D-01  0.132768D-01
     46 -0.125497D+00  0.451196D-02 -0.105355D-01 -0.514300D-02  0.934737D-03
     47 -0.256121D-02  0.119769D+00 -0.100720D-01  0.155666D-01 -0.202661D-01
     48  0.793112D-01 -0.398218D-01  0.399157D-02 -0.105563D-01 -0.251701D-02
               16            17            18            19            20
     16  0.143626D+02
     17 -0.857954D+00  0.116748D+02
     18 -0.330139D+00 -0.552131D+00  0.147340D+02
     19 -0.296987D+01 -0.129473D+01 -0.568028D-01  0.295111D+01
     20 -0.148015D+01 -0.261289D+01  0.691987D-01  0.138618D+01  0.219960D+01
     21 -0.584639D-01  0.612698D-01 -0.415383D+01  0.103219D+00 -0.670525D-01
     22 -0.264058D+01  0.539841D+00 -0.123008D+01 -0.452858D-01  0.302525D-01
     23  0.700343D+00 -0.394617D+01 -0.561062D+00  0.410843D-01  0.728772D-01
     24 -0.121443D+01 -0.425916D+00 -0.318862D+01  0.363089D-01 -0.160001D-01
     25 -0.393699D+01 -0.119999D+00  0.107419D+01 -0.137147D-02  0.740988D-01
     26  0.899256D-04 -0.441902D+01 -0.834897D-04  0.559471D-01  0.451399D-01
     27  0.103811D+01 -0.282711D+00 -0.187671D+01 -0.633210D-01  0.610166D-01
     28  0.368064D-01  0.242430D-01 -0.795989D-02 -0.180229D-01 -0.880541D-01
     29 -0.569326D-01  0.400759D+00  0.313906D-01 -0.845758D-01  0.163735D+00
     30 -0.141314D-01 -0.166018D-01  0.103397D-01 -0.126147D-01  0.333949D-01
     31 -0.394217D-02  0.539031D-02 -0.108247D-02  0.347515D-02 -0.516721D-02
     32 -0.217104D-02 -0.179769D-01  0.106680D-02 -0.343728D-02  0.245249D-02
     33 -0.154838D-01  0.101973D-01  0.312343D-02 -0.704522D-02  0.910148D-02
     34 -0.624490D-01 -0.342041D+00  0.162659D+00  0.166083D-01 -0.465318D-01
     35 -0.383247D+00  0.190381D+00 -0.219085D+00 -0.417151D-01  0.418759D-01
     36  0.109238D+00 -0.133685D+00 -0.293267D+00  0.273952D-02 -0.305345D-02
     37 -0.253654D-01  0.185581D-01 -0.137544D-01 -0.343844D-02  0.331923D-02
     38 -0.662606D-02 -0.983348D-02 -0.446459D-02 -0.258232D-02  0.170775D-02
     39  0.198142D-01 -0.219448D-01  0.762156D-02  0.733189D-02 -0.979002D-02
     40  0.392156D-01  0.249155D+00  0.140538D-01 -0.155309D-01  0.240356D-01
     41  0.261608D+00  0.158989D+00  0.185631D-01 -0.287298D-02  0.527690D-01
     42  0.277634D-01  0.338156D-01 -0.163258D+00  0.361499D-03  0.151377D-02
     43 -0.778119D-01  0.909005D-01 -0.760731D-02 -0.122844D-01  0.104634D-01
     44  0.759311D-01  0.118651D+00 -0.194403D-01 -0.106365D-01  0.341913D-01
     45 -0.180502D-02 -0.409823D-02 -0.105113D+00  0.618432D-03 -0.137709D-02
     46 -0.310922D-01  0.314108D-01  0.282701D-02 -0.194730D-02  0.148836D-02
     47  0.247829D-01  0.143091D+00  0.114006D-01 -0.284396D-02 -0.182951D-02
     48  0.170771D-03  0.139441D-01 -0.350736D-01  0.402604D-03 -0.353265D-03
               21            22            23            24            25
     21  0.413475D+01
     22  0.608200D-01  0.252288D+01
     23 -0.286003D-01 -0.799766D+00  0.359923D+01
     24  0.506498D-01  0.128443D+01  0.655005D+00  0.320950D+01
     25 -0.944878D-01  0.832110D-01 -0.105134D-01  0.545888D-01  0.381927D+01
     26  0.693945D-01  0.339593D-02  0.712571D-01  0.235166D-01  0.220279D-02
     27  0.322400D-01  0.164618D-01  0.447335D-01 -0.591918D-01 -0.107735D+01
     28 -0.149645D-01 -0.227572D-01 -0.157148D-02 -0.654691D-02  0.211700D-01
     29  0.332351D-01  0.238077D-01  0.391873D-01 -0.312515D-01 -0.110572D-02
     30 -0.445797D-01 -0.106628D-01 -0.161342D-01 -0.206132D-01 -0.915700D-03
     31 -0.806264D-03 -0.154209D-01 -0.903426D-02  0.178850D-02 -0.205092D-02
     32  0.100936D-02  0.528741D-02  0.373287D-01  0.603342D-02  0.119696D-02
     33  0.543553D-03  0.859660D-02  0.258877D-01 -0.141302D-01  0.321231D-02
     34  0.472576D-02 -0.396612D-01 -0.167550D-01  0.151217D-01 -0.849031D-01
     35 -0.372576D-02  0.258554D-01  0.502429D-01 -0.599320D-01 -0.640075D-01
     36 -0.171861D-01 -0.515465D-02 -0.280952D-01 -0.134207D-01 -0.106908D-01
     37 -0.507894D-03  0.576874D-03  0.327049D-02 -0.424626D-02 -0.579406D-02
     38 -0.991164D-03  0.273359D-02  0.567564D-02 -0.747643D-02 -0.146921D-02
     39 -0.952472D-05 -0.848962D-02 -0.127297D-01  0.105642D-01 -0.166372D-02
     40  0.646657D-03  0.121632D-01  0.133055D-01 -0.123856D-01  0.120277D-01
     41  0.196049D-02  0.259600D-01  0.506372D-02 -0.157275D-01  0.321786D-01
     42 -0.163141D-01 -0.446444D-02 -0.221612D-02 -0.625331D-02  0.119362D-01
     43  0.828240D-03  0.654959D-02  0.151932D-01 -0.113241D-01 -0.130294D-02
     44 -0.645149D-03  0.244883D-01  0.185230D-01 -0.151741D-01  0.171692D-01
     45 -0.991502D-02 -0.529564D-02 -0.544750D-02 -0.572795D-02  0.525248D-02
     46  0.442784D-04  0.128179D-02  0.355901D-02 -0.174872D-02 -0.263515D-02
     47 -0.558172D-03  0.484629D-02  0.527131D-02 -0.276177D-02  0.625248D-02
     48 -0.355017D-03 -0.809613D-03 -0.953045D-03 -0.103680D-02  0.233250D-02
               26            27            28            29            30
     26  0.415384D+01
     27 -0.602028D-01  0.185143D+01
     28  0.648416D-02  0.629386D-02  0.123140D+02
     29 -0.497756D-01 -0.244959D-01  0.217438D+01  0.172142D+02
     30 -0.466997D-01  0.487000D-02 -0.285340D+01  0.639962D+00  0.141660D+02
     31 -0.485800D-03 -0.517893D-02 -0.404662D+01 -0.204640D+00 -0.127544D+01
     32 -0.190989D-02  0.324161D-02 -0.191552D+00 -0.461595D+01  0.381333D+00
     33  0.101279D-02  0.114509D-01 -0.125500D+01  0.385880D+00 -0.213730D+01
     34 -0.113620D+00 -0.588781D-01 -0.469078D+01 -0.685857D+00  0.511950D+01
     35  0.118029D+00  0.128980D+00 -0.615162D+00 -0.864972D+01 -0.681621D+00
     36  0.596162D-01 -0.817132D-01  0.489372D+01 -0.698819D+00 -0.266118D+01
     37  0.156716D-02  0.450706D-02  0.201438D+00  0.321982D-02 -0.136386D+00
     38  0.166307D-01  0.371225D-02 -0.647671D-02  0.190923D+00 -0.346288D-03
     39 -0.140768D-01 -0.177777D-01  0.278238D-01 -0.506429D-01 -0.204296D-01
     40  0.200434D-01  0.255045D-01  0.480338D+00  0.242428D+00 -0.209235D+00
     41  0.648102D-02  0.300803D-01  0.193202D+00 -0.297147D+00 -0.495243D-01
     42  0.786488D-02 -0.447458D-02 -0.259847D+00 -0.488341D-01 -0.248156D+00
     43  0.101847D-01  0.164632D-01  0.645523D-01  0.998942D-01 -0.650762D-01
     44  0.655169D-02  0.258227D-01 -0.718901D-01 -0.123750D+00  0.254651D-01
     45  0.608111D-02 -0.506608D-02 -0.135736D+00 -0.113276D+00 -0.953469D-01
     46  0.579669D-02  0.505498D-02 -0.125085D+01  0.158298D+01 -0.304738D+00
     47  0.155027D-01  0.128358D-01  0.185323D+01 -0.961541D+00 -0.383604D+00
     48  0.733362D-02 -0.291018D-03 -0.207839D+00 -0.230941D+00 -0.272972D+01
               31            32            33            34            35
     31  0.404023D+01
     32  0.141549D+00  0.454141D+01
     33  0.168748D+01 -0.414975D+00  0.175490D+01
     34 -0.114185D-01  0.785802D-03 -0.227797D+00  0.932115D+01
     35  0.517384D-02  0.497731D-01 -0.121443D-01  0.114317D+01  0.153058D+02
     36 -0.299973D+00  0.120290D-01 -0.441180D-01 -0.266647D+01  0.109902D+01
     37 -0.399740D-01 -0.517500D-04 -0.192246D-01 -0.595899D+01  0.690159D-01
     38  0.170390D-02 -0.398205D-01 -0.954848D-02  0.125180D+00 -0.706209D+01
     39 -0.360110D-01  0.197437D-02  0.204989D+00 -0.245097D+01 -0.110708D+00
     40  0.525213D-01 -0.119942D-04 -0.591626D-01  0.368700D+00  0.333488D-01
     41  0.140915D-01 -0.181301D-01 -0.122558D-01  0.817059D-01 -0.171774D+00
     42 -0.312524D-01 -0.179935D-02  0.342183D-02  0.104406D+00  0.544470D-02
     43  0.511113D-01  0.401029D-01 -0.103652D+00  0.487913D+00  0.397729D+00
     44  0.497826D-01 -0.255965D-01 -0.574626D-01  0.385506D+00 -0.136324D+00
     45 -0.744377D-01 -0.317618D-01  0.330982D-01  0.124326D+00  0.550367D-01
     46 -0.259368D-01 -0.574334D-01  0.491000D-01 -0.732216D-01  0.107241D-01
     47 -0.552574D-01  0.136455D-01  0.385961D-01  0.206571D-01  0.748094D-01
     48  0.591088D-01  0.454122D-01  0.134695D-01 -0.108266D+00 -0.134756D-01
               36            37            38            39            40
     36  0.640011D+01
     37 -0.198932D+01  0.576933D+01
     38 -0.208597D+00 -0.107293D+00  0.692885D+01
     39 -0.218102D+01  0.218087D+01  0.243493D+00  0.210845D+01
     40  0.497050D-01 -0.162405D-02  0.347178D-02  0.612193D-01  0.744371D+01
     41  0.102282D-01 -0.845960D-03 -0.204508D-01  0.100924D-01  0.983342D+00
     42 -0.186066D+00  0.176792D-01  0.225869D-02  0.124459D-01 -0.165331D+01
     43  0.705716D-01  0.518256D-01  0.905010D-01  0.131823D+00 -0.197696D+01
     44  0.162624D-01  0.857622D-01 -0.188173D-01  0.763294D-01 -0.477326D+01
     45 -0.346687D+00  0.476662D-01  0.362447D-01 -0.235763D-01  0.100735D+01
     46 -0.730370D-01 -0.114676D-01 -0.159262D-01 -0.311061D-01 -0.198195D+00
     47 -0.221361D-03 -0.279525D-01  0.105527D-01 -0.254967D-01  0.171598D+00
     48 -0.517573D-01 -0.480753D-01 -0.280338D-01 -0.358900D-01  0.583051D-02
               41            42            43            44            45
     41  0.158579D+01
     42 -0.146648D+01  0.127990D+02
     43 -0.477439D+01  0.104953D+01  0.226365D+01
     44 -0.568911D+00 -0.647366D+00  0.272840D+01  0.202910D+01
     45 -0.676454D+00 -0.514394D+01  0.118225D+00  0.134711D+01  0.865948D+01
     46  0.153091D+00 -0.556916D-01 -0.366005D+00  0.141074D+01 -0.107178D+01
     47  0.110256D+00 -0.144751D-01  0.122834D+01 -0.224615D+01 -0.579588D+00
     48 -0.290632D-01  0.200594D+00 -0.118884D+01 -0.663884D+00 -0.258990D+01
               46            47            48
     46  0.198950D+01
     47 -0.313987D+01  0.302944D+01
     48  0.147525D+01  0.890322D+00  0.519423D+01
 ReadGW:  IGet=0 IStart=         114 Next=        7220 LGW=        7106.
 ICntrl=12127.
 Symmetry not used in FoFDir.
 MinBra= 0 MaxBra= 2 Meth= 1.
 IRaf=       0 NMat=   1 IRICut=       1 DoRegI=T DoRafI=F ISym2E= 0 JSym2E=0.
 PrsmSu:  NPrtUS=   8 ThrOK=T
 PRISM was handed    16286029 working-precision words and  2489 shell-pairs
 PRISM was handed    16286029 working-precision words and  2489 shell-pairs
 PRISM was handed    16286029 working-precision words and  2489 shell-pairs
 PRISM was handed    16286029 working-precision words and  2489 shell-pairs
 PRISM was handed    16286029 working-precision words and  2489 shell-pairs
 PRISM was handed    16286029 working-precision words and  2489 shell-pairs
 PRISM was handed    16286029 working-precision words and  2489 shell-pairs
 PRISM was handed    16286029 working-precision words and  2489 shell-pairs
 Pruned (  75, 302) grid will be used in CalDFT.
 CkSvGd:  ISavGI=        -1 IRadAn=       4 IRASav=       4 ISavGd=        -1.
 CalDSu:  NPrtUS=   8 ThrOK=T
 IPart= 0 IRanGd=          0 ScrnBf=T ScrnGd=T RCrit=4.00D+00 DoMicB=T.
 IPart= 2 IRanGd=          0 ScrnBf=T ScrnGd=T RCrit=4.00D+00 DoMicB=T.
 CutRad = 1000.00    CtRdIn =    0.00    XCrit =  15.00   ICut = 0
 IPart= 3 IRanGd=          0 ScrnBf=T ScrnGd=T RCrit=4.00D+00 DoMicB=T.
 IPart= 1 IRanGd=          0 ScrnBf=T ScrnGd=T RCrit=4.00D+00 DoMicB=T.
 IPart= 6 IRanGd=          0 ScrnBf=T ScrnGd=T RCrit=4.00D+00 DoMicB=T.
 IPart= 4 IRanGd=          0 ScrnBf=T ScrnGd=T RCrit=4.00D+00 DoMicB=T.
 CutRad = 1000.00    CtRdIn =    0.00    XCrit =  15.00   ICut = 0
 CutRad = 1000.00    CtRdIn =    0.00    XCrit =  15.00   ICut = 0
 CutRad = 1000.00    CtRdIn =    0.00    XCrit =  15.00   ICut = 0
 IPart= 5 IRanGd=          0 ScrnBf=T ScrnGd=T RCrit=4.00D+00 DoMicB=T.
 IPart= 7 IRanGd=          0 ScrnBf=T ScrnGd=T RCrit=4.00D+00 DoMicB=T.
 CutRad = 1000.00    CtRdIn =    0.00    XCrit =  15.00   ICut = 0
 CutRad = 1000.00    CtRdIn =    0.00    XCrit =  15.00   ICut = 0
 CutRad = 1000.00    CtRdIn =    0.00    XCrit =  15.00   ICut = 0
 CutRad = 1000.00    CtRdIn =    0.00    XCrit =  15.00   ICut = 0
 IPart= 2        12632 of        14338 points in      30 batches and       94 microbatches, Max-NSigAt=      16 Max-NSgAt2=      16
 IPart= 3        14523 of        16808 points in      35 batches and      108 microbatches, Max-NSigAt=      16 Max-NSgAt2=      16
 IPart= 1        14092 of        15888 points in      32 batches and       90 microbatches, Max-NSigAt=      16 Max-NSgAt2=      16
 IPart= 0        13496 of        15402 points in      31 batches and       98 microbatches, Max-NSigAt=      16 Max-NSgAt2=      16
 IPart= 7        13306 of        15122 points in      32 batches and      102 microbatches, Max-NSigAt=      16 Max-NSgAt2=      16
 IPart= 5        14607 of        17368 points in      35 batches and       95 microbatches, Max-NSigAt=      16 Max-NSgAt2=      16
 IPart= 6        13910 of        15246 points in      30 batches and       92 microbatches, Max-NSigAt=      16 Max-NSgAt2=      16
 IPart= 4        15257 of        17472 points in      36 batches and       99 microbatches, Max-NSigAt=      16 Max-NSgAt2=      16
 Polarizability after L703:
                1             2             3
      1  0.715780D+02
      2  0.391761D+01  0.650381D+02
      3 -0.333712D+01 -0.606253D+00  0.527508D+02
 Dipole Derivatives after L703:
               1            2            3            4            5
      1 0.334649D+00-0.398447D-01-0.164904D+00 0.275396D-01 0.795501D-02
      2 0.123478D+00 0.400128D+00 0.874390D-02-0.417949D-01 0.930262D-02
      3 0.556423D-01 0.687548D-01 0.412667D+00-0.941010D-01 0.469082D-01
               6            7            8            9           10
      1 0.207439D-02-0.293702D-01 0.104482D+00-0.178222D-01-0.227544D+00
      2-0.157788D-01 0.736058D-01-0.373418D-01 0.672807D-02-0.781645D-01
      3-0.165805D+00 0.534770D-02-0.178342D-01 0.698195D-01 0.493680D-01
              11           12           13           14           15
      1 0.112201D+00 0.207718D+00 0.372707D-02-0.212073D-01-0.413109D-01
      2-0.754302D-01-0.508758D-01-0.110820D-02 0.572167D-02 0.130885D-01
      3 0.574086D-02 0.142777D-01-0.555864D-01-0.124279D-02-0.113821D+00
              16           17           18           19           20
      1 0.154965D+00-0.467494D-01-0.265996D-01-0.483457D-01 0.509714D-01
      2 0.464966D-01 0.671091D-01 0.346112D-01 0.110260D+00-0.935353D-01
      3-0.242327D-01-0.216658D-01 0.887539D-01 0.176635D-02-0.511908D-02
              21           22           23           24           25
      1-0.172312D-01-0.355071D-01-0.208447D-01 0.980488D-01 0.322902D-01
      2-0.310418D-01-0.795462D-01 0.245961D-01 0.380826D-01-0.228866D-01
      3 0.749529D-01 0.805860D-01 0.213344D-02-0.613952D-02-0.563254D-01
              26           27           28           29           30
      1 0.144126D-01-0.668172D-01 0.105515D+01 0.328420D+00 0.478490D+00
      2 0.417883D-01-0.695853D-02 0.170697D-01 0.362452D+00 0.102181D-02
      3 0.577565D-01-0.108459D+00 0.834229D-01-0.187422D+00 0.473915D+00
              31           32           33           34           35
      1-0.233616D-01-0.453113D-01 0.380225D-01-0.828695D+00-0.861638D-01
      2 0.589021D-01 0.668937D-01-0.152841D-01 0.702869D-01-0.511241D+00
      3 0.894020D-01 0.743772D-01-0.566911D-01-0.258897D+00 0.532500D-01
              36           37           38           39           40
      1-0.720278D+00 0.210432D+00 0.642077D-01 0.135009D+00-0.644033D+00
      2-0.417796D-02-0.311859D-01 0.341153D+00-0.286759D-01-0.244779D+00
      3-0.545031D+00 0.121229D+00-0.455272D-01 0.235443D+00 0.647294D-01
              41           42           43           44           45
      1 0.313985D+00-0.366622D-01 0.427806D+00-0.383427D+00-0.112332D+00
      2-0.272600D+00-0.211621D-01 0.118139D+00-0.381582D+00-0.333846D-01
      3-0.827570D-01-0.268900D+00-0.144128D+00-0.478820D-01-0.167463D+00
              46           47           48
      1-0.409707D+00-0.353088D+00 0.244594D+00
      2-0.118773D+00 0.525863D-01 0.105063D+00
      3 0.817768D-01 0.100529D+00 0.624797D-01
 Hessian after L703:
                1             2             3             4             5
      1  0.520755D+00
      2 -0.113417D+00  0.487079D+00
      3  0.516761D-01 -0.200296D-01  0.535800D+00
      4 -0.652181D-01  0.115601D-01 -0.556833D-01  0.720861D-01
      5  0.159611D-01 -0.537375D-01  0.397256D-01 -0.425053D-02  0.587595D-01
      6 -0.577876D-01  0.349564D-01 -0.269672D+00  0.677079D-01 -0.311744D-01
      7 -0.198295D+00  0.133952D+00 -0.178584D-01 -0.472811D-02  0.453521D-02
      8  0.124387D+00 -0.158647D+00  0.107697D-01  0.247109D-02 -0.323104D-03
      9 -0.204901D-01  0.158465D-01 -0.518491D-01 -0.215796D-01  0.195989D-01
     10 -0.110248D+00  0.160195D-02  0.288303D-01  0.599932D-02  0.272919D-02
     11 -0.387750D-02 -0.727489D-01  0.157075D-01 -0.433472D-02 -0.108911D-03
     12  0.368497D-01  0.128859D-01 -0.112697D+00  0.251174D-01  0.808029D-02
     13  0.619409D-02 -0.460947D-02  0.283368D-01 -0.384551D-02 -0.217074D-02
     14  0.751451D-03 -0.224750D-02  0.800629D-02 -0.126835D-02  0.224630D-03
     15 -0.454233D-02  0.304074D-02 -0.229258D-01  0.324224D-02  0.713565D-03
     16 -0.107411D-01 -0.230411D-01 -0.796658D-02  0.156023D-02  0.780230D-03
     17 -0.101234D-01 -0.132207D-01 -0.183249D-02  0.120187D-02  0.775757D-03
     18  0.557369D-02  0.147868D-01  0.672961D-02 -0.133250D-03  0.392210D-03
     19  0.506232D-03 -0.615957D-03  0.254732D-04 -0.272729D-04  0.567975D-04
     20  0.167443D-02 -0.602069D-04 -0.180519D-03 -0.719068D-04  0.396995D-04
     21  0.231098D-03  0.560386D-03  0.000000D+00 -0.122715D-03  0.529091D-04
     22  0.629341D-03 -0.149924D-02 -0.197292D-02  0.465154D-04  0.273800D-04
     23  0.332670D-03 -0.345687D-02 -0.316928D-02  0.298594D-03  0.166033D-04
     24 -0.243860D-03 -0.155349D-02 -0.504854D-03 -0.176216D-03 -0.162454D-03
     25  0.138838D-03  0.667086D-03 -0.176345D-02 -0.744401D-04 -0.408105D-03
     26  0.970718D-03  0.143303D-02 -0.103408D-02 -0.113491D-03 -0.714395D-04
     27  0.880160D-03  0.523937D-03  0.388655D-03 -0.545520D-03 -0.255014D-03
     28 -0.272827D-01  0.213424D-01  0.153482D-01  0.106052D-02 -0.283371D-03
     29  0.114506D-01  0.190719D-01 -0.386774D-02 -0.124509D-02 -0.586084D-03
     30  0.171312D-01 -0.172603D-01  0.225511D-02  0.330143D-04 -0.348127D-03
     31 -0.219734D-02  0.291251D-02  0.118491D-03  0.305899D-03  0.452422D-05
     32  0.195129D-04 -0.665916D-02  0.183402D-03  0.362465D-03  0.142993D-03
     33 -0.819397D-03 -0.817383D-03  0.108784D-02 -0.102507D-03 -0.415345D-05
     34  0.179931D-02 -0.316126D-02 -0.459786D-02 -0.186573D-03  0.163366D-04
     35 -0.825793D-03 -0.427336D-02 -0.106307D-02  0.137629D-03  0.214759D-03
     36  0.900770D-03 -0.191075D-02 -0.665889D-02 -0.565062D-03 -0.313558D-03
     37 -0.186862D-03 -0.358179D-03 -0.289352D-02 -0.979968D-03  0.274998D-04
     38  0.910999D-03  0.242062D-02  0.146011D-02  0.209576D-03  0.233499D-03
     39 -0.770423D-03  0.104035D-02  0.168066D-02 -0.356914D-03  0.340606D-04
     40 -0.110596D+00 -0.337145D-01 -0.408322D-01 -0.748750D-02 -0.144283D-01
     41 -0.681845D-01 -0.135468D+00 -0.409136D-01 -0.654943D-02 -0.120690D-01
     42 -0.434163D-01 -0.338735D-01 -0.902944D-01 -0.205958D-01 -0.368017D-01
     43 -0.221005D-02  0.132590D-01  0.141645D-01  0.109962D-02 -0.336131D-02
     44  0.367673D-01 -0.555639D-01  0.219459D-02  0.129184D-02  0.628656D-02
     45  0.125157D-01 -0.960325D-02  0.335316D-02  0.385345D-02  0.917361D-03
     46 -0.304794D-02 -0.487876D-02 -0.493170D-02  0.389230D-03  0.764044D-03
     47  0.320207D-02 -0.392180D-02 -0.595692D-02  0.300368D-03  0.202029D-03
     48  0.231160D-02  0.140713D-02  0.330772D-02 -0.930610D-04 -0.455473D-03
                6             7             8             9            10
      6  0.297822D+00
      7 -0.375130D-04  0.207776D+00
      8  0.104482D-02 -0.139002D+00  0.185070D+00
      9 -0.508802D-03  0.155285D-01 -0.120675D-01  0.510778D-01
     10 -0.336866D-02 -0.171850D-01 -0.681293D-02  0.157772D-01  0.440066D+00
     11  0.326497D-02  0.163519D-01  0.729688D-02 -0.118988D-01 -0.455949D-02
     12 -0.184992D-01 -0.233349D-02 -0.451463D-03  0.550538D-03  0.616623D-01
     13  0.300114D-02  0.132285D-02  0.432113D-03 -0.376451D-03 -0.792295D-01
     14  0.552693D-03 -0.550864D-04  0.343773D-03 -0.728946D-03  0.132758D-01
     15 -0.106617D-02  0.737292D-04 -0.362529D-03  0.795807D-03 -0.854408D-01
     16 -0.698075D-03  0.262001D-03 -0.110705D-03 -0.645183D-03 -0.889360D-01
     17 -0.450133D-03  0.117980D-02  0.901718D-03 -0.523301D-03 -0.377148D-01
     18  0.467568D-03 -0.162158D-03 -0.380784D-04  0.243603D-03 -0.155889D-01
     19  0.694820D-04  0.536898D-04  0.740535D-05 -0.891988D-04  0.967817D-02
     20  0.116505D-03 -0.105464D-02  0.146572D-04  0.235031D-03  0.184452D-01
     21  0.584174D-04 -0.183487D-04  0.151974D-03  0.309899D-03  0.687166D-02
     22  0.189756D-03  0.335059D-03  0.120395D-03 -0.161683D-03 -0.949353D-02
     23 -0.329397D-04 -0.325253D-03  0.142467D-03 -0.607903D-04 -0.205154D-01
     24  0.407377D-03  0.804478D-04 -0.276839D-04 -0.156836D-03 -0.943831D-02
     25  0.582848D-03  0.383648D-04 -0.115094D-05 -0.498214D-04 -0.598480D-02
     26  0.583241D-03 -0.411205D-04 -0.730090D-04  0.131548D-03 -0.113925D-01
     27  0.609781D-03  0.589506D-04  0.269577D-05 -0.342442D-05 -0.317673D-02
     28 -0.330149D-02 -0.249521D-02 -0.260400D-02  0.182764D-02 -0.100992D+00
     29  0.870678D-04 -0.305965D-02 -0.199499D-02  0.144761D-02  0.419884D-01
     30 -0.192890D-02  0.359489D-02  0.119702D-02 -0.232960D-02  0.138939D-01
     31  0.399913D-04 -0.924810D-03 -0.318254D-03  0.548519D-03 -0.510497D-02
     32  0.115976D-04  0.103579D-02  0.698585D-03 -0.634936D-03  0.160847D-01
     33  0.156727D-03  0.279796D-04  0.135990D-03 -0.840222D-04  0.423269D-03
     34  0.108480D-02  0.166236D-03  0.443678D-03  0.495336D-03 -0.195738D-01
     35  0.300569D-03  0.379288D-03  0.689549D-03 -0.268474D-03  0.195142D-01
     36  0.258855D-02  0.670855D-04  0.516948D-03  0.913566D-03 -0.159569D-01
     37  0.137327D-02  0.416300D-03  0.841905D-04  0.623851D-03 -0.781442D-03
     38 -0.803261D-03 -0.268752D-03 -0.333986D-03 -0.122486D-03 -0.141820D-02
     39 -0.245105D-04 -0.405384D-04 -0.167045D-03 -0.991099D-04  0.529808D-03
     40 -0.983388D-02  0.106712D-01  0.227231D-01  0.841311D-02 -0.268172D-01
     41 -0.120218D-01 -0.847980D-02 -0.277410D-01 -0.946599D-02 -0.175780D-01
     42 -0.130323D-01  0.173111D-02  0.342314D-02  0.555516D-03  0.332364D-02
     43 -0.476544D-03  0.241155D-02 -0.179416D-02  0.256477D-03  0.131999D-01
     44  0.272531D-02 -0.458201D-02 -0.628249D-02 -0.170113D-02 -0.220443D-02
     45  0.391235D-02 -0.478000D-03 -0.417197D-02  0.750540D-03 -0.320427D-02
     46  0.145463D-02  0.174889D-03 -0.261628D-04 -0.785493D-04 -0.459694D-02
     47  0.839379D-03 -0.566366D-03  0.237526D-03  0.212680D-03 -0.114437D-01
     48 -0.129122D-02 -0.234216D-03  0.439416D-04 -0.166373D-03  0.486245D-02
               11            12            13            14            15
     11  0.446728D+00
     12 -0.854801D-02  0.564461D+00
     13  0.130027D-01 -0.856136D-01  0.915731D-01
     14 -0.516135D-01  0.285420D-01 -0.134364D-01  0.589044D-01
     15  0.303744D-01 -0.265194D+00  0.896011D-01 -0.304676D-01  0.289367D+00
     16 -0.304930D-01 -0.138017D-01 -0.519454D-02 -0.115099D-01 -0.345200D-02
     17 -0.138416D+00 -0.244407D-01  0.858613D-03  0.165390D-02  0.238198D-04
     18 -0.233882D-01 -0.870429D-01 -0.120676D-01 -0.280381D-01 -0.804197D-02
     19 -0.116663D-01  0.261361D-03  0.631444D-03  0.733580D-03  0.345277D-03
     20 -0.211835D-01  0.311625D-03  0.337900D-04  0.108492D-02 -0.226101D-03
     21 -0.878957D-02 -0.115962D-02  0.489727D-03  0.215072D-03  0.982567D-04
     22 -0.381152D-02  0.682600D-02 -0.348482D-04  0.345669D-03 -0.173868D-03
     23 -0.101092D-01  0.182076D-01  0.448802D-03  0.116115D-02 -0.167757D-03
     24 -0.359896D-02  0.711439D-02 -0.344723D-04  0.652254D-03  0.722335D-03
     25  0.566980D-03 -0.121298D-01 -0.400977D-03 -0.242947D-02 -0.322040D-03
     26  0.168640D-02 -0.282305D-01 -0.235732D-02 -0.507776D-02 -0.157961D-02
     27 -0.116909D-02 -0.954716D-02 -0.533512D-03 -0.192414D-02  0.805787D-03
     28  0.590744D-01  0.541957D-02 -0.950060D-02  0.918553D-02  0.544536D-03
     29 -0.116537D+00 -0.905599D-02  0.145692D-02 -0.201706D-02 -0.492175D-03
     30 -0.152518D-01 -0.908214D-01 -0.216263D-01  0.235277D-01 -0.380549D-03
     31 -0.178076D-02  0.123587D-01 -0.148921D-03  0.154812D-03 -0.166249D-04
     32  0.177271D-02 -0.200543D-01 -0.851025D-03  0.928966D-03  0.200195D-03
     33  0.305648D-02  0.168893D-02  0.128328D-03 -0.362763D-03  0.114187D-02
     34  0.314166D-02 -0.260306D-01 -0.351571D-02  0.434425D-02  0.791071D-03
     35  0.429163D-03  0.239583D-01  0.519528D-02 -0.363564D-02 -0.375431D-03
     36  0.899578D-02 -0.135877D-02 -0.486187D-03 -0.100152D-03  0.203486D-02
     37  0.128224D-02 -0.110354D-02 -0.157901D-03 -0.166769D-03  0.398644D-03
     38 -0.810243D-03  0.118818D-02 -0.205791D-03 -0.132473D-04 -0.425897D-03
     39  0.946175D-04  0.132795D-02  0.554858D-03 -0.571808D-03  0.193790D-03
     40 -0.289964D-01 -0.518703D-02  0.198400D-02  0.269099D-03 -0.105419D-02
     41 -0.280823D-01 -0.761458D-02  0.183013D-02  0.182468D-02 -0.111796D-02
     42  0.987585D-02  0.924570D-02 -0.127422D-02  0.563069D-03  0.303361D-02
     43 -0.807375D-03 -0.685356D-02 -0.286952D-03  0.625633D-03 -0.315665D-04
     44  0.422105D-02  0.154987D-02  0.120856D-03 -0.126848D-02  0.615021D-03
     45 -0.482644D-03  0.186144D-02 -0.140370D-03 -0.359227D-03 -0.494445D-04
     46 -0.309292D-02  0.455844D-02  0.609984D-03 -0.819925D-03  0.367818D-04
     47 -0.225240D-01  0.367169D-02  0.251527D-03 -0.253262D-03  0.247320D-03
     48  0.175746D-02  0.700959D-04  0.408293D-04  0.493642D-03 -0.534591D-03
               16            17            18            19            20
     16  0.551415D+00
     17 -0.411761D-01  0.474969D+00
     18 -0.165851D-01 -0.334082D-01  0.553021D+00
     19 -0.174196D+00  0.130832D+00  0.165030D-02  0.187745D+00
     20  0.130649D+00 -0.180081D+00 -0.782860D-03 -0.141698D+00  0.197669D+00
     21  0.242727D-02 -0.733214D-03 -0.475328D-01 -0.114799D-02  0.292166D-02
     22 -0.190628D+00 -0.530908D-01  0.121143D+00 -0.160050D-01 -0.643539D-02
     23 -0.526877D-01 -0.660178D-01  0.449665D-01  0.168354D-01  0.740736D-02
     24  0.121217D+00  0.457668D-01 -0.147746D+00 -0.120014D-02 -0.686303D-03
     25 -0.843212D-01  0.961960D-02 -0.915311D-01 -0.847249D-02  0.133827D-02
     26  0.101816D-01 -0.488355D-01  0.252813D-01  0.732028D-02 -0.215359D-02
     27 -0.905160D-01  0.240118D-01 -0.268387D+00  0.873036D-03  0.461615D-03
     28  0.665818D-02  0.278778D-04  0.341120D-02 -0.928753D-03 -0.276009D-02
     29  0.159478D-01 -0.336156D-01 -0.408482D-02 -0.187106D-02 -0.292182D-02
     30  0.762372D-02 -0.598459D-02  0.142932D-02 -0.165416D-02 -0.184103D-02
     31 -0.925655D-03 -0.431806D-04 -0.141449D-03  0.228486D-03  0.266383D-03
     32  0.520581D-03  0.827756D-03 -0.128201D-03 -0.147223D-03 -0.184312D-03
     33 -0.279416D-03  0.441592D-04 -0.463420D-04 -0.161252D-05 -0.382048D-04
     34  0.649986D-03 -0.265046D-02 -0.151416D-02  0.611394D-03 -0.145679D-03
     35  0.419445D-03  0.119084D-02 -0.119392D-02  0.714669D-03  0.591982D-03
     36  0.599863D-03 -0.356961D-02 -0.246945D-02  0.709934D-03 -0.197168D-03
     37  0.116606D-03  0.149640D-03  0.397446D-03 -0.986119D-04 -0.351806D-04
     38  0.478696D-03 -0.199409D-04  0.169121D-02 -0.346384D-03  0.756419D-04
     39  0.193944D-03  0.404452D-03  0.432369D-03  0.515632D-04 -0.163586D-03
     40 -0.386885D-02 -0.122104D-02  0.323357D-02  0.570575D-03 -0.759888D-03
     41 -0.796621D-02  0.180289D-02  0.523530D-02  0.656802D-03  0.133062D-02
     42  0.330077D-02  0.370614D-03 -0.133778D-02 -0.154528D-03 -0.306741D-03
     43 -0.532886D-02  0.983518D-03  0.207381D-02  0.334598D-03  0.980944D-03
     44  0.322835D-02 -0.407117D-03 -0.748644D-03 -0.387406D-03 -0.496692D-03
     45  0.544055D-03  0.133516D-03  0.301125D-04  0.300486D-04 -0.255066D-05
     46  0.347845D-02  0.116644D-02  0.240260D-03 -0.630837D-03 -0.427782D-03
     47  0.477845D-02 -0.150771D-02 -0.542311D-03 -0.425148D-03 -0.113292D-02
     48 -0.196218D-02  0.187088D-03  0.250770D-03  0.231149D-03  0.378622D-03
               21            22            23            24            25
     21  0.464786D-01
     22  0.136784D-01  0.204975D+00
     23 -0.153639D-01  0.607503D-01  0.724641D-01
     24 -0.692781D-04 -0.131808D+00 -0.474498D-01  0.157390D+00
     25 -0.208823D-01  0.101289D-01 -0.210615D-02  0.227268D-01  0.887397D-01
     26  0.220673D-01  0.406308D-02 -0.159338D-02  0.765530D-02 -0.840275D-02
     27  0.162034D-02 -0.785902D-02  0.217482D-02 -0.180982D-01  0.101896D+00
     28 -0.204205D-02 -0.159664D-04 -0.191537D-02  0.744306D-04  0.711573D-05
     29 -0.150366D-02  0.724986D-03  0.102975D-02  0.353937D-03  0.101871D-02
     30 -0.918237D-03 -0.619437D-03  0.317186D-03  0.694231D-03  0.364735D-03
     31  0.104878D-03  0.246847D-03  0.236152D-03  0.177427D-04  0.000000D+00
     32  0.284938D-03 -0.356531D-03 -0.248876D-03  0.178525D-03 -0.371815D-04
     33  0.640073D-04 -0.205423D-04 -0.281914D-03 -0.374606D-04 -0.256944D-05
     34  0.450163D-03  0.432270D-03  0.102810D-02 -0.479249D-03 -0.115718D-03
[...]
    Z6        1.70793   0.00000   0.00000   0.00025   0.00023   1.70816
    X7       -1.59426   0.00000   0.00000  -0.00032  -0.00026  -1.59452
    Y7       -1.80414   0.00000   0.00000  -0.00027  -0.00030  -1.80444
    Z7        1.67864   0.00000   0.00000   0.00059   0.00059   1.67923
    X8       -4.54475   0.00000   0.00000  -0.00027  -0.00024  -4.54499
    Y8       -0.89569   0.00000   0.00000   0.00035   0.00029  -0.89540
    Z8        2.96315   0.00000   0.00000   0.00025   0.00019   2.96335
    X9       -3.80598   0.00000   0.00000  -0.00001   0.00007  -3.80591
    Y9       -0.13040   0.00001   0.00000  -0.00005  -0.00011  -0.13051
    Z9       -0.19152   0.00000   0.00000   0.00022   0.00018  -0.19134
   X10       -3.77798  -0.00001   0.00000   0.00000  -0.00003  -3.77801
   Y10        4.34533  -0.00001   0.00000  -0.00020  -0.00026   4.34507
   Z10        2.73527   0.00000   0.00000  -0.00002  -0.00006   2.73521
   X11       -4.81156   0.00001   0.00000  -0.00024  -0.00030  -4.81186
   Y11        4.51070   0.00001   0.00000  -0.00022  -0.00029   4.51041
   Z11        4.50696   0.00000   0.00000  -0.00017  -0.00023   4.50673
   X12       -5.46515   0.00000   0.00000   0.00041   0.00042  -5.46474
   Y12        4.60066  -0.00001   0.00000  -0.00019  -0.00026   4.60040
   Z12        0.74979   0.00001   0.00000  -0.00036  -0.00043   0.74936
   X13       -4.53524   0.00000   0.00000   0.00077   0.00081  -4.53443
   Y13        4.63462   0.00000   0.00000   0.00037   0.00031   4.63492
   Z13       -0.81888   0.00000   0.00000  -0.00014  -0.00019  -0.81907
   X14        1.46878   0.00000   0.00000  -0.00005  -0.00007   1.46871
   Y14        5.27372   0.00001   0.00000   0.00002   0.00002   5.27374
   Z14        1.86399   0.00000   0.00000  -0.00001   0.00005   1.86403
   X15       -0.33811   0.00000   0.00000  -0.00013  -0.00016  -0.33827
   Y15        7.20354   0.00000   0.00000   0.00002   0.00000   7.20355
   Z15        1.45503  -0.00001   0.00000   0.00027   0.00030   1.45532
   X16       -2.16380   0.00002   0.00000   0.00013   0.00009  -2.16372
   Y16        6.29655   0.00000   0.00000  -0.00003  -0.00007   6.29649
   Z16        2.50611   0.00001   0.00000   0.00047   0.00046   2.50657
         Item               Value     Threshold  Converged?
 Maximum Force            0.000019     0.000450     YES
 RMS     Force            0.000006     0.000300     YES
 Maximum Displacement     0.000811     0.001800     YES
 RMS     Displacement     0.000288     0.001200     YES
 Predicted change in Energy=-9.578376D-09
 Optimization completed.
    -- Stationary point found.
 GradGradGradGradGradGradGradGradGradGradGradGradGradGradGradGradGradGrad


 Test job not archived.
 1\1\GINC-NODE30\Freq\UB3LYP\CBSB7\C4H9O3(2)\NYEE\26-Jul-2014\0\\# freq
  nosymm b3lyp/cbsb7 iop(7/33=1)\\Title Card Required\\0,2\C,0.222285,1
 .576922,0.50028\H,-0.064354,1.695041,-0.553466\H,1.029051,0.843542,0.5
 69184\C,-0.980978,1.165976,1.377338\H,-0.588916,1.040286,2.391935\C,-1
 .596266,-0.161886,0.903799\H,-0.843645,-0.954709,0.888298\H,-2.404977,
 -0.47398,1.568034\H,-2.014037,-0.069005,-0.101347\C,-1.99922,2.299449,
 1.447445\H,-2.546166,2.386957,2.384982\O,-2.892033,2.434565,0.396771\H
 ,-2.399945,2.452534,-0.433332\O,0.777247,2.790731,0.986379\O,-0.178922
 ,3.811951,0.769968\H,-1.145036,3.331992,1.326176\\Version=AM64L-G03Rev
 D.01\HF=-383.4488708\S2=0.755983\S2-1=0.\S2A=0.750019\RMSD=7.981e-09\R
 MSF=6.174e-06\ZeroPoint=0.1277107\Thermal=0.1352946\Dipole=-0.2954994,
 -1.2519265,-0.1259287\DipoleDeriv=0.3346487,0.1234779,0.0556423,-0.039
 8447,0.4001279,0.0687548,-0.1649043,0.0087439,0.4126671,0.0275396,-0.0
 417949,-0.094101,0.007955,0.0093026,0.0469082,0.0020744,-0.0157788,-0.
 1658053,-0.0293702,0.0736058,0.0053477,0.1044818,-0.0373418,-0.0178342
 ,-0.0178222,0.0067281,0.0698195,-0.2275435,-0.0781645,0.049368,0.11220
 14,-0.0754302,0.0057409,0.2077181,-0.0508758,0.0142777,0.0037271,-0.00
 11082,-0.0555864,-0.0212073,0.0057217,-0.0012428,-0.0413109,0.0130885,
 -0.1138212,0.1549645,0.0464966,-0.0242327,-0.0467494,0.0671091,-0.0216
 658,-0.0265996,0.0346112,0.0887539,-0.0483457,0.1102604,0.0017664,0.05
 09714,-0.0935353,-0.0051191,-0.0172312,-0.0310418,0.0749529,-0.0355071
 ,-0.0795462,0.080586,-0.0208447,0.0245961,0.0021334,0.0980488,0.038082
 6,-0.0061395,0.0322902,-0.0228866,-0.0563254,0.0144126,0.0417883,0.057
 7565,-0.0668172,-0.0069585,-0.1084588,1.0551536,0.0170697,0.0834229,0.
 3284204,0.362452,-0.1874216,0.4784901,0.0010218,0.4739151,-0.0233616,0
 .0589021,0.089402,-0.0453113,0.0668937,0.0743772,0.0380225,-0.0152841,
 -0.0566911,-0.8286946,0.0702869,-0.2588965,-0.0861638,-0.5112412,0.053
 25,-0.7202783,-0.004178,-0.5450309,0.2104322,-0.0311859,0.121229,0.064
 2077,0.3411526,-0.0455272,0.1350094,-0.0286759,0.2354434,-0.644033,-0.
 2447786,0.0647294,0.3139853,-0.2725999,-0.082757,-0.0366622,-0.0211621
 ,-0.2688996,0.4278065,0.1181388,-0.1441284,-0.3834267,-0.3815817,-0.04
 7882,-0.1123317,-0.0333846,-0.1674628,-0.4097068,-0.1187733,0.0817768,
 -0.3530877,0.0525863,0.1005287,0.2445943,0.1050635,0.0624797\Polar=71.
 5779631,3.9176067,65.0380576,-3.3371175,-0.6062534,52.7507976\PG=C01 [
 X(C4H9O3)]\NImag=1\\0.52075547,-0.11341678,0.48707896,0.05167608,-0.02
 002957,0.53579995,-0.06521806,0.01156008,-0.05568332,0.07208610,0.0159
 6115,-0.05373752,0.03972562,-0.00425053,0.05875951,-0.05778761,0.03495
 641,-0.26967169,0.06770787,-0.03117443,0.29782200,-0.19829483,0.133952
 25,-0.01785839,-0.00472811,0.00453521,-0.00003751,0.20777587,0.1243869
 9,-0.15864677,0.01076974,0.00247109,-0.00032310,0.00104482,-0.13900162
 ,0.18507018,-0.02049011,0.01584654,-0.05184912,-0.02157958,0.01959892,
 -0.00050880,0.01552847,-0.01206749,0.05107782,-0.11024831,0.00160195,0
 .02883034,0.00599932,0.00272919,-0.00336866,-0.01718503,-0.00681293,0.
 01577718,0.44006640,-0.00387750,-0.07274890,0.01570753,-0.00433472,-0.
 00010891,0.00326497,0.01635195,0.00729688,-0.01189878,-0.00455949,0.44
 672805,0.03684969,0.01288586,-0.11269703,0.02511742,0.00808029,-0.0184
 9916,-0.00233349,-0.00045146,0.00055054,0.06166227,-0.00854801,0.56446
 144,0.00619409,-0.00460947,0.02833680,-0.00384551,-0.00217074,0.003001
 14,0.00132285,0.00043211,-0.00037645,-0.07922948,0.01300269,-0.0856136
 5,0.09157306,0.00075145,-0.00224750,0.00800629,-0.00126835,0.00022463,
 0.00055269,-0.00005509,0.00034377,-0.00072895,0.01327584,-0.05161350,0
 .02854203,-0.01343638,0.05890443,-0.00454233,0.00304074,-0.02292576,0.
 00324224,0.00071356,-0.00106617,0.00007373,-0.00036253,0.00079581,-0.0
 8544075,0.03037438,-0.26519443,0.08960110,-0.03046759,0.28936661,-0.01
 074109,-0.02304115,-0.00796658,0.00156023,0.00078023,-0.00069807,0.000
 26200,-0.00011070,-0.00064518,-0.08893604,-0.03049303,-0.01380168,-0.0
 0519454,-0.01150989,-0.00345200,0.55141476,-0.01012335,-0.01322075,-0.
 00183249,0.00120187,0.00077576,-0.00045013,0.00117980,0.00090172,-0.00
 052330,-0.03771482,-0.13841646,-0.02444074,0.00085861,0.00165390,0.000
 02382,-0.04117608,0.47496868,0.00557369,0.01478683,0.00672961,-0.00013
 325,0.00039221,0.00046757,-0.00016216,-0.00003808,0.00024360,-0.015588
 90,-0.02338817,-0.08704295,-0.01206759,-0.02803807,-0.00804197,-0.0165
 8509,-0.03340821,0.55302077,0.00050623,-0.00061596,0.00002547,-0.00002
 727,0.00005680,0.00006948,0.00005369,0.00000741,-0.00008920,0.00967817
 ,-0.01166626,0.00026136,0.00063144,0.00073358,0.00034528,-0.17419628,0
 .13083238,0.00165030,0.18774466,0.00167443,-0.00006021,-0.00018052,-0.
 00007191,0.00003970,0.00011651,-0.00105464,0.00001466,0.00023503,0.018
 44515,-0.02118353,0.00031163,0.00003379,0.00108492,-0.00022610,0.13064
 947,-0.18008063,-0.00078286,-0.14169789,0.19766884,0.00023110,0.000560
 39,-0.00000095,-0.00012271,0.00005291,0.00005842,-0.00001835,0.0001519
 7,0.00030990,0.00687166,-0.00878957,-0.00115962,0.00048973,0.00021507,
 0.00009826,0.00242727,-0.00073321,-0.04753277,-0.00114799,0.00292166,0
 .04647864,0.00062934,-0.00149924,-0.00197292,0.00004652,0.00002738,0.0
 0018976,0.00033506,0.00012040,-0.00016168,-0.00949353,-0.00381152,0.00
 682600,-0.00003485,0.00034567,-0.00017387,-0.19062772,-0.05309081,0.12
 114342,-0.01600500,-0.00643539,0.01367839,0.20497549,0.00033267,-0.003
 45687,-0.00316928,0.00029859,0.00001660,-0.00003294,-0.00032525,0.0001
 4247,-0.00006079,-0.02051535,-0.01010924,0.01820764,0.00044880,0.00116
 115,-0.00016776,-0.05268765,-0.06601783,0.04496647,0.01683542,0.007407
 36,-0.01536386,0.06075027,0.07246412,-0.00024386,-0.00155349,-0.000504
 85,-0.00017622,-0.00016245,0.00040738,0.00008045,-0.00002768,-0.000156
 84,-0.00943831,-0.00359896,0.00711439,-0.00003447,0.00065225,0.0007223
 4,0.12121658,0.04576684,-0.14774596,-0.00120014,-0.00068630,-0.0000692
 8,-0.13180780,-0.04744984,0.15738954,0.00013884,0.00066709,-0.00176345
 ,-0.00007444,-0.00040811,0.00058285,0.00003836,-0.00000115,-0.00004982
 ,-0.00598480,0.00056698,-0.01212982,-0.00040098,-0.00242947,-0.0003220
 4,-0.08432118,0.00961960,-0.09153109,-0.00847249,0.00133827,-0.0208822
 6,0.01012894,-0.00210615,0.02272680,0.08873967,0.00097072,0.00143303,-
 0.00103408,-0.00011349,-0.00007144,0.00058324,-0.00004112,-0.00007301,
 0.00013155,-0.01139247,0.00168640,-0.02823046,-0.00235732,-0.00507776,
 -0.00157961,0.01018164,-0.04883554,0.02528126,0.00732028,-0.00215359,0
 .02206733,0.00406308,-0.00159338,0.00765530,-0.00840275,0.05408725,0.0
 0088016,0.00052394,0.00038866,-0.00054552,-0.00025501,0.00060978,0.000
 05895,0.00000270,-0.00000342,-0.00317673,-0.00116909,-0.00954716,-0.00
 053351,-0.00192414,0.00080579,-0.09051598,0.02401181,-0.26838690,0.000
 87304,0.00046161,0.00162034,-0.00785902,0.00217482,-0.01809823,0.10189
 633,-0.02570590,0.29163187,-0.02728273,0.02134241,0.01534823,0.0010605
 2,-0.00028337,-0.00330149,-0.00249521,-0.00260400,0.00182764,-0.100992
 24,0.05907444,0.00541957,-0.00950060,0.00918553,0.00054454,0.00665818,
 0.00002788,0.00341120,-0.00092875,-0.00276009,-0.00204205,-0.00001597,
 -0.00191537,0.00007443,0.00000712,-0.00141539,-0.00239053,0.43064283,0
 .01145063,0.01907186,-0.00386774,-0.00124509,-0.00058608,0.00008707,-0
 .00305965,-0.00199499,0.00144761,0.04198837,-0.11653719,-0.00905599,0.
 00145692,-0.00201706,-0.00049218,0.01594785,-0.03361556,-0.00408482,-0
 .00187106,-0.00292182,-0.00150366,0.00072499,0.00102975,0.00035394,0.0
 0101871,0.00170887,0.00081829,-0.11015119,0.25579697,0.01713118,-0.017
 26025,0.00225511,0.00003301,-0.00034813,-0.00192890,0.00359489,0.00119
 702,-0.00232960,0.01389394,-0.01525184,-0.09082138,-0.02162634,0.02352
 766,-0.00038055,0.00762372,-0.00598459,0.00142932,-0.00165416,-0.00184
 103,-0.00091824,-0.00061944,0.00031719,0.00069423,0.00036473,-0.001568
 59,-0.00163123,-0.05895913,0.01801933,0.60086945,-0.00219734,0.0029125
 1,0.00011849,0.00030590,0.00000452,0.00003999,-0.00092481,-0.00031825,
 0.00054852,-0.00510497,-0.00178076,0.01235867,-0.00014892,0.00015481,-
 0.00001662,-0.00092566,-0.00004318,-0.00014145,0.00022849,0.00026638,0
 .00010488,0.00024685,0.00023615,0.00001774,-0.00000076,0.00005363,0.00
 000477,-0.12627153,0.02122620,0.13450291,0.12746862,0.00001951,-0.0066
 5916,0.00018340,0.00036247,0.00014299,0.00001160,0.00103579,0.00069859
 ,-0.00063494,0.01608467,0.00177271,-0.02005428,-0.00085102,0.00092897,
 0.00020020,0.00052058,0.00082776,-0.00012820,-0.00014722,-0.00018431,0
 .00028494,-0.00035653,-0.00024888,0.00017853,-0.00003718,0.00004339,-0
 .00009546,0.01412695,-0.03807042,-0.01168455,-0.02301048,0.03696024,-0
 .00081940,-0.00081738,0.00108784,-0.00010251,-0.00000415,0.00015673,0.
 00002798,0.00013599,-0.00008402,0.00042327,0.00305648,0.00168893,0.000
 12833,-0.00036276,0.00114187,-0.00027942,0.00004416,-0.00004634,-0.000
 00161,-0.00003820,0.00006401,-0.00002054,-0.00028191,-0.00003746,-0.00
 000257,0.00015124,0.00006927,0.11653949,-0.02207219,-0.24204793,-0.121
 28380,0.01771847,0.27311975,0.00179931,-0.00316126,-0.00459786,-0.0001
 8657,0.00001634,0.00108480,0.00016624,0.00044368,0.00049534,-0.0195738
 3,0.00314166,-0.02603063,-0.00351571,0.00434425,0.00079107,0.00064999,
 -0.00265046,-0.00151416,0.00061139,-0.00014568,0.00045016,0.00043227,0
 .00102810,-0.00047925,-0.00011572,0.00066904,0.00124866,-0.16155905,0.
 03131962,-0.07006933,0.01259543,-0.00087692,0.00770995,0.36521832,-0.0
 0082579,-0.00427336,-0.00106307,0.00013763,0.00021476,0.00030057,0.000
 37929,0.00068955,-0.00026847,0.01951419,0.00042916,0.02395833,0.005195
 28,-0.00363564,-0.00037543,0.00041944,0.00119084,-0.00119392,0.0007146
 7,0.00059198,0.00126197,-0.00012101,0.00014721,-0.00000945,0.00036694,
 0.00020404,0.00213276,0.02002956,-0.04351521,0.00179564,-0.00086679,0.
 00095563,0.00181671,-0.03063152,0.05279110,0.00090077,-0.00191075,-0.0
 0665889,-0.00056506,-0.00031356,0.00258855,0.00006709,0.00051695,0.000
 91357,-0.01595693,0.00899578,-0.00135877,-0.00048619,-0.00010015,0.002
 03486,0.00059986,-0.00356961,-0.00246945,0.00070993,-0.00019717,0.0011
 1300,0.00046238,0.00059507,-0.00015331,0.00041678,0.00153690,0.0021557
 8,-0.09533095,0.01890430,-0.20393147,-0.02747636,0.00271735,-0.0319616
 6,-0.08320772,-0.03053647,0.60873318,-0.00018686,-0.00035818,-0.002893
 52,-0.00097997,0.00002750,0.00137327,0.00041630,0.00008419,0.00062385,
 -0.00078144,0.00128224,-0.00110354,-0.00015790,-0.00016677,0.00039864,
 0.00011661,0.00014964,0.00039745,-0.00009861,-0.00003518,-0.00012610,-
 0.00001721,-0.00013925,0.00005573,0.00029303,0.00014048,-0.00018066,0.
 01457864,0.00002998,-0.03054772,-0.00173873,0.00055589,-0.00374853,-0.
 17619457,-0.00126183,0.23274027,0.16424608,0.00091100,0.00242062,0.001
 46011,0.00020958,0.00023350,-0.00080326,-0.00026875,-0.00033399,-0.000
 12249,-0.00141820,-0.00081024,0.00118818,-0.00020579,-0.00001325,-0.00
 042590,0.00047870,-0.00001994,0.00169121,-0.00034638,0.00007564,-0.000
 69840,-0.00008685,0.00004667,-0.00027263,-0.00001798,-0.00153717,-0.00
 087345,-0.00274068,-0.00127220,0.00197435,0.00043764,0.00233932,-0.000
 17377,0.00201558,-0.00710898,0.00887795,-0.00054733,0.00594467,-0.0007
 7042,0.00104035,0.00168066,-0.00035691,0.00003406,-0.00002451,-0.00004
 054,-0.00016704,-0.00009911,0.00052981,0.00009462,0.00132795,0.0005548
 6,-0.00057181,0.00019379,0.00019394,0.00040445,0.00043237,0.00005156,-
 0.00016359,-0.00001073,-0.00009424,-0.00010201,-0.00000018,0.00000390,
 0.00029115,0.00017501,0.01493041,-0.00259327,-0.03583401,-0.00542155,0
 .00094726,-0.00258683,0.18637026,0.01101043,-0.36989656,-0.19771169,-0
 .01076326,0.40552503,-0.11059608,-0.03371450,-0.04083216,-0.00748750,-
 0.01442830,-0.00983388,0.01067118,0.02272312,0.00841311,-0.02681718,-0
 .02899639,-0.00518703,0.00198400,0.00026910,-0.00105419,-0.00386885,-0
 .00122104,0.00323357,0.00057057,-0.00075989,-0.00027515,-0.00035138,-0
 .00139703,-0.00040913,0.00007378,0.00039827,0.00029619,0.01751626,0.01
 145684,0.00388978,0.00068209,-0.00193179,-0.00013763,-0.00641317,-0.00
 343224,-0.00721329,-0.00058163,0.00109041,0.00110477,0.29279998,-0.068
 18453,-0.13546775,-0.04091361,-0.00654943,-0.01206899,-0.01202181,-0.0
 0847980,-0.02774099,-0.00946599,-0.01757798,-0.02808229,-0.00761458,0.
 00183013,0.00182468,-0.00111796,-0.00796621,0.00180289,0.00523530,0.00
 065680,0.00133062,0.00040901,-0.00104029,-0.00252083,-0.00118140,0.000
 19020,-0.00035965,-0.00028304,-0.01680697,-0.02643122,-0.00906026,0.00
 092556,0.00431732,0.00066430,0.00609129,0.00514059,0.00845059,0.000633
 64,-0.00259488,-0.00117794,-0.01153634,0.34390687,-0.04341628,-0.03387
 349,-0.09029440,-0.02059584,-0.03680172,-0.01303232,0.00173111,0.00342
 314,0.00055552,0.00332364,0.00987585,0.00924570,-0.00127422,0.00056307
 ,0.00303361,0.00330077,0.00037061,-0.00133778,-0.00015453,-0.00030674,
 -0.00024842,0.00055843,0.00071351,0.00047095,0.00068354,0.00038949,0.0
 0030716,-0.00045821,0.00092697,0.00281954,-0.00017206,-0.00039013,0.00
 016730,0.00084061,0.00017428,0.00113572,0.00093915,-0.00009082,-0.0005
 8155,0.08221422,0.04284770,0.11983637,-0.00221005,0.01325900,0.0141644
 9,0.00109962,-0.00336131,-0.00047654,0.00241155,-0.00179416,0.00025648
 ,0.01319990,-0.00080738,-0.00685356,-0.00028695,0.00062563,-0.00003157
 ,-0.00532886,0.00098352,0.00207381,0.00033460,0.00098094,0.00053443,-0
 .00037238,-0.00121949,-0.00046859,0.00025504,-0.00034332,-0.00025064,-
 0.08634982,-0.09431952,0.00719648,-0.00072844,0.00395455,0.00117030,0.
 01424762,0.00958228,0.01501231,0.00172569,-0.00145553,-0.00199824,-0.1
 2023690,0.09423681,-0.03214851,0.12178692,0.03676733,-0.05556389,0.002
 19459,0.00129184,0.00628656,0.00272531,-0.00458201,-0.00628249,-0.0017
 0113,-0.00220443,0.00422105,0.00154987,0.00012086,-0.00126848,0.000615
 02,0.00322835,-0.00040712,-0.00074864,-0.00038741,-0.00049669,-0.00031
 850,0.00018109,0.00083023,0.00012419,-0.00018096,0.00021768,0.00001403
 ,-0.02273855,-0.01897316,0.01767946,-0.00193740,-0.00323199,0.00069699
 ,-0.00263505,0.00024828,-0.00581844,0.00048150,0.00061996,0.00038660,0
 .05874417,-0.14161506,0.02214838,-0.07106293,0.24600057,0.01251575,-0.
 00960325,0.00335316,0.00385345,0.00091736,0.00391235,-0.00047800,-0.00
 417197,0.00075054,-0.00320427,-0.00048264,0.00186144,-0.00014037,-0.00
 035923,-0.00004944,0.00054405,0.00013352,0.00003011,0.00003005,-0.0000
 0255,-0.00000475,0.00001178,-0.00005947,-0.00001791,-0.00001306,0.0001
 3342,0.00002718,0.03534267,0.03742593,-0.00685485,-0.00001989,-0.00020
 667,-0.00023370,-0.00255380,-0.00341358,0.00076889,0.00082221,0.001275
 32,0.00123200,-0.04010452,0.04008464,-0.03721330,0.02117543,-0.0547323
 2,0.04859858,-0.00304794,-0.00487876,-0.00493170,0.00038923,0.00076404
 ,0.00145463,0.00017489,-0.00002616,-0.00007855,-0.00459694,-0.00309292
 ,0.00455844,0.00060998,-0.00081992,0.00003678,0.00347845,0.00116644,0.
 00024026,-0.00063084,-0.00042778,-0.00017301,0.00012357,0.00037556,0.0
 0008604,-0.00030440,0.00026872,0.00019450,0.04493234,0.07402640,-0.004
 75455,-0.00348621,-0.00944927,0.00039669,-0.02816196,-0.01920010,-0.02
 067289,-0.00063943,0.00194459,0.00265407,-0.04794519,0.03357712,0.0046
 2817,0.06045245,0.00491360,-0.02778149,-0.02134801,0.00320207,-0.00392
 180,-0.00595692,0.00030037,0.00020203,0.00083938,-0.00056637,0.0002375
 3,0.00021268,-0.01144370,-0.02252400,0.00367169,0.00025153,-0.00025326
 ,0.00024732,0.00477845,-0.00150771,-0.00054231,-0.00042515,-0.00113292
 ,-0.00051804,0.00022877,0.00070147,0.00021114,-0.00018405,0.00032089,0
 .00016614,0.03762884,0.00832747,-0.00151142,0.00173944,-0.00059216,-0.
 00053396,-0.00896866,-0.00406995,-0.00814874,-0.00087652,0.00201027,0.
 00133001,0.00273563,0.01855869,-0.00997009,0.05074091,-0.03058545,-0.0
 0693852,-0.07914157,0.03422892,0.00231160,0.00140713,0.00330772,-0.000
 09306,-0.00045547,-0.00129122,-0.00023422,0.00004394,-0.00016637,0.004
 86245,0.00175746,0.00007010,0.00004083,0.00049364,-0.00053459,-0.00196
 218,0.00018709,0.00025077,0.00023115,0.00037862,0.00020220,-0.00016065
 ,-0.00028684,-0.00001480,0.00001916,-0.00010226,-0.00012389,-0.0309558
 3,-0.03431358,-0.02138949,0.00683576,0.01095247,-0.00049775,-0.0105380
 9,-0.00559028,-0.00301343,-0.00103880,-0.00224315,-0.00153332,0.005895
 34,-0.01485497,0.00513590,-0.01935609,0.01518458,-0.01616030,0.0441426
 1,0.02744164,0.03575850\\0.00000810,-0.00000615,0.00000052,0.00000443,
 -0.00000317,0.00000527,0.00000108,-0.00000029,0.00000948,0.00000073,0.
 00000702,0.00000361,-0.00000942,-0.00000080,0.00000253,0.00000081,-0.0
 0000022,0.00000297,0.00000053,0.00000185,-0.00000408,-0.00000002,-0.00
 000040,-0.00000339,0.00000431,-0.00000720,-0.00000280,0.00000729,0.000
 01495,-0.00000353,-0.00000755,-0.00000527,-0.00000454,0.00000297,0.000
 00915,-0.00000730,0.00000215,-0.00000107,-0.00000080,-0.00000013,-0.00
 000845,0.00000344,0.00000419,0.00000493,0.00000990,-0.00001946,-0.0000
 0488,-0.00001127\\\@


 NATURE REVEALS EVERY SECRET ONCE.
                    - RALPH WALDO EMERSON
 Job cpu time:  0 days  1 hours 10 minutes  1.4 seconds.
 File lengths (MBytes):  RWF=    125 Int=      0 D2E=      0 Chk=      8 Scr=      1
 Normal termination of Gaussian 03 at Sat Jul 26 00:03:37 2014.
