
 Primary working directories    : /scratch/goldmanm/molpro_scratch
 Secondary working directories  : /scratch/goldmanm/molpro_scratch
 Wavefunction directory         : /home/goldmanm/wfu/
 Main file repository           : /scratch/goldmanm/molpro_scratch/

 SHA1      : 5e3d8ac6839c721e2824de82269b4736200146bd
 NAME      : 2015.1.37
 ARCHNAME  : linux/x86_64
 FC        : /opt/intel/composer_xe_2015.1.133/bin/intel64/ifort
 BLASLIB   : -Wl,-_start-group /opt/intel/mkl/lib/intel64/libmkl_intel_ilp64.a /opt/intel/mkl/lib/intel64/libmkl_intel_thread.a /opt/intel/mkl/lib/intel64/libmkl_core.a -Wl,-_end-group
 id        : phalgunlolur

 Nodes     nprocs
 node04       1

 Using customized tuning parameters: mindgm=1; mindgv=20; mindgc=4; mindgr=1; noblas=0; minvec=7
 default implementation of scratch files=df  

 geomtyp=xyz
 geometry={
 16
 C         -3.59116        1.27422        0.24060
 H         -3.23480        1.51050        1.25270
 H         -3.12411        1.97819       -0.45427
 O         -4.98792        1.46382        0.12143
 H         -5.41188        0.77259        0.64644
 C         -3.12066       -0.15394       -0.08894
 C         -1.60133       -0.24421       -0.14971
 H         -1.29202       -1.28486       -0.25750
 H         -1.22135        0.32661       -1.00036
 H         -1.15195        0.15789        0.76219
 C         -3.83708       -0.71514       -1.32452
 H         -4.29705       -0.00857       -2.00816
 H         -3.37237       -1.57947       -1.79638
 H         -4.79342       -1.22024       -0.49108
 O         -3.52705       -1.07265        0.97110
 O         -4.90743       -1.31658        0.71043
 }
 
 memory,1900,M
 basis = vtz-f12
 hf
 uccsd(t)-f12,scale_trip=1

 Variables initialized (889), CPU time= 0.01 sec
 Commands  initialized (702), CPU time= 0.01 sec, 572 directives.
 Default parameters read. Elapsed time= 0.10 sec

 Checking input...
 Passed
1


                                         ***  PROGRAM SYSTEM MOLPRO  ***
                                       Copyright, TTI GmbH Stuttgart, 2015
                                    Version 2015.1 linked Aug 10 2018 15:00:15


 **********************************************************************************************************************************
 LABEL *                                                                                 
  64 bit serial version                                                                  DATE: 30-Jul-19          TIME: 00:21:02  
 **********************************************************************************************************************************

 SHA1:             5e3d8ac6839c721e2824de82269b4736200146bd
 **********************************************************************************************************************************
 SETTING GEOMTYP        =    XYZ

 Variable memory set to 1900000000 words,  buffer space   230000 words

 SETTING BASIS          =    VTZ-F12


 Recomputing integrals since basis changed


 Using spherical harmonics

 Library entry C      S cc-pVTZ-F12          selected for orbital group  1
 Library entry C      P cc-pVTZ-F12          selected for orbital group  1
 Library entry C      D cc-pVTZ-F12          selected for orbital group  1
 Library entry C      F cc-pVTZ-F12          selected for orbital group  1
 Library entry H      S cc-pVTZ-F12          selected for orbital group  2
 Library entry H      P cc-pVTZ-F12          selected for orbital group  2
 Library entry H      D cc-pVTZ-F12          selected for orbital group  2
 Library entry O      S cc-pVTZ-F12          selected for orbital group  3
 Library entry O      P cc-pVTZ-F12          selected for orbital group  3
 Library entry O      D cc-pVTZ-F12          selected for orbital group  3
 Library entry O      F cc-pVTZ-F12          selected for orbital group  3


 PROGRAM * SEWARD (Integral evaluation for generally contracted gaussian basis sets)     Author: Roland Lindh, 1990

 Geometry written to block  1 of record 700


 Point group  C1  



 ATOMIC COORDINATES

 NR  ATOM    CHARGE       X              Y              Z

   1  C       6.00   -6.786308869    2.407926822    0.454668106
   2  H       1.00   -6.112886068    2.854431311    2.367259916
   3  H       1.00   -5.903712283    3.738237322   -0.858445887
   4  O       8.00   -9.425802731    2.766218896    0.229469443
   5  H       1.00  -10.226971019    1.459983507    1.221594556
   6  C       6.00   -5.897192728   -0.290904440   -0.168072242
   7  C       6.00   -3.026075135   -0.461490017   -0.282910898
   8  H       1.00   -2.441563947   -2.428033508   -0.486604477
   9  H       1.00   -2.308017002    0.617203450   -1.890406426
  10  H       1.00   -2.176870009    0.298368858    1.440330355
  11  C       6.00   -7.251030318   -1.351418741   -2.502980047
  12  H       1.00   -8.120247644   -0.016194953   -3.794872414
  13  H       1.00   -6.372855691   -2.984765722   -3.394666216
  14  H       1.00   -9.058251000   -2.305919406   -0.928006705
  15  O       8.00   -6.665158528   -2.027014728    1.835113040
  16  O       8.00   -9.273698675   -2.487975621    1.342518131

 Bond lengths in Bohr (Angstrom)

 1-2  2.076263943  1-3  2.067116619  1-4  2.673203227  1-6  2.908955695  4-5  1.825495482
     ( 1.098711563)     ( 1.093871007)     ( 1.414598228)     ( 1.539353061)     ( 0.966010608)

  6- 7  2.878472440   6-11  2.899889871   6-15  2.759819137   7- 8  2.061658970   7- 9  2.064758811
       ( 1.523222018)       ( 1.534555634)       ( 1.460433394)       ( 1.090982943)       ( 1.092623309)

  7-10  2.065936899  11-12  2.051181906  11-13  2.057697077  11-14  2.580244008  14-16  2.287978408
       ( 1.093246726)       ( 1.085438720)       ( 1.088886400)       ( 1.365406328)       ( 1.210746033)

 15-16  2.694367531
       ( 1.425797895)

 Bond angles

  1- 4- 5  106.95689944   1- 6- 7  111.61632468   1- 6-11  111.65188482   1- 6-15  110.07133479

  2-1-3  107.95560749   2-1-4  111.65593273   2-1-6  107.31256402   3-1-4  106.36853024

  3-1-6  109.30394540   4-1-6  114.08607459   6-7-8  110.07565975   6-7-9  110.30269253

  6- 7-10  110.78889472   6-11-12  117.83314076   6-11-13  116.10137103   6-11-14   88.32683354

  6-15-16  104.14192336   7- 6-11  114.32234206   7- 6-15  105.61865980   8- 7- 9  108.83296525

  8- 7-10  108.46392571   9- 7-10  108.31816125  11- 6-15  102.97105502  11-14-16  134.51772842

 12-11-13  115.12732489  12-11-14  109.17429415  13-11-14  105.65170523  14-16-15   94.39606576

 NUCLEAR CHARGE:                   57
 NUMBER OF PRIMITIVE AOS:         693
 NUMBER OF SYMMETRY AOS:          621
 NUMBER OF CONTRACTIONS:          533   ( 533A   )
 NUMBER OF CORE ORBITALS:           7   (   7A   )
 NUMBER OF VALENCE ORBITALS:       37   (  37A   )


 NUCLEAR REPULSION ENERGY  343.18557609


 Eigenvalues of metric

         1 0.139E-04 0.267E-04 0.399E-04 0.552E-04 0.770E-04 0.962E-04 0.109E-03 0.113E-03


 Contracted 2-electron integrals neglected if value below      1.0D-12
 AO integral compression algorithm  1   Integral accuracy      1.0D-12

     39715.865 MB (compressed) written to integral file ( 45.6%)


 NUMBER OF SORTED TWO-ELECTRON INTEGRALS:10126281516.     BUFFER LENGTH:  32768
 NUMBER OF SEGMENTS: 159  SEGMENT LENGTH:   63999810      RECORD LENGTH: 262144

 Memory used in sort:      64.29 MW

 SORT1 READ 10882449116. AND WROTE  9209989624. INTEGRALS IN  52782 RECORDS. CPU TIME:   191.24 SEC, REAL TIME:   432.04 SEC
 SORT2 READ  9209989624. AND WROTE 10126281516. INTEGRALS IN 151504 RECORDS. CPU TIME:   152.97 SEC, REAL TIME:   909.66 SEC

 FILE SIZES:   FILE 1: 39746.4 MBYTE,  FILE 4:110691.9 MBYTE,   TOTAL: 150438.3 MBYTE

 OPERATOR DM      FOR CENTER  0  COORDINATES:    0.000000    0.000000    0.000000


 **********************************************************************************************************************************
 DATASETS  * FILE   NREC   LENGTH (MB)   RECORD NAMES
              1      19    37234.35       500      610      700      900      950      970     1000      129      960     1100   
                                          VAR    BASINP    GEOM    SYMINP    ZMAT    AOBASIS   BASIS     P2S    ABASIS      S 
                                         1400     1410     1200     1210     1080     1600     1650     1300     1700   
                                           T        V       H0       H01     AOSYM     SMH    MOLCAS    ERIS     OPER   

 PROGRAMS   *        TOTAL       INT
 CPU TIMES  *       843.52    843.38
 REAL TIME  *      1878.12 SEC
 DISK USED  *       150.44 GB      
 **********************************************************************************************************************************


 PROGRAM * RHF-SCF (OPEN SHELL)       Authors: W. Meyer, H.-J. Werner


 NUMBER OF ELECTRONS:      29+   28-    SPACE SYMMETRY=1    SPIN SYMMETRY: Doublet 
 CONVERGENCE THRESHOLDS:    1.00E-05 (Density)    1.14E-07 (Energy)
 MAX. NUMBER OF ITERATIONS:       60
 INTERPOLATION TYPE:            DIIS
 INTERPOLATION STEPS:              2 (START)      1 (STEP)
 LEVEL SHIFTS:                 -0.60 (CLOSED) -0.30 (OPEN) 



 Orbital guess generated from atomic densities. Full valence occupancy:   44

 Molecular orbital dump at record        2100.2

 Initial alpha occupancy:  29
 Initial beta  occupancy:  28
 Wave function symmetry:    1

 ITERATION    DDIFF          GRAD             ENERGY        2-EL.EN.            DIPOLE MOMENTS         DIIS   ORB.
    1      0.000D+00      0.000D+00      -381.12289866    956.268859    1.16731   -0.00674   -0.85385    0    start
    2      0.000D+00      0.254D-02      -381.20925736    956.846015    1.00353    0.13913   -0.94566    1    diag,B
    3      0.178D-02      0.858D-03      -381.22553636    956.900550    0.97631    0.12406   -0.90902    2    diag,B
    4      0.603D-03      0.405D-03      -381.23319223    956.892012    0.94141    0.13339   -0.92620    3    diag,B
    5      0.476D-03      0.152D-03      -381.23528776    956.937594    0.94298    0.13388   -0.94692    4    diag,B
    6      0.218D-03      0.820D-04      -381.23637932    956.943283    0.94768    0.13374   -0.97092    5    diag,B
    7      0.151D-03      0.559D-04      -381.23714584    956.969195    0.95537    0.13319   -0.99542    6    fixocc
    8      0.136D-03      0.401D-04      -381.23758321    956.995567    0.95918    0.13253   -1.01686    7    diag,B
    9      0.114D-03      0.263D-04      -381.23778630    957.020729    0.96281    0.13267   -1.03678    8    diag,B
   10      0.957D-04      0.154D-04      -381.23783880    957.035874    0.96380    0.13328   -1.04925    9    orth
   11      0.552D-04      0.825D-05      -381.23785103    957.038877    0.96418    0.13366   -1.05392    9    diag,B
   12      0.242D-04      0.496D-05      -381.23785579    957.042861    0.96438    0.13406   -1.05662    9    diag,B
   13      0.135D-04      0.347D-05      -381.23785819    957.044303    0.96460    0.13419   -1.05851    9    diag,B
   14      0.111D-04      0.197D-05      -381.23785909    957.046332    0.96483    0.13447   -1.06005    9    diag,B
   15      0.800D-05      0.101D-05      -381.23785927    957.047197    0.96492    0.13455   -1.06079    9    diag,B
   16      0.425D-05      0.411D-06      -381.23785930    957.047293    0.96494    0.13459   -1.06096    9    diag,B
   17      0.217D-05      0.177D-06      -381.23785930    957.047337    0.96494    0.13459   -1.06100    0    orth

 Final alpha occupancy:  29
 Final beta  occupancy:  28

 !RHF STATE 1.1 Energy               -381.237859302987
 Nuclear energy                       343.18557609
 One-electron energy                -1202.94710371
 Two-electron energy                  478.52366832
 Virial quotient                       -1.00126692
 !RHF STATE 1.1 Dipole moment           0.96494434     0.13458740    -1.06100353
 Dipole moment /Debye                   2.45248325     0.34206465    -2.69662534

 Orbital energies:

         1.1          2.1          3.1          4.1          5.1          6.1          7.1          8.1          9.1         10.1
    -20.617436   -20.613902   -20.556909   -11.317832   -11.286803   -11.279941   -11.240527    -1.470369    -1.364280    -1.187815

        11.1         12.1         13.1         14.1         15.1         16.1         17.1         18.1         19.1         20.1
     -1.069167    -0.963182    -0.937329    -0.791720    -0.713134    -0.687372    -0.662829    -0.637788    -0.624293    -0.595440

        21.1         22.1         23.1         24.1         25.1         26.1         27.1         28.1         29.1         30.1
     -0.577640    -0.568938    -0.562776    -0.519441    -0.509262    -0.500816    -0.460059    -0.417663    -0.430459     0.034256

        31.1
      0.044324

 HOMO     29.1    -0.430459 =     -11.7134eV
 LUMO     30.1     0.034256 =       0.9322eV
 LUMO-HOMO         0.464715 =      12.6455eV


 **********************************************************************************************************************************
 DATASETS  * FILE   NREC   LENGTH (MB)   RECORD NAMES
              1      19    37234.35       500      610      700      900      950      970     1000      129      960     1100   
                                          VAR    BASINP    GEOM    SYMINP    ZMAT    AOBASIS   BASIS     P2S    ABASIS      S 
                                         1400     1410     1200     1210     1080     1600     1650     1300     1700   
                                           T        V       H0       H01     AOSYM     SMH    MOLCAS    ERIS     OPER   

              2       4       11.06       700     1000      520     2100   
                                         GEOM     BASIS   MCVARS     RHF  

 PROGRAMS   *        TOTAL        HF       INT
 CPU TIMES  *      3616.39   2772.87    843.38
 REAL TIME  *      4912.93 SEC
 DISK USED  *       150.44 GB      
 **********************************************************************************************************************************


 PROGRAM * CCSD (Unrestricted open-shell coupled cluster)     Authors: C. Hampel, H.-J. Werner, 1991, M. Deegan, P.J. Knowles, 1992

                           UCCSD-F12 implementation by G. Knizia and H.-J. Werner, 2008

                   Density fitting integral evaluation by F.R. Manby, 2003,2007, G. Knizia, 2010

 Basis set CC-PVTZ/JKFIT generated.      Number of basis functions:   823 
 Basis set CC-PVTZ-F12/OPTRI generated.  Number of basis functions:   894 
 Basis set AUG-CC-PVTZ/MP2FIT generated. Number of basis functions:   1156 

 Convergence thresholds:  THRVAR = 1.00D-08  THRDEN = 1.14D-06

 CCSD(T)     terms to be evaluated (factor= 1.000)


 Number of core orbitals:           7 (   7 )
 Number of closed-shell orbitals:  21 (  21 )
 Number of active  orbitals:        1 (   1 )
 Number of external orbitals:     504 ( 504 )

 For full I/O caching in triples, increase memory by 2352.23 Mwords to 4252.51 Mwords.

 Number of N-1 electron functions:              43
 Number of N-2 electron functions:             903
 Number of singly external CSFs:             21715
 Number of doubly external CSFs:         173943210
 Total number of CSFs:                   173964925

 Molecular orbitals read from record     2100.2  Type=RHF/CANONICAL (state 1.1)

 Integral transformation finished. Total CPU:1703.95 sec, npass=  1  Memory used:1866.44 MW
 
 Geminal basis:    OPTFULL  GEM_TYPE=SLATER  BETA=1.0  NGEM=6

 Optimizing Gaussian exponents for each gem_beta

 Geminal optimization for beta= 1.0000
 Weight function:   m=0, omega= 1.4646

 Augmented Hessian optimization of geminal fit. Trust ratio= 0.40000
 Convergence reached after   2 iterations. Final gradient= 8.17D-16, Step= 4.34D-06, Delta= 1.28D-09
 
 Alpha:                 0.19532     0.81920     2.85917     9.50073    35.69989   197.79328
 Coeff:                 0.27070     0.30552     0.18297     0.10986     0.06810     0.04224
 
 
 WFN_F12=FIX,EG    DECOUPLE_EXPL=F   HYBRID=0    NOX=F   SEMIINT_F12=T   CORE_SINGLES=F
 
 AO(A)-basis ORBITAL           loaded. Number of functions:     533
 RI(R)-basis CC-PVTZ-F12/OPTRI loaded. Number of functions:     894
 DF-basis CC-PVTZ/JKFIT        loaded. Number of functions:     823

 Screening thresholds:   THRAO=  1.00D-10  THRMO=  1.00D-09  THRPROD=  1.00D-09
                         THRSW=  1.00D-05  THROV=  1.00D-12  THRAOF12=   1.00D-08

 CPU time for one-electron matrices              77.32 sec
 
 Construction of ABS:
 Pseudo-inverse stability          3.64E-11
 Smallest eigenvalue of S          3.88E-05  (threshold= 1.00E-08)
 Ratio eigmin/eigmax               3.60E-06  (threshold= 1.00E-09)
 Smallest eigenvalue of S kept     3.88E-05  (threshold= 3.88E-05, 0 functions deleted, 894 kept)
 
 Construction of CABS:
 Pseudo-inverse stability          1.24E-09
 Smallest eigenvalue of S          1.17E-07  (threshold= 1.00E-08)
 Ratio eigmin/eigmax               1.17E-07  (threshold= 1.00E-09)
 Smallest eigenvalue of S kept     1.17E-07  (threshold= 1.17E-07, 0 functions deleted, 894 kept)
 
 CPU time for basis constructions                 1.83 sec
 Fock operators(MO) rebuilt from dump record.
 CPU time for fock operators                      5.13 sec
 
                                      TOTAL          ALPHA          BETA    
  Singles Contributions MO        -0.005446585   -0.002719034   -0.002727550
  Singles Contributions CABS      -0.003623033   -0.001885941   -0.001737092
  Pure DF-RHF relaxation          -0.003616208
 
 CPU time for singles                             9.08 sec
 
 AO(A)-basis ORBITAL           loaded. Number of functions:     533
 RI(R)-basis CC-PVTZ-F12/OPTRI loaded. Number of functions:     894
 DF-basis AUG-CC-PVTZ/MP2FIT   loaded. Number of functions:    1156

 Screening thresholds:   THRAO=  1.00D-10  THRMO=  1.00D-09  THRPROD=  1.00D-09
                         THRSW=  1.00D-05  THROV=  1.00D-12  THRAOF12=   1.00D-08

 CPU time for transformed integrals            2526.52 sec
 CPU time for F12 matrices                      157.27 sec

 Diagonal F12 ansatz with fixed amplitudes:   TS= 0.5000  TT= 0.2500  TN= 0.3750
 
 ITER.     SQ.NORM      CORR.ENERGY   TOTAL ENERGY  ENERGY CHANGE      VAR         CPU   MICRO    DIIS
   1      1.41112595    -1.60408731  -382.84556282    -1.6077E+00   4.07E-01      4.05  1  1  1   0  0
   2      1.41074444    -1.60319936  -382.84467487     8.8795E-04   1.04E-04     62.03  0  0  0   1  1
   3      1.41098932    -1.60344700  -382.84492251    -2.4764E-04   5.38E-07    121.51  0  0  0   2  2
   4      1.41099418    -1.60344798  -382.84492349    -9.8400E-07   1.93E-09    184.10  0  0  0   3  3
 
 - - Continuing with F12/conv. amplitude coupling turned on.
 
   5      1.41109040    -1.60420514  -382.84568065    -7.5814E-04   1.19E-04    244.80  1  1  1   1  1
   6      1.41108994    -1.60420524  -382.84568075    -9.9924E-08   1.63E-09    307.43  1  1  1   2  2
 
 CPU time for iterative RMP2-F12                307.43 sec
 
 
 DF-RMP2-F12 doubles corrections:
 - - - - - - - - - - - - - - - - 
  Approx.                             TOTAL           A-B            A-A            B-B    
  RMP2-F12/3C(FIX)                -0.124185387   -0.115140809   -0.004765788   -0.004278790
  RMP2-F12/3*C(FIX)               -0.123428135   -0.114759363   -0.004571858   -0.004096913
  RMP2-F12/3*C(DX)                -0.123875972   -0.115172014   -0.004590078   -0.004113880
  RMP2-F12/3*C(FIX,DX)            -0.130970754   -0.121769179   -0.004847966   -0.004353609
 
 DF-RMP2-F12 doubles energies:
 - - - - - - - - - - - - - - -
  Approx.                             TOTAL           A-B            A-A            B-B    
  RMP2                            -1.474573264   -1.113247516   -0.186269033   -0.175056715
  RMP2-F12/3C(FIX)                -1.598758651   -1.228388326   -0.191034821   -0.179335505
  RMP2-F12/3*C(FIX)               -1.598001399   -1.228006880   -0.190840892   -0.179153628
  RMP2-F12/3*C(DX)                -1.598449236   -1.228419531   -0.190859111   -0.179170595
  RMP2-F12/3*C(FIX,DX)            -1.605544018   -1.235016696   -0.191116999   -0.179410324
 
 
  Reference energy                   -381.237859302994
  CABS relaxation correction to RHF    -0.003616207704
  New reference energy               -381.241475510698
 
  RMP2-F12 singles (MO) energy         -0.005446584630
  RMP2-F12 pair energy                 -1.598758651302
  RMP2-F12 correlation energy          -1.604205235931
 
 !RMP2-F12/3C(FIX) energy            -382.845680746629

 Starting RMP2 calculation

 ITER.      SQ.NORM     CORR.ENERGY   TOTAL ENERGY   ENERGY CHANGE        DEN1      VAR(S)    VAR(P)  DIIS     TIME
   1      1.40690339    -1.47533889  -382.71319819    -1.47533889    -0.00445125  0.30D-04  0.17D-02  1  1  5001.19
   2      1.41088237    -1.48010987  -382.71796917    -0.00477098    -0.00000780  0.59D-06  0.36D-05  2  2  5061.97
   3      1.41100338    -1.48018578  -382.71804508    -0.00007590    -0.00000006  0.25D-07  0.19D-07  3  3  5124.28
   4      1.41100491    -1.48018526  -382.71804456     0.00000051    -0.00000000  0.89D-09  0.61D-10  4  4  5186.85

 Norm of t1 vector:      0.06351830      S-energy:    -0.00544650      T1 diagnostic:  0.00042073
 Norm of t2 vector:      0.63794227      P-energy:    -1.47473876
                                         Alpha-Beta:  -1.11370772
                                         Alpha-Alpha: -0.18610876
                                         Beta-Beta:   -0.17492228

 Spin contamination <S**2-Sz**2-Sz>     0.00123922
  Reference energy                   -381.241475510699
  RHF-RMP2 correlation energy          -1.480185260887
 !RHF-RMP2 energy                    -382.721660771585

 Starting UCCSD calculation

 ITER.      SQ.NORM     CORR.ENERGY   TOTAL ENERGY   ENERGY CHANGE        DEN1      VAR(S)    VAR(P)  DIIS     TIME
   1      1.39793471    -1.44395768  -382.68181698    -1.44395768    -0.04013870  0.72D-02  0.69D-02  0  0 21613.26
   2      1.42984150    -1.47877576  -382.71663506    -0.03481808    -0.00385290  0.45D-03  0.12D-02  1  1 38065.07
   3      1.44257337    -1.48445505  -382.72231436    -0.00567930    -0.00072288  0.43D-03  0.12D-03  2  2 54500.51
   4      1.45172953    -1.48916739  -382.72702669    -0.00471233    -0.00015648  0.11D-03  0.28D-04  3  3 70947.32
   5      1.45659765    -1.48979089  -382.72765019    -0.00062350    -0.00007177  0.81D-04  0.61D-05  4  4 87381.16
   6      1.45983370    -1.48999593  -382.72785523    -0.00020504    -0.00003922  0.39D-04  0.50D-05  5  5103789.90
   7      1.46534861    -1.49037662  -382.72823593    -0.00038069    -0.00001794  0.21D-04  0.17D-05  6  6120187.39
   8      1.46768058    -1.49043890  -382.72829820    -0.00006227    -0.00001135  0.12D-04  0.15D-05  6  2136567.85
   9      1.47081217    -1.49058850  -382.72844780    -0.00014960    -0.00000707  0.85D-05  0.66D-06  6  1153021.11
  10      1.47361765    -1.49066172  -382.72852102    -0.00007322    -0.00000441  0.44D-05  0.59D-06  6  6169466.68
  11      1.47616413    -1.49069451  -382.72855381    -0.00003279    -0.00000203  0.22D-05  0.22D-06  6  3185879.21
  12      1.47930008    -1.49075926  -382.72861856    -0.00006475    -0.00000081  0.60D-06  0.15D-06  6  4202318.34
  13      1.48035558    -1.49075938  -382.72861868    -0.00000012    -0.00000032  0.27D-06  0.51D-07  6  5218917.49
  14      1.48140823    -1.49078051  -382.72863981    -0.00002113    -0.00000011  0.77D-07  0.22D-07  6  2235492.92
  15      1.48151897    -1.49077631  -382.72863561     0.00000420    -0.00000003  0.24D-07  0.31D-08  6  1251983.08
  16      1.48145671    -1.49077057  -382.72862987     0.00000574    -0.00000001  0.56D-08  0.15D-08  6  6268534.93
  17      1.48137573    -1.49076645  -382.72862575     0.00000412    -0.00000000  0.22D-08  0.38D-09  6  3285468.26
  18      1.48133481    -1.49076336  -382.72862266     0.00000309    -0.00000000  0.79D-09  0.11D-09  6  4301801.48
  19      1.48134351    -1.49076423  -382.72862353    -0.00000087    -0.00000000  0.33D-09  0.52D-10  6  5318191.55

 Norm of t1 vector:      0.21688417      S-energy:    -0.00629375      T1 diagnostic:  0.02184811
                                                                       D1 diagnostic:  0.12004557
 Norm of t2 vector:      0.65901803      P-energy:    -1.48447048
                                         Alpha-Beta:  -1.16147061
                                         Alpha-Alpha: -0.16701666
                                         Beta-Beta:   -0.15598321

 Singles amplitudes (print threshold =  0.500E-01):

         I         SYM. A    A   T(IA) [Beta-Beta]

        18         1         1     -0.05174277
        19         1         1      0.06574240
        21         1         1     -0.12325005

 Spin contamination <S**2-Sz**2-Sz>     0.00261564

 For full I/O caching in triples, increase memory by 2605.43 Mwords to 4505.71 Mwords.
 

  Ecorr(MP2)                           -1.480185260887
  Ecorr(MP2-F12)                       -1.604370647892
  Scale factor for triples energy       1.083898543167

 RESULTS
 =======

  Reference energy                   -381.237859302994
  CABS relaxation correction to RHF    -0.003616207704
  New reference energy               -381.241475510699
 
  F12 corrections for ansatz 3C(FIX) added to UCCSD energy. Coupling mode: 15
 
  UCCSD-F12a singles energy            -0.006293751078
  UCCSD-F12a pair energy               -1.606954707445
  UCCSD-F12a correlation energy        -1.613248458523
  Triples (T) contribution (scaled)    -0.073086319238
  Total correlation energy             -1.686334777761
 
  RHF-UCCSD-F12a energy              -382.854723969222
  RHF-UCCSD[T]-F12a energy           -382.931261968871
  RHF-UCCSD-T-F12a energy            -382.926738059687
 !RHF-UCCSD(T)-F12a energy           -382.927810288460
 
  F12 corrections for ansatz 3C(FIX) added to UCCSD energy. Coupling mode: 15
 
  UCCSD-F12b singles energy            -0.006293751078
  UCCSD-F12b pair energy               -1.584680031424
  UCCSD-F12b correlation energy        -1.590973782501
  Triples (T) contribution (scaled)    -0.073086319238
  Total correlation energy             -1.664060101740
 
  RHF-UCCSD-F12b energy              -382.832449293200
  RHF-UCCSD[T]-F12b energy           -382.908987292849
  RHF-UCCSD-T-F12b energy            -382.904463383666
 !RHF-UCCSD(T)-F12b energy           -382.905535612438

 Program statistics:

 Available memory in ccsd:              1899995808
 Min. memory needed in ccsd:             476529013
 Max. memory used in ccsd:               700588850
 Max. memory used in cckext:             522715393 (20 integral passes)
 Max. memory used in cckint:            1866435477 ( 1 integral passes)



 **********************************************************************************************************************************
 DATASETS  * FILE   NREC   LENGTH (MB)   RECORD NAMES
              1      20    37234.36       500      610      700      900      950      970     1000      129      960     1100   
                                          VAR    BASINP    GEOM    SYMINP    ZMAT    AOBASIS   BASIS     P2S    ABASIS      S 
                                         1400     1410     1200     1210     1080     1600     1650     1300     1700      960(1)
                                           T        V       H0       H01     AOSYM     SMH    MOLCAS    ERIS     OPER    ABASIS    

              2       5       14.48       700     1000      520     2100     7360   
                                         GEOM     BASIS   MCVARS     RHF    F12ABS    

 PROGRAMS   *        TOTALUCCSD(T)-F        HF       INT
 CPU TIMES  *    953805.82 950189.43   2772.87    843.38
 REAL TIME  *    962239.13 SEC
 DISK USED  *       207.61 GB      
 **********************************************************************************************************************************

 UCCSD(T)-F12/cc-pVTZ-F12 energy=   -382.905535612438

    UCCSD(T)-F12        HF-SCF  
   -382.90553561   -381.23785930
 **********************************************************************************************************************************
 Molpro calculation terminated
 Variable memory released
