 Entering Gaussian System, Link 0=g03
 Input=freq.gjf
 Output=freq.log
 Initial command:
 /opt/g03/l1.exe /scratch/goldmanm/Gau-28168.inp -scrdir=/scratch/goldmanm/
 Entering Link 1 = /opt/g03/l1.exe PID=     28170.
  
 Copyright (c) 1988,1990,1992,1993,1995,1998,2003,2004, Gaussian, Inc.
                  All Rights Reserved.
  
 This is the Gaussian(R) 03 program.  It is based on the
 the Gaussian(R) 98 system (copyright 1998, Gaussian, Inc.),
 the Gaussian(R) 94 system (copyright 1995, Gaussian, Inc.),
 the Gaussian 92(TM) system (copyright 1992, Gaussian, Inc.),
 the Gaussian 90(TM) system (copyright 1990, Gaussian, Inc.),
 the Gaussian 88(TM) system (copyright 1988, Gaussian, Inc.),
 the Gaussian 86(TM) system (copyright 1986, Carnegie Mellon
 University), and the Gaussian 82(TM) system (copyright 1983,
 Carnegie Mellon University). Gaussian is a federally registered
 trademark of Gaussian, Inc.
  
 This software contains proprietary and confidential information,
 including trade secrets, belonging to Gaussian, Inc.
  
 This software is provided under written license and may be
 used, copied, transmitted, or stored only in accord with that
 written license.
  
 The following legend is applicable only to US Government
 contracts under FAR:
  
                    RESTRICTED RIGHTS LEGEND
  
 Use, reproduction and disclosure by the US Government is
 subject to restrictions as set forth in subparagraphs (a)
 and (c) of the Commercial Computer Software - Restricted
 Rights clause in FAR 52.227-19.
  
 Gaussian, Inc.
 340 Quinnipiac St., Bldg. 40, Wallingford CT 06492
  
  
 ---------------------------------------------------------------
 Warning -- This program may not be used in any manner that
 competes with the business of Gaussian, Inc. or will provide
 assistance to any competitor of Gaussian, Inc.  The licensee
 of this program is prohibited from giving any competitor of
 Gaussian, Inc. access to this program.  By using this program,
 the user acknowledges that Gaussian, Inc. is engaged in the
 business of creating and licensing software in the field of
 computational chemistry and represents and warrants to the
 licensee that it is not a competitor of Gaussian, Inc. and that
 it will not use this program in any manner prohibited above.
 ---------------------------------------------------------------
  

 Cite this work as:
 Gaussian 03, Revision D.01,
 M. J. Frisch, G. W. Trucks, H. B. Schlegel, G. E. Scuseria, 
 M. A. Robb, J. R. Cheeseman, J. A. Montgomery, Jr., T. Vreven, 
 K. N. Kudin, J. C. Burant, J. M. Millam, S. S. Iyengar, J. Tomasi, 
 V. Barone, B. Mennucci, M. Cossi, G. Scalmani, N. Rega, 
 G. A. Petersson, H. Nakatsuji, M. Hada, M. Ehara, K. Toyota, 
 R. Fukuda, J. Hasegawa, M. Ishida, T. Nakajima, Y. Honda, O. Kitao, 
 H. Nakai, M. Klene, X. Li, J. E. Knox, H. P. Hratchian, J. B. Cross, 
 V. Bakken, C. Adamo, J. Jaramillo, R. Gomperts, R. E. Stratmann, 
 O. Yazyev, A. J. Austin, R. Cammi, C. Pomelli, J. W. Ochterski, 
 P. Y. Ayala, K. Morokuma, G. A. Voth, P. Salvador, J. J. Dannenberg, 
 V. G. Zakrzewski, S. Dapprich, A. D. Daniels, M. C. Strain, 
 O. Farkas, D. K. Malick, A. D. Rabuck, K. Raghavachari, 
 J. B. Foresman, J. V. Ortiz, Q. Cui, A. G. Baboul, S. Clifford, 
 J. Cioslowski, B. B. Stefanov, G. Liu, A. Liashenko, P. Piskorz, 
 I. Komaromi, R. L. Martin, D. J. Fox, T. Keith, M. A. Al-Laham, 
 C. Y. Peng, A. Nanayakkara, M. Challacombe, P. M. W. Gill, 
 B. Johnson, W. Chen, M. W. Wong, C. Gonzalez, and J. A. Pople, 
 Gaussian, Inc., Wallingford CT, 2004.
 
 ******************************************
 Gaussian 03:  AM64L-G03RevD.01 13-Oct-2005
                30-Jul-2019 
 ******************************************
 %chk=input.chk
 %mem=1500mb
 %nproc=8
 Will use up to    8 processors via shared memory.
 -------------------------------------
 # freq nosymm b3lyp/cbsb7 iop(7/33=1)
 -------------------------------------
 1/10=4,30=1,38=1/1,3;
 2/15=1,17=6,18=5,40=1/2;
 3/5=4,6=6,7=700,11=2,16=1,25=1,30=1,74=-5/1,2,3;
 4//1;
 5/5=2,38=5/2;
 8/6=4,10=90,11=11/1;
 11/6=1,8=1,9=11,15=111,16=1,31=1/1,2,10;
 10/6=1,31=1/2;
 6/7=2,8=2,9=2,10=2,18=1,28=1/1;
 7/8=1,10=1,25=1,30=1,33=1/1,2,3,16;
 1/10=4,30=1/3;
 99//99;
 -------
 NBO NRT
 -------
 Symbolic Z-matrix:
 Charge =  0 Multiplicity = 2
 C                    -3.59116   1.27422   0.2406 
 H                    -3.2348    1.5105    1.2527 
 H                    -3.12411   1.97819  -0.45427 
 O                    -4.98792   1.46382   0.12143 
 H                    -5.41188   0.77259   0.64644 
 C                    -3.12066  -0.15394  -0.08894 
 C                    -1.60133  -0.24421  -0.14971 
 H                    -1.29202  -1.28486  -0.2575 
 H                    -1.22135   0.32661  -1.00036 
 H                    -1.15195   0.15789   0.76219 
 C                    -3.83708  -0.71514  -1.32452 
 H                    -4.29705  -0.00857  -2.00816 
 H                    -3.37237  -1.57947  -1.79638 
 H                    -4.79342  -1.22024  -0.49108 
 O                    -3.52705  -1.07265   0.9711 
 O                    -4.90743  -1.31658   0.71043 
 

 GradGradGradGradGradGradGradGradGradGradGradGradGradGradGradGradGradGrad
 Berny optimization.
 Initialization pass.
 Trust Radius=3.00D-01 FncErr=1.00D-07 GrdErr=1.00D-07
 Number of steps in this run=   2 maximum allowed number of steps=   2.
 GradGradGradGradGradGradGradGradGradGradGradGradGradGradGradGradGradGrad

                          Input orientation:                          
 ---------------------------------------------------------------------
 Center     Atomic     Atomic              Coordinates (Angstroms)
 Number     Number      Type              X           Y           Z
 ---------------------------------------------------------------------
    1          6             0       -3.591160    1.274220    0.240600
    2          1             0       -3.234800    1.510500    1.252700
    3          1             0       -3.124110    1.978190   -0.454270
    4          8             0       -4.987920    1.463820    0.121430
    5          1             0       -5.411880    0.772590    0.646440
    6          6             0       -3.120660   -0.153940   -0.088940
    7          6             0       -1.601330   -0.244210   -0.149710
    8          1             0       -1.292020   -1.284860   -0.257500
    9          1             0       -1.221350    0.326610   -1.000360
   10          1             0       -1.151950    0.157890    0.762190
   11          6             0       -3.837080   -0.715140   -1.324520
   12          1             0       -4.297050   -0.008570   -2.008160
   13          1             0       -3.372370   -1.579470   -1.796380
   14          1             0       -4.793420   -1.220240   -0.491080
   15          8             0       -3.527050   -1.072650    0.971100
   16          8             0       -4.907430   -1.316580    0.710430
 ---------------------------------------------------------------------
                    Distance matrix (angstroms):
                    1          2          3          4          5
     1  C    0.000000
     2  H    1.098712   0.000000
     3  H    1.093871   1.773339   0.000000
     4  O    1.414598   2.086955   2.017373   0.000000
     5  H    1.931673   2.377339   2.810503   0.966011   0.000000
     6  C    1.539353   2.140884   2.163205   2.479529   2.578552
     7  C    2.533258   2.777406   2.711213   3.802614   4.023435
     8  H    3.476067   3.724129   3.747368   4.621526   4.692915
     9  H    2.837947   3.245282   2.578066   4.091297   4.524532
    10  H    2.732763   2.531485   2.946639   4.102523   4.305608
    11  C    2.543154   3.458074   2.918850   2.857109   2.928826
    12  H    2.683422   3.750887   2.781650   2.679624   2.983280
    13  H    3.512934   4.343239   3.810490   3.943300   3.957165
    14  H    2.864108   3.595415   3.608033   2.759923   2.376513
    15  O    2.458768   2.614837   3.391410   3.047911   2.657612
    16  O    2.943731   3.329284   3.923298   2.843242   2.150162
                    6          7          8          9         10
     6  C    0.000000
     7  C    1.523222   0.000000
     8  H    2.156691   1.090983   0.000000
     9  H    2.160785   1.092623   1.775858   0.000000
    10  H    2.167367   1.093247   1.772263   1.771967   0.000000
    11  C    1.534556   2.569150   2.817879   2.834143   3.510906
    12  H    2.255755   3.282723   3.704583   3.253911   4.194544
    13  H    2.238492   2.762431   2.604381   2.982227   3.807225
    14  H    2.024065   3.355385   3.509777   3.925786   4.090261
    15  O    1.460433   2.377168   2.559268   3.340784   2.683090
    16  O    2.276680   3.580519   3.742871   4.383385   4.034894
                   11         12         13         14         15
    11  C    0.000000
    12  H    1.085439   0.000000
    13  H    1.088886   1.835105   0.000000
    14  H    1.365406   2.004011   1.962712   0.000000
    15  O    2.343886   3.255942   2.817754   1.939960   0.000000
    16  O    2.376636   3.078016   2.951206   1.210746   1.425798
                   16
    16  O    0.000000
 Symmetry turned off by external request.
 Stoichiometry    C4H9O3(2)
 Framework group  C1[X(C4H9O3)]
 Deg. of freedom    42
 Full point group                 C1
 Rotational constants (GHZ):      3.0576587      2.6356633      1.9875458
 Standard basis: CBSB7 (5D, 7F)
 Integral buffers will be    131072 words long.
 Raffenetti 2 integral format.
 Two-electron integral symmetry is turned off.
   180 basis functions,   296 primitive gaussians,   187 cartesian basis functions
    29 alpha electrons       28 beta electrons
       nuclear repulsion energy       343.1855743859 Hartrees.
 NAtoms=   16 NActive=   16 NUniq=   16 SFac= 7.50D-01 NAtFMM=   80 NAOKFM=F Big=F
 One-electron integrals computed using PRISM.
 NBasis=   180 RedAO= T  NBF=   180
 NBsUse=   180 1.00D-06 NBFU=   180
 Harris functional with IExCor=  402 diagonalized for initial guess.
 ExpMin= 1.03D-01 ExpMax= 8.59D+03 ExpMxC= 1.30D+03 IAcc=1 IRadAn=         1 AccDes= 1.00D-06
 HarFok:  IExCor= 402 AccDes= 1.00D-06 IRadAn=         1 IDoV=1
 ScaDFX=  1.000000  1.000000  1.000000  1.000000
 <S**2> of initial guess= 0.7500
 Requested convergence on RMS density matrix=1.00D-08 within 128 cycles.
 Requested convergence on MAX density matrix=1.00D-06.
 Requested convergence on             energy=1.00D-06.
 No special actions if energy rises.
 Integral accuracy reduced to 1.0D-05 until final iterations.
 Initial convergence to 1.0D-05 achieved.  Increase integral accuracy.
 SCF Done:  E(UB+HF-LYP) =  -383.431549778     A.U. after   23 cycles
             Convg  =    0.7280D-08             -V/T =  2.0033
             S**2   =   0.7582
 Annihilation of the first spin contaminant:
 S**2 before annihilation     0.7582,   after     0.7500
 Range of M.O.s used for correlation:     1   180
 NBasis=   180 NAE=    29 NBE=    28 NFC=     0 NFV=     0
 NROrb=    180 NOA=    29 NOB=    28 NVA=   151 NVB=   152

 **** Warning!!: The smallest beta delta epsilon is  0.98003261D-01

 Symmetrizing basis deriv contribution to polar:
 IMax=3 JMax=2 DiffMx= 0.00D+00
 G2DrvN: will do   17 centers at a time, making    1 passes doing MaxLOS=2.
 FoFDir/FoFCou used for L=0 through L=2.
 DoAtom=TTTTTTTTTTTTTTTT
          Differentiating once with respect to electric field.
                with respect to dipole field.
          Differentiating once with respect to nuclear coordinates.
 Symmetry not used in FoFDir.
 MinBra= 0 MaxBra= 2 Meth= 1.
 IRaf=       0 NMat=  51 IRICut=      51 DoRegI=T DoRafI=T ISym2E= 0 JSym2E=0.
          There are  51 degrees of freedom in the 1st order CPHF.
    48 vectors were produced by pass  0.
 AX will form  48 AO Fock derivatives at one time.
    48 vectors were produced by pass  1.
    48 vectors were produced by pass  2.
    48 vectors were produced by pass  3.
    48 vectors were produced by pass  4.
    48 vectors were produced by pass  5.
    30 vectors were produced by pass  6.
     4 vectors were produced by pass  7.
     3 vectors were produced by pass  8.
 Inv2:  IOpt= 1 Iter= 1 AM= 2.69D-15 Conv= 1.00D-12.
 Inverted reduced A of dimension  325 with in-core refinement.
 Isotropic polarizability for W=    0.000000       61.68 Bohr**3.
 End of Minotr Frequency-dependent properties file   721 does not exist.

 **********************************************************************

            Population analysis using the SCF density.

 **********************************************************************

 Alpha  occ. eigenvalues --  -19.19152 -19.18740 -19.11624 -10.25531 -10.22627
 Alpha  occ. eigenvalues --  -10.20969 -10.18459  -1.14147  -1.02650  -0.90115
 Alpha  occ. eigenvalues --   -0.80146  -0.72183  -0.69573  -0.59190  -0.54071
 Alpha  occ. eigenvalues --   -0.51623  -0.49336  -0.47488  -0.45981  -0.42357
 Alpha  occ. eigenvalues --   -0.41804  -0.41343  -0.40016  -0.37786  -0.35204
 Alpha  occ. eigenvalues --   -0.34843  -0.28903  -0.27755  -0.25407
 Alpha virt. eigenvalues --    0.01721   0.03760   0.06486   0.07528   0.07771
 Alpha virt. eigenvalues --    0.09951   0.10139   0.11708   0.13393   0.14301
 Alpha virt. eigenvalues --    0.16463   0.18427   0.19662   0.21455   0.22194
 Alpha virt. eigenvalues --    0.26667   0.32277   0.33069   0.35388   0.36702
 Alpha virt. eigenvalues --    0.38363   0.41817   0.44013   0.44581   0.49466
 Alpha virt. eigenvalues --    0.49704   0.53055   0.53407   0.54486   0.55682
 Alpha virt. eigenvalues --    0.56997   0.57945   0.59412   0.60176   0.62013
 Alpha virt. eigenvalues --    0.65412   0.66982   0.72740   0.76796   0.82879
 Alpha virt. eigenvalues --    0.83107   0.84288   0.88561   0.89800   0.93583
 Alpha virt. eigenvalues --    0.95393   0.97768   1.00598   1.02106   1.11134
 Alpha virt. eigenvalues --    1.15572   1.19332   1.25243   1.30535   1.32402
 Alpha virt. eigenvalues --    1.33778   1.35742   1.38035   1.39710   1.41837
 Alpha virt. eigenvalues --    1.43480   1.45167   1.48857   1.49597   1.51422
 Alpha virt. eigenvalues --    1.52716   1.55574   1.56942   1.59192   1.60832
 Alpha virt. eigenvalues --    1.63817   1.65577   1.67347   1.70269   1.72758
 Alpha virt. eigenvalues --    1.76749   1.79206   1.81033   1.85754   1.89745
 Alpha virt. eigenvalues --    1.92302   1.95298   1.98269   2.03137   2.03749
 Alpha virt. eigenvalues --    2.08237   2.10355   2.14962   2.20804   2.26177
 Alpha virt. eigenvalues --    2.27224   2.34333   2.36958   2.38576   2.41831
 Alpha virt. eigenvalues --    2.42840   2.47577   2.48005   2.49434   2.51297
 Alpha virt. eigenvalues --    2.53203   2.54701   2.58293   2.60474   2.60979
 Alpha virt. eigenvalues --    2.63779   2.69084   2.74038   2.75888   2.82081
 Alpha virt. eigenvalues --    2.85317   2.88834   2.90026   2.95653   2.99979
 Alpha virt. eigenvalues --    3.08756   3.10595   3.13216   3.18082   3.22273
 Alpha virt. eigenvalues --    3.26262   3.31477   3.43369   3.56129   3.60046
 Alpha virt. eigenvalues --    3.67389   3.72937   3.75340   3.78694   3.79321
 Alpha virt. eigenvalues --    3.88598   3.92520   3.96744   4.22879   4.25586
 Alpha virt. eigenvalues --    4.72878   4.80987   4.90867   4.93978   5.03022
 Alpha virt. eigenvalues --    5.25812   5.28043   5.62860   5.67835  23.69188
 Alpha virt. eigenvalues --   23.75710  23.82305  23.90684  49.76098  49.82467
 Alpha virt. eigenvalues --   49.90685
  Beta  occ. eigenvalues --  -19.18610 -19.17887 -19.11606 -10.25542 -10.22623
  Beta  occ. eigenvalues --  -10.20061 -10.18443  -1.12854  -1.02592  -0.88397
  Beta  occ. eigenvalues --   -0.79019  -0.70848  -0.69361  -0.58475  -0.52694
  Beta  occ. eigenvalues --   -0.51058  -0.48382  -0.46897  -0.44765  -0.42114
  Beta  occ. eigenvalues --   -0.41503  -0.40666  -0.39677  -0.36447  -0.34663
  Beta  occ. eigenvalues --   -0.34151  -0.28460  -0.24699
  Beta virt. eigenvalues --   -0.14899   0.02409   0.04005   0.06650   0.07754
  Beta virt. eigenvalues --    0.07935   0.10168   0.10318   0.11817   0.13665
  Beta virt. eigenvalues --    0.15225   0.17136   0.19151   0.19836   0.21558
  Beta virt. eigenvalues --    0.22556   0.27057   0.32464   0.33410   0.35779
  Beta virt. eigenvalues --    0.36793   0.38594   0.42112   0.44406   0.45101
  Beta virt. eigenvalues --    0.49811   0.51271   0.53500   0.53758   0.54966
  Beta virt. eigenvalues --    0.56046   0.57149   0.58190   0.59803   0.60278
  Beta virt. eigenvalues --    0.62090   0.65847   0.67462   0.73837   0.77638
  Beta virt. eigenvalues --    0.83080   0.83795   0.84527   0.89162   0.90117
  Beta virt. eigenvalues --    0.94178   0.96253   0.98202   1.00987   1.02461
  Beta virt. eigenvalues --    1.11498   1.16084   1.19764   1.25595   1.30737
  Beta virt. eigenvalues --    1.32511   1.34083   1.36096   1.38329   1.39929
  Beta virt. eigenvalues --    1.42241   1.43741   1.46423   1.48946   1.50370
  Beta virt. eigenvalues --    1.51773   1.53071   1.55686   1.57026   1.59486
  Beta virt. eigenvalues --    1.61044   1.64216   1.65819   1.67751   1.70308
  Beta virt. eigenvalues --    1.72732   1.76867   1.79687   1.81729   1.85832
  Beta virt. eigenvalues --    1.89991   1.92633   1.96469   1.98679   2.03379
  Beta virt. eigenvalues --    2.04835   2.08533   2.10770   2.15729   2.21867
  Beta virt. eigenvalues --    2.26516   2.27402   2.34402   2.37075   2.38829
  Beta virt. eigenvalues --    2.42058   2.43333   2.47930   2.48094   2.49764
  Beta virt. eigenvalues --    2.51603   2.53825   2.54873   2.58435   2.60589
  Beta virt. eigenvalues --    2.61294   2.64202   2.69529   2.74765   2.76438
  Beta virt. eigenvalues --    2.82579   2.85639   2.89047   2.90351   2.97745
  Beta virt. eigenvalues --    3.00758   3.08883   3.10993   3.13750   3.19079
  Beta virt. eigenvalues --    3.22501   3.27063   3.31963   3.44221   3.58053
  Beta virt. eigenvalues --    3.61403   3.67763   3.73926   3.76753   3.78957
  Beta virt. eigenvalues --    3.79480   3.88665   3.92626   3.97041   4.23013
  Beta virt. eigenvalues --    4.26130   4.73425   4.81803   4.91606   4.94206
  Beta virt. eigenvalues --    5.07085   5.26143   5.28276   5.63021   5.68372
  Beta virt. eigenvalues --   23.69185  23.76055  23.82972  23.90721  49.77324
  Beta virt. eigenvalues --   49.82606  49.90731
          Condensed to atoms (all electrons):
              1          2          3          4          5          6
     1  C    4.753564   0.396551   0.381822   0.301445  -0.042519   0.290385
     2  H    0.396551   0.601244  -0.037820  -0.029152  -0.006383  -0.048487
     3  H    0.381822  -0.037820   0.614540  -0.033622   0.008231  -0.035337
     4  O    0.301445  -0.029152  -0.033622   7.871303   0.316860  -0.060418
     5  H   -0.042519  -0.006383   0.008231   0.316860   0.466302  -0.000286
     6  C    0.290385  -0.048487  -0.035337  -0.060418  -0.000286   5.471463
     7  C   -0.043075  -0.005918  -0.000563   0.004240  -0.000133   0.305802
     8  H    0.007259  -0.000797  -0.000598  -0.000242   0.000141  -0.027399
     9  H   -0.001933  -0.000834   0.002516  -0.000122   0.000059  -0.032682
    10  H   -0.005913   0.007296  -0.000984   0.000013  -0.000046  -0.034821
    11  C   -0.084658   0.013400  -0.006398   0.017660  -0.004993   0.264975
    12  H   -0.003737   0.000746  -0.002189   0.009664  -0.001600  -0.034069
    13  H    0.006213  -0.000325  -0.000485   0.000362   0.000095  -0.036066
    14  H   -0.000835   0.000745   0.000597   0.005572  -0.003126  -0.039095
    15  O   -0.052080   0.000201   0.004572   0.000468  -0.003696   0.179941
    16  O    0.000009  -0.001444  -0.000487  -0.008914   0.031485  -0.071996
              7          8          9         10         11         12
     1  C   -0.043075   0.007259  -0.001933  -0.005913  -0.084658  -0.003737
     2  H   -0.005918  -0.000797  -0.000834   0.007296   0.013400   0.000746
     3  H   -0.000563  -0.000598   0.002516  -0.000984  -0.006398  -0.002189
     4  O    0.004240  -0.000242  -0.000122   0.000013   0.017660   0.009664
     5  H   -0.000133   0.000141   0.000059  -0.000046  -0.004993  -0.001600
     6  C    0.305802  -0.027399  -0.032682  -0.034821   0.264975  -0.034069
     7  C    4.887923   0.392025   0.397153   0.401210  -0.054298   0.002293
     8  H    0.392025   0.548665  -0.022230  -0.025689  -0.008042  -0.000072
     9  H    0.397153  -0.022230   0.566378  -0.026224  -0.004406   0.000619
    10  H    0.401210  -0.025689  -0.026224   0.553745   0.008904  -0.000272
    11  C   -0.054298  -0.008042  -0.004406   0.008904   5.216343   0.392344
    12  H    0.002293  -0.000072   0.000619  -0.000272   0.392344   0.514858
    13  H   -0.003045   0.003959  -0.000185   0.000069   0.387524  -0.022394
    14  H    0.002516  -0.000549   0.000238  -0.000180   0.246701  -0.011797
    15  O   -0.041809   0.006180   0.004017  -0.000384  -0.053306   0.004199
    16  O    0.005949  -0.000264  -0.000224  -0.000125  -0.083425   0.002119
             13         14         15         16
     1  C    0.006213  -0.000835  -0.052080   0.000009
     2  H   -0.000325   0.000745   0.000201  -0.001444
     3  H   -0.000485   0.000597   0.004572  -0.000487
     4  O    0.000362   0.005572   0.000468  -0.008914
     5  H    0.000095  -0.003126  -0.003696   0.031485
     6  C   -0.036066  -0.039095   0.179941  -0.071996
     7  C   -0.003045   0.002516  -0.041809   0.005949
     8  H    0.003959  -0.000549   0.006180  -0.000264
     9  H   -0.000185   0.000238   0.004017  -0.000224
    10  H    0.000069  -0.000180  -0.000384  -0.000125
    11  C    0.387524   0.246701  -0.053306  -0.083425
    12  H   -0.022394  -0.011797   0.004199   0.002119
    13  H    0.533328  -0.013328   0.005289   0.001630
    14  H   -0.013328   0.507959  -0.053204   0.143819
    15  O    0.005289  -0.053204   8.138282   0.079716
    16  O    0.001630   0.143819   0.079716   8.121957
 Mulliken atomic charges:
              1
     1  C    0.097501
     2  H    0.110976
     3  H    0.106206
     4  O   -0.395118
     5  H    0.239609
     6  C   -0.091909
     7  C   -0.250272
     8  H    0.127651
     9  H    0.117860
    10  H    0.123402
    11  C   -0.248325
    12  H    0.149288
    13  H    0.137359
    14  H    0.213964
    15  O   -0.218386
    16  O   -0.219804
 Sum of Mulliken charges=   0.00000
 Atomic charges with hydrogens summed into heavy atoms:
              1
     1  C    0.314683
     2  H    0.000000
     3  H    0.000000
     4  O   -0.155509
     5  H    0.000000
     6  C   -0.091909
     7  C    0.118641
     8  H    0.000000
     9  H    0.000000
    10  H    0.000000
    11  C    0.038321
    12  H    0.000000
    13  H    0.000000
    14  H    0.000000
    15  O   -0.218386
    16  O   -0.005840
 Sum of Mulliken charges=   0.00000
          Atomic-Atomic Spin Densities.
              1          2          3          4          5          6
     1  C    0.001670  -0.002113   0.000074  -0.000373   0.000140   0.005244
     2  H   -0.002113   0.005229   0.000468  -0.000418  -0.000815  -0.001465
     3  H    0.000074   0.000468  -0.001356  -0.000020  -0.000042  -0.000238
     4  O   -0.000373  -0.000418  -0.000020   0.006751   0.000915   0.000034
     5  H    0.000140  -0.000815  -0.000042   0.000915  -0.001280   0.000515
     6  C    0.005244  -0.001465  -0.000238   0.000034   0.000515  -0.002292
     7  C    0.002715  -0.000765  -0.000242  -0.000038   0.000086   0.007803
     8  H    0.000030  -0.000038   0.000007  -0.000001   0.000007   0.001735
     9  H    0.000329  -0.000065  -0.000069   0.000002   0.000007   0.000467
    10  H   -0.001629   0.001135   0.000213   0.000005  -0.000094  -0.004340
    11  C   -0.005280   0.000326   0.000685  -0.002194   0.002262  -0.006227
    12  H   -0.000344   0.000102   0.000206   0.000495  -0.000254  -0.000881
    13  H   -0.000449   0.000052   0.000031   0.000044  -0.000096  -0.003938
    14  H    0.001499  -0.000065  -0.000134  -0.000632   0.002414   0.011322
    15  O   -0.001475   0.002010   0.000098   0.000199  -0.000943  -0.009786
    16  O   -0.000776  -0.000084   0.000066   0.001023  -0.002764  -0.006327
              7          8          9         10         11         12
     1  C    0.002715   0.000030   0.000329  -0.001629  -0.005280  -0.000344
     2  H   -0.000765  -0.000038  -0.000065   0.001135   0.000326   0.000102
     3  H   -0.000242   0.000007  -0.000069   0.000213   0.000685   0.000206
     4  O   -0.000038  -0.000001   0.000002   0.000005  -0.002194   0.000495
     5  H    0.000086   0.000007   0.000007  -0.000094   0.002262  -0.000254
     6  C    0.007803   0.001735   0.000467  -0.004340  -0.006227  -0.000881
     7  C    0.001307   0.000295   0.002026  -0.001733  -0.007134  -0.000505
     8  H    0.000295  -0.000389   0.000349  -0.001013  -0.001172  -0.000044
     9  H    0.002026   0.000349   0.000806  -0.001056  -0.001612  -0.000093
    10  H   -0.001733  -0.001013  -0.001056   0.013922   0.002082   0.000091
    11  C   -0.007134  -0.001172  -0.001612   0.002082   0.673892  -0.001768
    12  H   -0.000505  -0.000044  -0.000093   0.000091  -0.001768  -0.025295
    13  H    0.000618  -0.000315  -0.000102   0.000119   0.001125   0.002577
    14  H   -0.000514   0.000123   0.000024   0.000024   0.038072  -0.000146
    15  O   -0.001117  -0.000345  -0.000104   0.001565   0.002052  -0.000038
    16  O   -0.000282  -0.000138  -0.000019   0.000092  -0.067236   0.001228
             13         14         15         16
     1  C   -0.000449   0.001499  -0.001475  -0.000776
     2  H    0.000052  -0.000065   0.002010  -0.000084
     3  H    0.000031  -0.000134   0.000098   0.000066
     4  O    0.000044  -0.000632   0.000199   0.001023
     5  H   -0.000096   0.002414  -0.000943  -0.002764
     6  C   -0.003938   0.011322  -0.009786  -0.006327
     7  C    0.000618  -0.000514  -0.001117  -0.000282
     8  H   -0.000315   0.000123  -0.000345  -0.000138
     9  H   -0.000102   0.000024  -0.000104  -0.000019
    10  H    0.000119   0.000024   0.001565   0.000092
    11  C    0.001125   0.038072   0.002052  -0.067236
    12  H    0.002577  -0.000146  -0.000038   0.001228
    13  H   -0.025227   0.001723  -0.000406   0.001735
    14  H    0.001723  -0.078112   0.004429  -0.018997
    15  O   -0.000406   0.004429   0.062879  -0.023477
    16  O    0.001735  -0.018997  -0.023477   0.526818
 Mulliken atomic spin densities:
              1
     1  C   -0.000736
     2  H    0.003496
     3  H   -0.000252
     4  O    0.005792
     5  H    0.000058
     6  C   -0.008374
     7  C    0.002520
     8  H   -0.000908
     9  H    0.000891
    10  H    0.009383
    11  C    0.627872
    12  H   -0.024668
    13  H   -0.022507
    14  H   -0.038969
    15  O    0.035541
    16  O    0.410862
 Sum of Mulliken spin densities=   1.00000
 APT atomic charges:
              1
     1  C    0.432574
     2  H   -0.056193
     3  H   -0.020605
     4  O   -0.603974
     5  H    0.287819
     6  C    0.220603
     7  C    0.038661
     8  H    0.001439
     9  H    0.009896
    10  H    0.004059
    11  C    0.087075
    12  H    0.039995
    13  H   -0.002422
    14  H   -0.136459
    15  O   -0.305490
    16  O    0.003022
 Sum of APT charges=   0.00000
 APT Atomic charges with hydrogens summed into heavy atoms:
              1
     1  C    0.355776
     2  H    0.000000
     3  H    0.000000
     4  O   -0.316155
     5  H    0.000000
     6  C    0.220603
     7  C    0.054054
     8  H    0.000000
     9  H    0.000000
    10  H    0.000000
    11  C    0.124648
    12  H    0.000000
    13  H    0.000000
    14  H    0.000000
    15  O   -0.305490
    16  O   -0.133436
 Sum of APT charges=   0.00000
 Electronic spatial extent (au):  <R**2>=  3458.6964
 Charge=     0.0000 electrons
 Dipole moment (field-independent basis, Debye):
    X=     2.0817    Y=     0.2711    Z=    -1.8062  Tot=     2.7693
 Quadrupole moment (field-independent basis, Debye-Ang):
   XX=   -57.6581   YY=   -47.7248   ZZ=   -42.4896
   XY=     0.9649   XZ=     6.3780   YZ=     3.7098
 Traceless Quadrupole moment (field-independent basis, Debye-Ang):
   XX=    -8.3673   YY=     1.5660   ZZ=     6.8013
   XY=     0.9649   XZ=     6.3780   YZ=     3.7098
 Octapole moment (field-independent basis, Debye-Ang**2):
  XXX=   540.3972  YYY=     9.0856  ZZZ=    -3.3782  XYY=   180.7874
  XXY=    -9.6055  XXZ=   -21.4444  XZZ=   151.5108  YZZ=     6.7373
  YYZ=    -5.8629  XYZ=   -15.4747
 Hexadecapole moment (field-independent basis, Debye-Ang**3):
 XXXX= -4067.4744 YYYY=  -342.6814 ZZZZ=  -192.2403 XXXY=    68.5575
 XXXZ=    82.8115 YYYX=   -12.4517 YYYZ=     2.9336 ZZZX=    30.4563
 ZZZY=     0.3651 XXYY=  -814.8133 XXZZ=  -634.7983 YYZZ=   -86.4117
 XXYZ=    67.0228 YYXZ=    27.7301 ZZXY=   -20.6512
 N-N= 3.431855743859D+02 E-N=-1.585754740553D+03  KE= 3.821759606738D+02
  Exact polarizability:  64.222   2.293  55.941  -2.635   1.308  64.890
 Approx polarizability:  93.505   6.470  77.434  -4.967  -5.861  99.292
                          Isotropic Fermi Contact Couplings
        Atom                 a.u.       MegaHertz       Gauss      10(-4) cm-1
     1  C(13)              0.00102       1.14868       0.40988       0.38316
     2  H(1)               0.00107       4.77807       1.70494       1.59379
     3  H(1)              -0.00022      -0.97597      -0.34825      -0.32555
     4  O(17)             -0.00005       0.02993       0.01068       0.00998
     5  H(1)              -0.00006      -0.27009      -0.09638      -0.09009
     6  C(13)             -0.01130     -12.70736      -4.53430      -4.23872
     7  C(13)              0.00605       6.80685       2.42885       2.27052
     8  H(1)              -0.00021      -0.91741      -0.32735      -0.30601
     9  H(1)               0.00131       5.83690       2.08275       1.94698
    10  H(1)               0.00319      14.27724       5.09447       4.76237
    11  C(13)              0.06818      76.64727      27.34965      25.56678
    12  H(1)              -0.00691     -30.89107     -11.02270     -10.30415
    13  H(1)              -0.00518     -23.13625      -8.25559      -7.71742
    14  H(1)              -0.02464    -110.13214     -39.29788     -36.73613
    15  O(17)              0.04493     -27.23740      -9.71898      -9.08542
    16  O(17)              0.03150     -19.09271      -6.81275      -6.36864
 --------------------------------------------------------
       Center         ----  Spin Dipole Couplings  ----
                      3XX-RR        3YY-RR        3ZZ-RR
 --------------------------------------------------------
     1   Atom       -0.005508      0.007437     -0.001929
     2   Atom       -0.002237      0.002956     -0.000718
     3   Atom       -0.003237      0.006128     -0.002890
     4   Atom       -0.019198      0.029277     -0.010079
     5   Atom       -0.005600      0.008860     -0.003261
     6   Atom       -0.010655     -0.023187      0.033842
     7   Atom        0.012619     -0.009874     -0.002744
     8   Atom        0.006474     -0.003554     -0.002920
     9   Atom        0.006505     -0.003505     -0.003000
    10   Atom        0.002590     -0.002077     -0.000513
    11   Atom        0.385394     -0.174931     -0.210463
    12   Atom        0.002884     -0.000784     -0.002100
    13   Atom       -0.006848      0.028195     -0.021348
    14   Atom       -0.043818     -0.084881      0.128699
    15   Atom       -0.174559      0.198324     -0.023765
    16   Atom       -0.884019     -0.896189      1.780208
 --------------------------------------------------------
                        XY            XZ            YZ
 --------------------------------------------------------
     1   Atom        0.001513     -0.001586      0.006727
     2   Atom        0.002575      0.001094      0.003148
     3   Atom        0.002764      0.000097      0.001515
     4   Atom        0.002321      0.002115      0.025147
     5   Atom       -0.005810     -0.003611      0.001062
     6   Atom        0.006342      0.007105     -0.000544
     7   Atom       -0.000207      0.011319     -0.002484
     8   Atom       -0.002444      0.002396     -0.000736
     9   Atom        0.005010     -0.000548     -0.000473
    10   Atom        0.002067      0.002338      0.001487
    11   Atom        0.381343     -0.339622     -0.172687
    12   Atom       -0.013034      0.014081     -0.044113
    13   Atom       -0.014125     -0.027183      0.025537
    14   Atom        0.035754     -0.087271     -0.062450
    15   Atom       -0.032940     -0.025245      0.171900
    16   Atom       -0.069333     -0.430449      0.484218
 --------------------------------------------------------


 ---------------------------------------------------------------------------------
              Anisotropic Spin Dipole Couplings in Principal Axis System
 ---------------------------------------------------------------------------------

       Atom             a.u.   MegaHertz   Gauss  10(-4) cm-1        Axes

              Baa    -0.0076    -1.019    -0.363    -0.340  0.7140 -0.3447  0.6095
     1 C(13)  Bbb    -0.0034    -0.454    -0.162    -0.151  0.6992  0.3045 -0.6469
              Bcc     0.0110     1.472     0.525     0.491  0.0374  0.8880  0.4584
 
              Baa    -0.0033    -1.776    -0.634    -0.593  0.8805 -0.4440  0.1662
     2 H(1)   Bbb    -0.0024    -1.283    -0.458    -0.428 -0.3408 -0.3490  0.8730
              Bcc     0.0057     3.059     1.091     1.020  0.3296  0.8253  0.4586
 
              Baa    -0.0041    -2.180    -0.778    -0.727  0.9108 -0.2900  0.2938
     3 H(1)   Bbb    -0.0030    -1.610    -0.575    -0.537 -0.3234 -0.0587  0.9444
              Bcc     0.0071     3.790     1.352     1.264  0.2567  0.9552  0.1473
 
              Baa    -0.0226     1.633     0.583     0.545 -0.2638 -0.4113  0.8725
     4 O(17)  Bbb    -0.0191     1.382     0.493     0.461  0.9633 -0.1587  0.2164
              Bcc     0.0417    -3.016    -1.076    -1.006  0.0494  0.8976  0.4381
 
              Baa    -0.0093    -4.942    -1.764    -1.649  0.8493  0.2449  0.4676
     5 H(1)   Bbb    -0.0020    -1.061    -0.379    -0.354 -0.3938 -0.2961  0.8702
              Bcc     0.0113     6.003     2.142     2.002 -0.3516  0.9232  0.1551
 
              Baa    -0.0260    -3.491    -1.246    -1.165 -0.4030  0.9135  0.0561
     6 C(13)  Bbb    -0.0089    -1.199    -0.428    -0.400  0.9020  0.4068 -0.1446
              Bcc     0.0350     4.690     1.674     1.564  0.1550  0.0077  0.9879
 
              Baa    -0.0115    -1.546    -0.552    -0.516 -0.2506  0.7974  0.5490
     7 C(13)  Bbb    -0.0072    -0.961    -0.343    -0.321 -0.4015 -0.6016  0.6906
              Bcc     0.0187     2.507     0.894     0.836  0.8809 -0.0474  0.4709
 
              Baa    -0.0042    -2.222    -0.793    -0.741  0.1625  0.9541  0.2514
     8 H(1)   Bbb    -0.0035    -1.849    -0.660    -0.617 -0.2759 -0.2007  0.9400
              Bcc     0.0076     4.071     1.453     1.358  0.9473 -0.2222  0.2306
 
              Baa    -0.0056    -2.989    -1.066    -0.997 -0.3775  0.9218  0.0880
     9 H(1)   Bbb    -0.0030    -1.612    -0.575    -0.538  0.0881 -0.0588  0.9944
              Bcc     0.0086     4.601     1.642     1.535  0.9218  0.3831 -0.0591
 
              Baa    -0.0031    -1.644    -0.587    -0.549 -0.1839  0.9140 -0.3618
    10 H(1)   Bbb    -0.0017    -0.904    -0.323    -0.302 -0.5448  0.2116  0.8115
              Bcc     0.0048     2.549     0.909     0.850  0.8182  0.3463  0.4590
 
              Baa    -0.3681   -49.392   -17.624   -16.475 -0.3874  0.9079  0.1600
    11 C(13)  Bbb    -0.3643   -48.887   -17.444   -16.307  0.4072  0.0128  0.9132
              Bcc     0.7324    98.280    35.069    32.783  0.8271  0.4189 -0.3747
 
              Baa    -0.0456   -24.318    -8.677    -8.112 -0.0199  0.6986  0.7152
    12 H(1)   Bbb    -0.0048    -2.577    -0.920    -0.860  0.9272  0.2806 -0.2482
              Bcc     0.0504    26.895     9.597     8.971 -0.3741  0.6582 -0.6533
 
              Baa    -0.0445   -23.730    -8.467    -7.915  0.5276 -0.1885  0.8283
    13 H(1)   Bbb    -0.0053    -2.804    -1.000    -0.935  0.7430  0.5751 -0.3424
              Bcc     0.0497    26.534     9.468     8.851 -0.4118  0.7961  0.4435
 
              Baa    -0.1067   -56.908   -20.306   -18.982 -0.3799  0.9193  0.1030
    14 H(1)   Bbb    -0.0775   -41.331   -14.748   -13.787  0.8432  0.2984  0.4473
              Bcc     0.1841    98.239    35.054    32.769 -0.3804 -0.2568  0.8884
 
              Baa    -0.1788    12.938     4.617     4.316  0.9909  0.0263  0.1322
    15 O(17)  Bbb    -0.1167     8.445     3.013     2.817 -0.1030 -0.4847  0.8686
              Bcc     0.2955   -21.382    -7.630    -7.132 -0.0869  0.8743  0.4776
 
              Baa    -0.9823    71.076    25.362    23.708 -0.1888  0.9619 -0.1980
    16 O(17)  Bbb    -0.9503    68.765    24.537    22.938  0.9700  0.2140  0.1150
              Bcc     1.9326  -139.841   -49.899   -46.646 -0.1530  0.1704  0.9734
 

 ---------------------------------------------------------------------------------

 Use density number 0.
 Entering OneElI...
 Calculate overlap and kinetic energy integrals
    NBasis = 187  MinDer = 2  MaxDer = 2
 Requested accuracy = 0.1000D-12
 PrsmSu:  NPrtUS=   1 ThrOK=F
 PRISM was handed   196293693 working-precision words and  2556 shell-pairs
 Entering OneElI...
 Calculate potential energy integrals
    NBasis = 187  MinDer = 2  MaxDer = 2
 Requested accuracy = 0.1000D-12
 PrsmSu:  NPrtUS=   8 ThrOK=T
 PRISM was handed    24491464 working-precision words and  2438 shell-pairs
 PRISM was handed    24491464 working-precision words and  2438 shell-pairs
 PRISM was handed    24491464 working-precision words and  2438 shell-pairs
 PRISM was handed    24491464 working-precision words and  2438 shell-pairs
 PRISM was handed    24491464 working-precision words and  2438 shell-pairs
 PRISM was handed    24491464 working-precision words and  2438 shell-pairs
 PRISM was handed    24491464 working-precision words and  2438 shell-pairs
 PRISM was handed    24491464 working-precision words and  2438 shell-pairs
 Polarizability after L701:
                1             2             3
      1  0.642223D+02
      2  0.229313D+01  0.559408D+02
      3 -0.263450D+01  0.130752D+01  0.648900D+02
 Dipole Derivatives after L701:
               1            2            3            4            5
      1 0.662963D+00-0.920189D-01 0.153154D-01-0.474443D-01 0.438191D-02
      2-0.835635D-01 0.314093D+00-0.371200D-01-0.635522D-02 0.760141D-02
      3 0.218100D-01 0.871383D-01 0.320664D+00-0.703811D-01-0.125065D-01
               6            7            8            9           10
      1-0.102662D+00-0.133688D-01-0.550515D-01 0.725077D-01-0.909938D+00
      2-0.722319D-01-0.434086D-01-0.325541D-01 0.101877D+00 0.185330D+00
      3-0.128735D+00 0.414994D-01 0.325386D-01-0.158926D-01 0.330723D-01
              11           12           13           14           15
      1 0.138203D+00 0.283031D-01 0.305162D+00-0.897361D-01-0.485299D-01
      2-0.525954D+00-0.133995D+00-0.269650D-01 0.319567D+00 0.909589D-01
      3-0.158387D+00-0.376031D+00-0.699272D-01 0.132739D+00 0.238729D+00
              16           17           18           19           20
      1 0.337395D+00 0.150811D+00 0.668913D-01-0.928313D-01-0.157754D-02
      2 0.514987D-01 0.353088D+00-0.544919D-01-0.103429D-01 0.158497D-01
      3 0.439123D-01 0.538021D-01-0.286746D-01 0.242110D-01-0.131241D-01
              21           22           23           24           25
      1-0.317845D-01 0.337205D-01 0.726110D-01 0.864813D-03 0.429989D-01
      2-0.599824D-02 0.230142D-01-0.926561D-01-0.236329D-01-0.160132D-01
      3 0.192963D+00 0.972140D-02-0.244848D-01 0.632514D-01-0.159811D-01
              26           27           28           29           30
      1-0.306940D-01 0.539813D-01 0.111000D-01-0.238397D-01-0.853056D-01
      2 0.227811D-01 0.799423D-01-0.213198D-01 0.544281D-01-0.663729D-01
      3 0.716589D-01-0.360916D-01 0.207250D-02-0.640991D-01-0.533511D-01
              31           32           33           34           35
      1-0.280045D-01-0.110202D+00-0.835843D-01 0.879548D-01 0.452022D-01
      2-0.125571D+00 0.326288D-01-0.329378D-01 0.267559D-01 0.243364D-01
      3-0.557521D+00-0.360689D+00 0.256602D+00 0.571325D-01 0.885514D-01
              36           37           38           39           40
      1-0.470796D-01 0.363956D-01 0.423739D-01-0.101819D-01 0.124266D+00
      2 0.238854D-01 0.104663D+00-0.669989D-02-0.825480D-01 0.594875D-01
      3 0.769504D-02 0.167272D+00 0.383099D-01-0.369631D-01 0.325286D+00
              41           42           43           44           45
      1-0.347378D-02 0.904795D-01-0.207390D+00-0.718545D-01 0.191103D-01
      2 0.195198D+00 0.385258D-02-0.117969D+00-0.385124D+00 0.700361D-01
      3 0.275968D+00-0.728840D+00-0.730513D+00-0.217572D+00-0.323956D+00
              46           47           48
      1-0.342979D+00 0.248652D-01 0.616743D-01
      2 0.759276D-03-0.296582D+00 0.138776D+00
      3 0.718334D+00 0.701557D-01 0.648629D+00
 Hessian after L701:
                1             2             3             4             5
      1  0.126669D+02
      2  0.207156D+01  0.165422D+02
      3 -0.297403D+00 -0.426270D+00  0.205353D+02
      4 -0.432055D+01  0.248125D+00  0.112327D+01  0.437167D+01
      5  0.347492D+00 -0.463631D+01  0.835567D+00 -0.419851D+00  0.415311D+01
      6  0.111822D+01  0.578833D+00 -0.201111D+01 -0.126456D+01 -0.926673D+00
      7 -0.391299D+01  0.977975D+00 -0.991590D+00  0.158331D+00  0.233326D-03
      8  0.105550D+01 -0.342643D+01 -0.131582D+01 -0.907760D-03  0.138861D+00
      9 -0.943468D+00 -0.116717D+01 -0.351859D+01  0.262269D-01  0.920661D-01
     10  0.105942D+01 -0.108790D+01  0.629388D+00 -0.209543D+00  0.730431D-01
     11 -0.135369D+01 -0.826411D+01 -0.553497D-01  0.870581D-01  0.906545D-01
     12  0.693675D+00 -0.691364D-01 -0.846528D+01  0.845443D-01  0.819913D-01
     13  0.103835D+00 -0.155893D+00  0.963330D-01 -0.639070D-01 -0.302468D-01
     14  0.138567D-01  0.117978D+00 -0.296757D-02 -0.156614D-01  0.184535D-01
     15  0.230051D-01  0.334011D-01  0.129903D+00 -0.262032D-01 -0.105538D-01
     16 -0.561325D+01 -0.195850D+01 -0.447064D+00  0.177754D+00 -0.305773D-01
     17 -0.188023D+01 -0.112220D+01  0.973937D+00 -0.173828D-01  0.121550D+00
     18 -0.476153D+00  0.101210D+01 -0.635071D+01 -0.734119D-03 -0.289140D+00
     19  0.671799D-02 -0.383679D-01 -0.202704D-01 -0.314449D-01  0.165831D-01
     20 -0.170847D+00  0.160253D-01  0.334439D-01  0.130940D-01 -0.201297D-01
     21 -0.455827D-01  0.297888D-01 -0.448247D-01 -0.117452D-01  0.251972D-01
     22  0.592829D-01 -0.126950D+00 -0.173284D-01 -0.290527D-02  0.212906D-02
     23 -0.131449D+00  0.868629D-01  0.193297D-01  0.408398D-02  0.775840D-03
     24 -0.200799D-01  0.226478D-01 -0.469015D-01  0.175786D-02 -0.973714D-03
     25  0.261649D-01 -0.302283D-02 -0.337513D-01 -0.213445D-02 -0.105603D-02
     26  0.587122D-02 -0.265755D-01  0.964699D-03  0.751285D-03 -0.271165D-02
     27 -0.607563D-01  0.704854D-02  0.581508D-02  0.291462D-03  0.311002D-02
     28 -0.201322D-01 -0.352385D-02  0.708642D-02  0.356933D-01 -0.559573D-01
     29  0.208978D-02 -0.156286D-02  0.451983D-04 -0.353476D-01 -0.291695D-02
     30  0.345354D-01 -0.669256D-02 -0.139066D-02 -0.765802D-02  0.259410D-02
     31  0.174699D+00 -0.871884D-01 -0.751388D-01 -0.683693D-01  0.440330D-01
     32 -0.736796D-01 -0.295523D-01 -0.521991D-01  0.517829D-01  0.753212D-01
     33 -0.882411D-01 -0.205279D+00  0.144123D+00  0.568827D-01  0.194292D+00
     34 -0.159252D-01  0.139138D-01  0.322077D-01 -0.955907D-03  0.491626D-02
     35  0.335547D-02 -0.143260D-01 -0.106686D-02  0.102001D-02 -0.275130D-02
     36  0.157936D-01  0.262633D-01  0.389033D-01  0.102774D-01  0.131716D-01
     37 -0.422797D-01 -0.156933D-01 -0.136843D-01 -0.770317D-03 -0.270100D-02
     38 -0.150632D-01  0.101676D+00  0.104457D+00  0.252246D-02  0.539489D-03
     39 -0.141595D-01  0.110620D+00  0.284334D-01  0.187233D-02 -0.115124D-02
     40 -0.306726D-01 -0.255089D-01 -0.307342D-02  0.403540D-03  0.765501D-02
     41 -0.169612D-01 -0.275582D-01 -0.363024D-03  0.800265D-02  0.733862D-02
     42 -0.113145D-01 -0.133814D-01 -0.217840D-01  0.391504D-02  0.858264D-02
     43 -0.621802D-01 -0.111868D+00  0.735703D-01 -0.411116D-01  0.215065D-01
     44 -0.210978D+00  0.394319D+00 -0.622852D-02  0.368002D-01  0.288985D-01
     45  0.127894D+00  0.144422D+00 -0.156145D+00 -0.361126D-02 -0.377662D-01
     46 -0.790946D-01  0.302839D+00 -0.625516D-01 -0.216588D-02  0.227977D-01
     47  0.353165D+00  0.289524D+00 -0.107482D+00  0.359098D-01  0.293207D-01
     48 -0.559656D-01 -0.772007D-01 -0.265762D+00  0.547473D-02  0.968519D-02
                6             7             8             9            10
      6  0.187600D+01
      7  0.237130D-01  0.393034D+01
      8  0.122525D+00 -0.118352D+01  0.298006D+01
      9 -0.228033D+00  0.117083D+01  0.127649D+01  0.351803D+01
     10  0.112625D+00 -0.344545D+00  0.595741D-01 -0.153824D+00  0.581281D+01
     11  0.604417D-01  0.352485D-01  0.150407D+00 -0.916974D-01  0.495736D+00
     12  0.384677D+00 -0.973720D-01 -0.109406D+00  0.207650D+00  0.109256D+01
     13 -0.170795D-01  0.108492D+00  0.954015D-01 -0.833795D-01 -0.552301D+01
     14  0.589770D-02  0.839622D-01  0.102358D-01 -0.464017D-01  0.183896D+01
     15  0.105481D-01 -0.780087D-01 -0.485628D-01  0.403993D-02 -0.144197D+01
     16  0.369203D-02  0.122233D+00  0.567915D-02 -0.190647D-01 -0.382516D+00
     17 -0.175604D+00  0.251124D-01 -0.660503D-01  0.157352D+00 -0.281987D+00
     18 -0.176117D+00 -0.574531D-02  0.239341D+00  0.556307D-01 -0.814833D-01
     19 -0.199789D-01 -0.214971D-01 -0.523240D-01  0.274691D-01  0.288817D+00
     20  0.359953D-01 -0.278231D-01  0.617548D-01 -0.498578D-01 -0.221939D+00
     21  0.418160D-01  0.161413D-01 -0.355912D-01 -0.276309D-01 -0.292800D-01
     22 -0.180277D-02 -0.281390D-02 -0.174829D-02  0.207587D-02  0.617828D-02
     23  0.788065D-02  0.408485D-02  0.709924D-02 -0.640395D-02 -0.275122D-01
     24  0.142276D-02  0.169179D-04  0.311951D-03 -0.923026D-03 -0.343144D-02
     25 -0.637728D-02  0.763044D-02 -0.337574D-01 -0.184028D-03  0.316896D-01
     26 -0.401858D-02 -0.158408D-01  0.193919D-02  0.375511D-02  0.231805D-02
     27  0.112529D-01 -0.815963D-02  0.187381D-01 -0.173541D-01 -0.338739D-01
     28 -0.345742D-01 -0.391565D-02 -0.479069D-02  0.569094D-02  0.399719D-01
     29  0.125472D-01  0.134798D-02 -0.359261D-02  0.109300D-02 -0.326483D-02
     30 -0.346120D-01 -0.118493D-02 -0.944860D-02  0.717727D-02  0.336190D-01
     31  0.449741D-01  0.489566D-03 -0.644936D-02  0.165076D-03 -0.125176D+00
     32  0.192846D+00  0.110039D-01 -0.280777D-01 -0.150561D-01 -0.418547D+00
     33  0.156235D+00  0.331628D-03 -0.137049D-01 -0.313077D-03 -0.161850D+00
     34  0.121206D-01  0.450845D-02  0.465605D-02 -0.369785D-02 -0.779858D-01
     35  0.240091D-02 -0.642593D-02 -0.945539D-02 -0.317817D-02 -0.294236D-01
     36  0.252246D-01  0.443025D-02  0.507403D-02 -0.463370D-02 -0.681719D-01
     37 -0.355028D-02 -0.193515D-02 -0.295846D-02  0.105846D-02 -0.306264D-02
     38  0.641583D-02  0.427891D-02  0.648795D-02 -0.574168D-02 -0.347245D-01
     39  0.312450D-02  0.222101D-02  0.284744D-02 -0.347661D-02 -0.183668D-01
     40  0.752813D-02  0.233849D-02  0.132595D-01 -0.224113D-02 -0.744987D-01
     41  0.111877D-01  0.114400D-01  0.169322D-01 -0.348586D-02 -0.108603D-01
     42  0.123277D-02 -0.108001D-03 -0.306786D-02 -0.320639D-02  0.908329D-02
     43  0.777469D-02 -0.421475D-01  0.351796D-01 -0.176881D-01 -0.118985D+00
     44  0.272134D-01  0.525585D-01  0.131022D+00 -0.115112D+00 -0.406955D+00
     45 -0.451770D-01 -0.254838D-01 -0.113663D+00  0.174085D-01  0.132408D+00
     46  0.172760D-01 -0.452288D-02  0.172029D-01 -0.996766D-02 -0.379575D+00
     47  0.421111D-01  0.263593D-01  0.288113D-01 -0.266513D-01  0.534824D-01
     48 -0.164858D-01 -0.100303D-01 -0.160658D-01 -0.577546D-02 -0.174326D-01
               11            12            13            14            15
     11  0.106155D+02
     12  0.206845D+01  0.145124D+02
     13  0.232242D+01 -0.160688D+01  0.561207D+01
     14 -0.440694D+01 -0.198852D+01 -0.191263D+01  0.421142D+01
     15 -0.220792D+01 -0.565235D+01  0.165895D+01  0.211012D+01  0.574144D+01
     16 -0.203481D+00 -0.114621D+00 -0.142732D+00  0.225645D-01 -0.720045D-01
     17  0.528125D+00  0.156744D+00 -0.446476D-01  0.845440D-03  0.659649D-01
     18  0.153998D+00  0.149372D+00 -0.754600D-01  0.371213D-01  0.438585D-01
     19 -0.242136D+00 -0.159963D-01  0.294175D-01  0.601422D-02 -0.143370D-01
     20 -0.583328D-01  0.861049D-02 -0.128419D-01 -0.159823D-01  0.546996D-02
     21  0.210067D-01 -0.177082D+00 -0.579170D-02 -0.360082D-02 -0.748046D-02
     22 -0.172221D-01  0.830848D-03  0.683657D-02  0.847509D-03 -0.399269D-02
     23  0.208724D-01 -0.614857D-03 -0.835769D-02 -0.506510D-02  0.541306D-02
     24  0.437363D-02 -0.100296D-01 -0.203560D-02 -0.302953D-03 -0.295431D-03
     25 -0.191832D-01 -0.138405D-01  0.691711D-02  0.325753D-02 -0.522665D-02
     26 -0.193965D-01  0.737338D-03  0.216338D-02  0.920660D-03 -0.212051D-02
     27  0.157703D-01 -0.714960D-02 -0.687418D-02 -0.437432D-02  0.379841D-02
     28 -0.246145D-01  0.180019D-01  0.576854D-02  0.421281D-02 -0.379476D-02
     29 -0.186652D-01 -0.984780D-04  0.178731D-02  0.487858D-03 -0.131092D-02
     30 -0.173269D-01 -0.569872D-02  0.551540D-02  0.413756D-02 -0.455138D-02
     31 -0.496165D+00 -0.199165D+00 -0.724299D-02  0.425630D-01 -0.140264D-01
     32  0.259472D+00  0.285876D+00  0.120227D-01 -0.378767D-01  0.337083D-02
     33  0.281636D+00 -0.351689D+00  0.737900D-02 -0.327403D-01  0.979795D-02
     34 -0.157937D-01 -0.191604D-01 -0.240675D-02  0.378395D-04  0.752948D-02
     35 -0.558632D-01  0.425322D-01  0.651919D-02  0.385872D-02 -0.971380D-02
     36  0.140047D+00  0.547556D-01 -0.169652D-02 -0.127852D-01  0.887850D-03
     37 -0.365878D-01 -0.152841D-01  0.354551D-02  0.465328D-03 -0.576886D-02
     38  0.522981D-01  0.305663D-01 -0.820957D-02 -0.506839D-02  0.937416D-02
     39  0.441942D-01 -0.100728D-02 -0.658248D-02 -0.106327D-02  0.520756D-02
     40  0.103997D-01  0.793722D-02  0.393396D-02 -0.260171D-03  0.286977D-02
     41  0.893386D-01  0.349878D-01 -0.150820D-02 -0.158384D-01  0.187177D-02
     42  0.330375D-01 -0.696297D-01  0.874933D-03 -0.671711D-02 -0.934017D-03
     43 -0.452127D+00  0.166812D+00  0.730972D-01 -0.410690D-01 -0.194982D-01
     44  0.421060D+00 -0.261926D+00 -0.998042D-01 -0.423792D-02  0.250451D-01
     45 -0.229182D+00 -0.256861D+00  0.819311D-02  0.843354D-02 -0.372441D-01
     46 -0.898638D-01  0.179558D-01 -0.214614D+00 -0.471219D-01 -0.752433D-02
     47  0.595574D+00 -0.280788D+00 -0.166175D+00  0.126816D+00  0.201457D-01
     48 -0.221479D+00 -0.312092D+00  0.285313D-01 -0.662363D-01 -0.246625D+00
               16            17            18            19            20
     16  0.169392D+02
     17 -0.166787D+00  0.158186D+02
     18  0.777237D+00  0.987016D+00  0.170641D+02
     19 -0.600716D+00 -0.112042D+00 -0.241513D+00  0.111703D+02
     20 -0.112503D+00 -0.627354D+01  0.584778D-01 -0.482060D-01  0.159768D+02
     21 -0.291548D+00  0.518852D-01 -0.619864D+01  0.426770D+00 -0.668333D-01
     22  0.804398D-01  0.196153D-01 -0.233054D-01 -0.409901D+01 -0.968789D+00
     23 -0.808296D-01  0.994281D-01  0.260989D-01 -0.689610D+00 -0.173125D+01
     24 -0.275251D-01  0.178721D-01  0.445569D-01 -0.698877D-01  0.281752D+00
     25  0.726727D-01 -0.692229D-01  0.105134D+00 -0.390819D+01  0.617829D+00
     26 -0.157654D-01  0.547595D-01  0.169188D-01  0.486988D+00 -0.355042D+01
     27  0.251019D-01  0.230931D-01  0.211560D-01 -0.739487D+00 -0.113464D+01
     28  0.499772D-01  0.225759D-01 -0.102579D+00 -0.381925D+01  0.525160D+00
     29  0.515679D-01  0.923761D-01  0.198292D-01  0.419165D+00 -0.397573D+01
     30 -0.560730D-02  0.259214D-01  0.543747D-01  0.953531D+00  0.869022D+00
     31 -0.456432D+01  0.876268D+00  0.228757D+01  0.250434D+00  0.642849D-01
     32  0.921904D+00 -0.536940D+01  0.174210D+01 -0.135609D-01 -0.380115D-01
     33  0.246320D+01  0.176709D+01 -0.205105D+01  0.115461D-01 -0.108424D-01
     34  0.698249D-01  0.158924D-01 -0.224367D-01  0.410246D-01 -0.101698D-01
     35 -0.103479D-01  0.110627D+00 -0.227345D-01 -0.230989D-01 -0.280833D-01
     36 -0.570702D-01  0.380672D-01  0.236142D-02  0.591750D-01 -0.857622D-02
     37  0.112035D+00 -0.475694D-01 -0.379347D-01 -0.738406D-02  0.776771D-02
     38 -0.341636D-01 -0.306128D-02 -0.611359D-01  0.323939D-01  0.694569D-02
     39 -0.215174D-01 -0.128124D+00  0.267334D-01  0.225075D-01  0.230014D-01
     40  0.106856D-01 -0.150796D-01  0.536182D-01  0.942647D-01  0.368649D-01
     41 -0.250171D-01  0.129264D+00  0.462170D-01  0.414081D-01 -0.220547D-01
     42 -0.328485D-01 -0.560842D-02  0.801900D-01 -0.949215D-03  0.210645D-02
     43 -0.631014D+01  0.175147D+01 -0.194171D+01  0.209154D+00  0.145236D+00
     44  0.169637D+01 -0.414307D+01 -0.399978D+01  0.570153D-01 -0.178822D+00
     45 -0.192003D+01 -0.395729D+01 -0.310571D+01 -0.223774D+00 -0.227544D-02
     46 -0.211668D-01 -0.759934D-01 -0.214513D+00  0.397376D+00  0.162881D+00
     47 -0.601121D-01  0.217660D-01  0.335666D-01  0.159779D+00 -0.169150D+00
     48 -0.260333D+00  0.168400D-02  0.339931D+00 -0.154806D+00 -0.448511D-01
               21            22            23            24            25
     21  0.159360D+02
     22 -0.846521D-01  0.368822D+01
     23  0.242262D+00  0.105450D+01  0.170970D+01
     24 -0.429853D+01  0.217069D+00 -0.302524D+00  0.428328D+01
     25 -0.927009D+00  0.709883D-01 -0.880894D-02 -0.473621D-02  0.352227D+01
     26 -0.111208D+01 -0.639902D-02 -0.564929D-01  0.790103D-01 -0.605851D+00
     27 -0.256394D+01 -0.787627D-02  0.411442D-01  0.456936D-01  0.975810D+00
     28  0.120657D+01  0.762060D-01 -0.128615D-01 -0.156681D-02  0.862687D-01
     29  0.875848D+00 -0.137122D-01 -0.174945D-01 -0.895121D-01  0.981147D-02
     30 -0.236236D+01  0.228423D-02 -0.471415D-01  0.280341D-01 -0.460650D-02
     31  0.125917D+00 -0.401999D-01 -0.117903D-01 -0.450001D-02 -0.816866D-02
     32 -0.181923D-01  0.742343D-02  0.109387D-01  0.266741D-02  0.859074D-02
     33 -0.423155D-01 -0.163811D-01  0.187168D-02 -0.718148D-03  0.658508D-02
     34  0.561628D-01  0.622612D-02 -0.102905D-01  0.315158D-02  0.224631D-01
     35 -0.209629D-01 -0.641539D-02  0.672953D-02 -0.190822D-02 -0.400665D-02
     36  0.124593D-01  0.702895D-02 -0.930659D-02 -0.147424D-03  0.146471D-01
     37  0.562837D-02  0.167618D-01  0.159529D-03  0.227005D-01 -0.888759D-03
     38  0.360222D-01  0.170977D-01 -0.273998D-01  0.869530D-02  0.129300D-01
     39 -0.439989D-02  0.374553D-01 -0.765178D-02  0.345134D-02  0.568218D-02
     40 -0.341809D-03 -0.347929D-03 -0.539559D-02  0.339340D-04  0.971851D-02
     41 -0.193742D-02  0.145173D-03 -0.164219D-02  0.383511D-03  0.595632D-02
     42 -0.268722D-01 -0.133548D-02  0.111131D-02 -0.206937D-02 -0.434397D-02
     43 -0.285590D+00  0.901562D-01 -0.423036D-01 -0.947380D-01  0.510022D-01
     44  0.186608D-01  0.480453D-01 -0.846843D-01 -0.254042D-01  0.756469D-01
     45 -0.587559D-01 -0.941286D-01  0.164895D-01 -0.317399D-01 -0.974703D-01
     46 -0.155649D+00  0.439798D-01 -0.336171D-01 -0.162291D-01  0.115923D-01
     47 -0.414722D-01 -0.856583D-02 -0.183759D-01  0.291085D-02  0.108868D-01
     48 -0.177424D+00 -0.159414D-01  0.120410D-01 -0.150907D-01 -0.103124D-01
               26            27            28            29            30
     26  0.351917D+01
     27  0.108354D+01  0.257386D+01
     28  0.887178D-02 -0.766253D-02  0.333986D+01
     29  0.824413D-01  0.357439D-01 -0.589605D+00  0.390387D+01
     30 -0.108417D-02 -0.967960D-01 -0.119447D+01 -0.887268D+00  0.241597D+01
     31  0.287899D-01 -0.925105D-02  0.958049D-01  0.514655D-01  0.125245D+00
     32 -0.599337D-02 -0.153092D-02  0.491480D-01 -0.392598D-01  0.370537D-01
     33  0.187449D-02 -0.744847D-02  0.131506D+00  0.417596D-01  0.510031D-01
     34  0.813419D-02 -0.419245D-03  0.793970D-03  0.167689D-02  0.454712D-02
     35 -0.874720D-02  0.379578D-02 -0.439208D-02 -0.265647D-02 -0.550414D-02
     36  0.532794D-02 -0.806284D-02  0.235640D-02  0.265574D-02  0.506648D-02
     37  0.258409D-02  0.674666D-03 -0.120852D-02  0.115565D-02  0.160137D-02
     38  0.997030D-02 -0.660521D-02  0.830062D-02  0.453768D-02  0.124045D-01
     39  0.661484D-02 -0.701795D-02  0.834814D-02  0.676262D-02  0.854299D-02
     40  0.664929D-02 -0.485781D-02 -0.178444D-02  0.117703D-02  0.324310D-02
     41  0.568351D-03 -0.228846D-02 -0.963791D-03 -0.417878D-03  0.143638D-02
     42 -0.225109D-02 -0.160144D-02  0.234368D-02 -0.177707D-04 -0.161079D-02
     43  0.735210D-01 -0.101926D+00  0.853933D-01  0.771577D-01  0.284905D-01
     44  0.286384D-02 -0.711290D-01  0.589196D-01 -0.152467D-01  0.122473D-01
     45 -0.675635D-01  0.454428D-01 -0.355387D-01 -0.181773D-01 -0.472728D-01
     46  0.172141D-01 -0.207337D-01  0.305470D-01  0.235277D-01  0.209114D-01
     47 -0.229902D-02 -0.114117D-01  0.195201D-01 -0.617074D-02  0.964872D-02
     48 -0.962409D-02  0.235739D-02 -0.172136D-02  0.100683D-03 -0.158708D-01
               31            32            33            34            35
     31  0.138076D+02
     32  0.232195D+00  0.132457D+02
     33 -0.126374D+01 -0.105908D+01  0.100760D+02
     34 -0.393584D+01 -0.870975D+00  0.797727D+00  0.391514D+01
     35 -0.811049D+00 -0.333447D+01 -0.114688D+01  0.807045D+00  0.343021D+01
     36  0.927225D+00 -0.140474D+01 -0.335142D+01 -0.952998D+00  0.129334D+01
     37 -0.397493D+01 -0.888597D+00 -0.497910D+00  0.228371D-01  0.102170D+00
     38 -0.941667D+00 -0.247955D+01  0.101793D+01  0.108781D+00 -0.924998D-01
     39 -0.604351D+00  0.119319D+01 -0.384302D+01 -0.168903D-01  0.304818D-01
     40 -0.118377D+01  0.780160D+00 -0.159577D+01  0.290924D-01 -0.101355D-01
     41  0.835009D+00 -0.221119D+01 -0.907359D+00 -0.278880D-01 -0.526245D-04
     42 -0.128588D+01 -0.686292D+00 -0.133284D+01  0.356832D-01  0.341860D-01
     43 -0.267166D+00  0.291410D-01 -0.278958D+00 -0.283478D-01 -0.256075D-01
     44  0.775630D-01 -0.154926D+00  0.178135D+00 -0.292133D-01 -0.608284D-02
     45 -0.256993D+00  0.293397D-01  0.639198D+00  0.714900D-01 -0.999582D-01
     46 -0.153887D+00  0.161988D+00  0.427691D+00 -0.504499D-01  0.107926D-01
     47  0.102137D+00  0.136830D+00 -0.108706D+00 -0.723410D-03  0.355551D-02
     48  0.201951D+00 -0.249357D+00 -0.955514D-01 -0.501732D-02 -0.948280D-01
               36            37            38            39            40
     36  0.292335D+01
     37 -0.128755D-01  0.395790D+01
     38  0.239213D-01  0.895214D+00  0.247849D+01
     39  0.966135D-01  0.636051D+00 -0.132571D+01  0.345180D+01
     40  0.188456D-01 -0.198736D-01  0.240913D-02  0.620420D-01  0.425108D+01
     41  0.553782D-01  0.146034D-01  0.386826D-01 -0.136412D-01 -0.933508D+00
     42 -0.174390D-01  0.523372D-01  0.971104D-02 -0.706821D-02  0.201816D+01
     43  0.516290D-01 -0.576995D-01 -0.183373D-02 -0.194038D-01 -0.120623D+00
     44 -0.910924D-01 -0.548160D-02 -0.589669D-01  0.201053D-01  0.722952D-01
     45  0.125112D+00 -0.357530D-01  0.750552D-01  0.163969D+00 -0.314594D+00
     46 -0.185962D-01 -0.305458D-02 -0.482671D-01 -0.749077D-01 -0.296994D+01
     47 -0.767451D-01 -0.245311D-01 -0.330797D-01  0.395242D-01  0.590174D-01
     48  0.969708D-01 -0.972907D-01  0.646427D-01  0.781122D-01 -0.253402D+00
               41            42            43            44            45
     41  0.467345D+01
     42  0.127706D+01  0.548886D+00
     43  0.741540D-02 -0.405133D+00  0.346014D+01
     44  0.324029D+00  0.792468D-01 -0.302922D+01  0.806866D+01
     45  0.382329D-01  0.171030D+00  0.117058D+01  0.386015D+01  0.879642D+01
     46  0.927260D-01 -0.380481D+00  0.307946D+01  0.160644D+01  0.149681D+01
     47 -0.300085D+01 -0.727707D+00  0.156340D+01 -0.472481D+01  0.353756D+00
     48 -0.537682D+00  0.683717D+00  0.166578D+01  0.349870D+00 -0.621968D+01
               46            47            48
     46  0.315516D+00
     47 -0.212355D+01  0.672253D+01
     48 -0.101949D+01  0.879300D+00  0.616927D+01
 ReadGW:  IGet=0 IStart=         114 Next=        7213 LGW=        7099.
 ICntrl=12127.
 Symmetry not used in FoFDir.
 MinBra= 0 MaxBra= 2 Meth= 1.
 IRaf=       0 NMat=   1 IRICut=       1 DoRegI=T DoRafI=F ISym2E= 0 JSym2E=0.
 PrsmSu:  NPrtUS=   8 ThrOK=T
 PRISM was handed    24477420 working-precision words and  2511 shell-pairs
 PRISM was handed    24477420 working-precision words and  2511 shell-pairs
 PRISM was handed    24477420 working-precision words and  2511 shell-pairs
 PRISM was handed    24477420 working-precision words and  2511 shell-pairs
 PRISM was handed    24477420 working-precision words and  2511 shell-pairs
 PRISM was handed    24477420 working-precision words and  2511 shell-pairs
 PRISM was handed    24477420 working-precision words and  2511 shell-pairs
 PRISM was handed    24477420 working-precision words and  2511 shell-pairs
 Pruned (  75, 302) grid will be used in CalDFT.
 CkSvGd:  ISavGI=        -1 IRadAn=       4 IRASav=       4 ISavGd=        -1.
 CalDSu:  NPrtUS=   8 ThrOK=T
 IPart= 0 IRanGd=          0 ScrnBf=T ScrnGd=T RCrit=4.00D+00 DoMicB=T.
 IPart= 2 IRanGd=          0 ScrnBf=T ScrnGd=T RCrit=4.00D+00 DoMicB=T.
 IPart= 7 IRanGd=          0 ScrnBf=T ScrnGd=T RCrit=4.00D+00 DoMicB=T.
 CutRad = 1000.00    CtRdIn =    0.00    XCrit =  15.00   ICut = 0
 CutRad = 1000.00    CtRdIn =    0.00    XCrit =  15.00   ICut = 0
 CutRad = 1000.00    CtRdIn =    0.00    XCrit =  15.00   ICut = 0
 IPart= 5 IRanGd=          0 ScrnBf=T ScrnGd=T RCrit=4.00D+00 DoMicB=T.
 IPart= 6 IRanGd=          0 ScrnBf=T ScrnGd=T RCrit=4.00D+00 DoMicB=T.
 IPart= 3 IRanGd=          0 ScrnBf=T ScrnGd=T RCrit=4.00D+00 DoMicB=T.
 IPart= 1 IRanGd=          0 ScrnBf=T ScrnGd=T RCrit=4.00D+00 DoMicB=T.
 CutRad = 1000.00    CtRdIn =    0.00    XCrit =  15.00   ICut = 0
 IPart= 4 IRanGd=          0 ScrnBf=T ScrnGd=T RCrit=4.00D+00 DoMicB=T.
 CutRad = 1000.00    CtRdIn =    0.00    XCrit =  15.00   ICut = 0
 CutRad = 1000.00    CtRdIn =    0.00    XCrit =  15.00   ICut = 0
 CutRad = 1000.00    CtRdIn =    0.00    XCrit =  15.00   ICut = 0
 CutRad = 1000.00    CtRdIn =    0.00    XCrit =  15.00   ICut = 0
 IPart= 7        13958 of        15888 points in      31 batches and       98 microbatches, Max-NSigAt=      16 Max-NSgAt2=      16
 IPart= 5        13015 of        14596 points in      29 batches and       86 microbatches, Max-NSigAt=      16 Max-NSgAt2=      16
 IPart= 4        14405 of        16330 points in      34 batches and      110 microbatches, Max-NSigAt=      16 Max-NSgAt2=      16
 IPart= 6        13016 of        14762 points in      31 batches and       88 microbatches, Max-NSigAt=      16 Max-NSgAt2=      16
 IPart= 1        14247 of        16438 points in      34 batches and      100 microbatches, Max-NSigAt=      16 Max-NSgAt2=      16
 IPart= 3        14409 of        16160 points in      33 batches and      109 microbatches, Max-NSigAt=      16 Max-NSgAt2=      16
 IPart= 0        13791 of        15796 points in      33 batches and       92 microbatches, Max-NSigAt=      16 Max-NSgAt2=      16
 IPart= 2        14867 of        17674 points in      36 batches and       84 microbatches, Max-NSigAt=      16 Max-NSgAt2=      16
 Polarizability after L703:
                1             2             3
      1  0.642223D+02
      2  0.229313D+01  0.559408D+02
      3 -0.263450D+01  0.130752D+01  0.648900D+02
 Dipole Derivatives after L703:
               1            2            3            4            5
      1 0.662963D+00-0.920189D-01 0.153154D-01-0.474443D-01 0.438191D-02
      2-0.835635D-01 0.314093D+00-0.371200D-01-0.635522D-02 0.760141D-02
      3 0.218100D-01 0.871383D-01 0.320664D+00-0.703811D-01-0.125065D-01
               6            7            8            9           10
      1-0.102662D+00-0.133688D-01-0.550515D-01 0.725077D-01-0.909938D+00
      2-0.722319D-01-0.434086D-01-0.325541D-01 0.101877D+00 0.185330D+00
      3-0.128735D+00 0.414994D-01 0.325386D-01-0.158926D-01 0.330723D-01
              11           12           13           14           15
      1 0.138203D+00 0.283031D-01 0.305162D+00-0.897361D-01-0.485299D-01
      2-0.525954D+00-0.133995D+00-0.269650D-01 0.319567D+00 0.909589D-01
      3-0.158387D+00-0.376031D+00-0.699272D-01 0.132739D+00 0.238729D+00
              16           17           18           19           20
      1 0.337395D+00 0.150811D+00 0.668913D-01-0.928313D-01-0.157754D-02
      2 0.514987D-01 0.353088D+00-0.544919D-01-0.103429D-01 0.158497D-01
      3 0.439123D-01 0.538021D-01-0.286746D-01 0.242110D-01-0.131241D-01
              21           22           23           24           25
      1-0.317845D-01 0.337205D-01 0.726110D-01 0.864813D-03 0.429989D-01
      2-0.599824D-02 0.230142D-01-0.926561D-01-0.236329D-01-0.160132D-01
      3 0.192963D+00 0.972140D-02-0.244848D-01 0.632514D-01-0.159811D-01
              26           27           28           29           30
      1-0.306940D-01 0.539813D-01 0.111000D-01-0.238397D-01-0.853056D-01
      2 0.227811D-01 0.799423D-01-0.213198D-01 0.544281D-01-0.663729D-01
      3 0.716589D-01-0.360916D-01 0.207250D-02-0.640991D-01-0.533511D-01
              31           32           33           34           35
      1-0.280045D-01-0.110202D+00-0.835843D-01 0.879548D-01 0.452022D-01
      2-0.125571D+00 0.326288D-01-0.329378D-01 0.267559D-01 0.243364D-01
      3-0.557521D+00-0.360689D+00 0.256602D+00 0.571325D-01 0.885514D-01
              36           37           38           39           40
      1-0.470796D-01 0.363956D-01 0.423739D-01-0.101819D-01 0.124266D+00
      2 0.238854D-01 0.104663D+00-0.669989D-02-0.825480D-01 0.594875D-01
      3 0.769504D-02 0.167272D+00 0.383099D-01-0.369631D-01 0.325286D+00
              41           42           43           44           45
      1-0.347378D-02 0.904795D-01-0.207390D+00-0.718545D-01 0.191103D-01
      2 0.195198D+00 0.385258D-02-0.117969D+00-0.385124D+00 0.700361D-01
      3 0.275968D+00-0.728840D+00-0.730513D+00-0.217572D+00-0.323956D+00
              46           47           48
      1-0.342979D+00 0.248652D-01 0.616743D-01
      2 0.759276D-03-0.296582D+00 0.138776D+00
      3 0.718334D+00 0.701557D-01 0.648629D+00
 Hessian after L703:
                1             2             3             4             5
      1  0.493995D+00
      2  0.627707D-01  0.492788D+00
      3 -0.602152D-02 -0.489072D-01  0.600472D+00
      4 -0.647486D-01 -0.169781D-01 -0.583807D-01  0.850578D-01
      5 -0.160556D-01 -0.610591D-01 -0.461407D-01  0.134320D-01  0.642295D-01
      6 -0.596870D-01 -0.499667D-01 -0.264272D+00  0.741745D-01  0.543886D-01
      7 -0.833958D-01 -0.608542D-01  0.609065D-01  0.551955D-02  0.535736D-02
      8 -0.680001D-01 -0.160303D+00  0.106569D+00  0.336296D-02  0.610668D-02
      9  0.671324D-01  0.108027D+00 -0.161042D+00  0.109791D-01  0.198267D-01
     10 -0.225015D+00  0.316526D-01 -0.261929D-01 -0.316195D-01  0.388040D-02
     11 -0.498132D-02 -0.832845D-01  0.178384D-01 -0.403188D-02  0.475617D-02
     12 -0.303357D-02  0.193862D-01 -0.786404D-01 -0.333932D-01  0.481460D-02
     13 -0.291452D-01 -0.322633D-01  0.263263D-01  0.110532D-02 -0.623285D-03
     14  0.328725D-02  0.444030D-02 -0.346311D-02  0.120814D-02 -0.523867D-03
     15 -0.320519D-02 -0.362204D-02  0.144304D-02 -0.156926D-02 -0.630035D-03
     16 -0.818931D-01  0.672614D-02  0.535629D-02  0.431784D-02 -0.706083D-02
     17  0.195357D-01 -0.144226D+00 -0.311386D-01  0.105057D-02 -0.130188D-01
     18  0.408299D-02 -0.223561D-01 -0.802714D-01  0.627561D-02 -0.303693D-01
     19 -0.153623D-01  0.878579D-02  0.121004D-02  0.421448D-03 -0.144966D-02
     20  0.297373D-01  0.297705D-02 -0.709021D-03 -0.585724D-03  0.223941D-03
     21  0.588823D-02 -0.226437D-02  0.127647D-02  0.675734D-03 -0.154671D-03
     22 -0.487222D-02 -0.377387D-02 -0.380155D-03  0.194230D-03  0.128029D-03
     23  0.281546D-03  0.101758D-02  0.639556D-03 -0.138306D-03  0.100530D-03
     24  0.551044D-03  0.511936D-03 -0.711300D-04 -0.166995D-03  0.357187D-03
     25  0.402017D-03 -0.579102D-03  0.362092D-03 -0.284506D-04  0.606298D-04
     26  0.138992D-03 -0.410492D-03 -0.472906D-03  0.194080D-03  0.882254D-04
     27  0.286059D-03  0.770973D-03 -0.552821D-03  0.710330D-04  0.812889D-04
     28  0.360291D-03 -0.136066D-02 -0.140555D-02 -0.850635D-04  0.675697D-03
     29  0.867868D-03 -0.208776D-04  0.344415D-03  0.394060D-03  0.207408D-03
     30  0.269601D-03 -0.526963D-03 -0.144656D-03  0.110893D-03  0.215966D-03
     31  0.471756D-02  0.239585D-02  0.720487D-02 -0.371081D-03  0.360637D-02
     32 -0.157150D-01 -0.141127D-01 -0.284760D-01  0.214465D-02 -0.473594D-02
     33 -0.332318D-02 -0.103630D-01 -0.109100D-01  0.481404D-03 -0.129168D-02
     34  0.517003D-03  0.119952D-02  0.625254D-04 -0.185941D-03 -0.268828D-03
     35  0.165557D-03  0.404338D-03 -0.423075D-03  0.683387D-04  0.144987D-03
     36 -0.211412D-02  0.739469D-03 -0.234206D-03  0.978551D-04  0.111341D-03
     37 -0.102723D-02 -0.190834D-02 -0.286916D-02  0.416015D-03 -0.104022D-02
     38  0.188421D-03 -0.152520D-03 -0.145326D-02  0.237563D-03 -0.595976D-03
     39 -0.430797D-02  0.989753D-03 -0.367963D-02  0.331860D-03 -0.123769D-02
     40  0.265352D-02 -0.188153D-02  0.227525D-03  0.134175D-04 -0.186800D-03
     41 -0.119666D-02 -0.206984D-02 -0.117981D-03  0.448694D-03 -0.236932D-03
     42 -0.268237D-02  0.164404D-02  0.235606D-02 -0.207586D-03  0.149884D-02
     43  0.273209D-02  0.677959D-02 -0.504938D-02 -0.564206D-03  0.116535D-02
     44 -0.173608D-01 -0.368960D-01  0.379759D-01 -0.168062D-03  0.442207D-02
     45  0.230143D-02  0.121613D-01 -0.602725D-02  0.143873D-03 -0.695598D-03
     46  0.818313D-04 -0.711074D-03 -0.135678D-02  0.557232D-03 -0.162066D-02
     47  0.633622D-02  0.907456D-03 -0.206513D-02 -0.639063D-03 -0.108866D-03
     48  0.386323D-02 -0.622412D-02  0.296957D-03  0.375846D-03 -0.774853D-03
                6             7             8             9            10
      6  0.281816D+00
      7 -0.422819D-02  0.111756D+00
      8 -0.492424D-02  0.716911D-01  0.168435D+00
      9 -0.181565D-01 -0.737471D-01 -0.117032D+00  0.165688D+00
     10 -0.892910D-02 -0.317430D-01  0.114285D-02  0.636050D-03  0.438554D+00
     11  0.652962D-03 -0.252424D-01  0.629070D-02 -0.326743D-02  0.109209D+00
     12  0.626454D-02  0.233128D-01 -0.398457D-02  0.608694D-02 -0.851239D-01
     13 -0.234611D-03 -0.667767D-02  0.163320D-02 -0.167436D-02 -0.122902D+00
     14  0.798677D-03  0.268620D-02  0.121190D-02 -0.112642D-02 -0.156312D+00
     15  0.584049D-03 -0.230592D-03 -0.304277D-03  0.127522D-02  0.118414D+00
     16 -0.257134D-02  0.411865D-02 -0.120895D-01 -0.316591D-02 -0.334724D-01
     17 -0.678759D-03  0.252073D-02 -0.158402D-01 -0.543477D-02  0.647222D-02
     18 -0.973989D-02 -0.553094D-02  0.192554D-01  0.391487D-02  0.255568D-02
     19 -0.403508D-03 -0.120758D-03 -0.801896D-03  0.224584D-04  0.143070D-02
     20 -0.262925D-03  0.528980D-03  0.873681D-03  0.323912D-03  0.679834D-02
     21 -0.261110D-03  0.125484D-03  0.823255D-03 -0.796748D-04  0.569834D-03
     22  0.307317D-03  0.692587D-04 -0.127944D-03 -0.335979D-03 -0.215500D-02
     23 -0.575843D-05 -0.234173D-03  0.314957D-03 -0.596767D-04  0.254356D-03
     24  0.335310D-03 -0.171423D-03 -0.336290D-03  0.580730D-04  0.873273D-05
     25 -0.151133D-03 -0.131544D-03  0.752330D-03 -0.264208D-05  0.458083D-03
     26 -0.658082D-05  0.627167D-03  0.786165D-05 -0.135205D-03 -0.200456D-03
     27  0.227623D-03 -0.220761D-04 -0.537397D-03  0.495294D-03 -0.261684D-04
     28  0.813234D-03  0.181535D-04  0.270194D-03  0.248709D-04  0.644666D-03
     29 -0.136842D-03 -0.521980D-04 -0.812466D-04  0.148125D-03 -0.463500D-03
     30  0.424352D-03 -0.168616D-03  0.229511D-04 -0.158547D-03  0.828074D-04
     31  0.126528D-02  0.176210D-03 -0.918190D-03  0.193535D-03  0.100382D-02
     32 -0.677889D-03 -0.714284D-04 -0.327387D-03  0.307838D-03 -0.504141D-03
     33  0.143162D-03  0.192824D-03  0.751614D-03  0.346753D-03 -0.142633D-02
     34  0.764295D-04 -0.139665D-03 -0.173057D-03  0.335761D-04 -0.246756D-03
     35  0.161270D-03 -0.127874D-03 -0.127917D-04 -0.796677D-04 -0.185202D-03
     36  0.348612D-03  0.592608D-04 -0.547837D-03 -0.388354D-04  0.110886D-02
     37 -0.288590D-03  0.000000D+00  0.382483D-03 -0.194255D-03 -0.194812D-03
     38 -0.312169D-03 -0.427441D-05  0.309707D-03 -0.239468D-04 -0.889381D-03
     39 -0.139950D-03 -0.414874D-04 -0.450498D-03  0.101237D-03  0.934805D-03
     40 -0.138576D-03 -0.123863D-03  0.922909D-03 -0.360229D-03 -0.197221D-02
     41 -0.687311D-04  0.120672D-03  0.651837D-03 -0.556640D-03  0.538229D-03
     42  0.701006D-03  0.189076D-03 -0.196818D-02  0.839951D-03  0.206683D-02
     43  0.251701D-03  0.647398D-03  0.844751D-04  0.149158D-02  0.416927D-02
     44  0.137932D-02  0.384691D-02 -0.875863D-02 -0.111116D-02  0.494959D-04
     45  0.211612D-02 -0.551766D-03  0.113381D-02  0.209618D-02 -0.125934D-02
     46 -0.256446D-03  0.269574D-04  0.186828D-02 -0.103313D-02  0.305998D-02
     47 -0.340226D-03 -0.792517D-03  0.112015D-02  0.193767D-03 -0.144284D-02
     48 -0.391658D-03 -0.938269D-04  0.152973D-02 -0.142708D-02 -0.342035D-02
               11            12            13            14            15
     11  0.354551D+00
     12 -0.218740D+00  0.221927D+00
     13 -0.115087D+00  0.874637D-01  0.159158D+00
     14 -0.268252D+00  0.200651D+00  0.146565D+00  0.261777D+00
     15  0.199580D+00 -0.161206D+00 -0.113329D+00 -0.195510D+00  0.161032D+00
     16  0.377954D-01  0.681005D-02  0.746408D-03  0.314827D-02 -0.375888D-03
     17 -0.129242D-02 -0.288969D-02  0.523163D-03  0.303756D-02  0.172683D-02
     18  0.998087D-03  0.156991D-02  0.948083D-03 -0.490801D-03  0.849225D-03
     19  0.228227D-03  0.188461D-03  0.469418D-04  0.998143D-04  0.164751D-03
     20 -0.653945D-02 -0.189229D-02 -0.718476D-03 -0.143396D-02  0.487193D-03
     21 -0.262565D-03  0.123568D-03  0.130546D-04 -0.316293D-03  0.119584D-03
     22  0.217509D-02  0.582964D-03  0.306330D-03  0.362747D-03 -0.181948D-03
     23  0.837691D-04 -0.573462D-04 -0.106843D-04 -0.159435D-03  0.198916D-04
     24 -0.220469D-03  0.502933D-03 -0.987900D-04 -0.217969D-04  0.253112D-04
     25  0.184984D-03 -0.427463D-03  0.109429D-03 -0.247490D-03 -0.454291D-04
     26  0.924080D-04  0.125257D-03 -0.153391D-05  0.779847D-05 -0.808098D-04
     27 -0.486363D-03  0.268213D-03 -0.125994D-03  0.136909D-03  0.000000D+00
     28  0.398441D-03  0.649527D-03  0.239442D-04 -0.379682D-03 -0.111568D-03
     29 -0.181465D-03  0.512275D-04 -0.910834D-05  0.938413D-04 -0.238036D-04
     30  0.333584D-03  0.330829D-03  0.387795D-04 -0.161820D-03 -0.530403D-04
     31 -0.688901D-03  0.268977D-02 -0.656825D-03  0.180581D-02 -0.109757D-02
     32  0.178153D-02  0.166597D-02 -0.146774D-04  0.132143D-02 -0.105060D-02
     33  0.425716D-03 -0.279015D-02  0.505665D-03 -0.204206D-02  0.249459D-03
     34  0.462904D-03  0.280851D-03  0.463469D-04 -0.126403D-03  0.444909D-03
     35 -0.923971D-03 -0.585866D-03  0.162722D-03  0.914450D-04  0.149904D-03
     36  0.350080D-03  0.177049D-02  0.130264D-03  0.287186D-03 -0.487152D-03
     37  0.124202D-02  0.407436D-03  0.289214D-03 -0.526556D-03 -0.123292D-03
     38  0.238489D-03 -0.776151D-03  0.109840D-03 -0.461838D-03  0.195612D-03
     39  0.609215D-03  0.118235D-02 -0.253433D-03  0.542352D-04  0.540584D-04
     40  0.192752D-03 -0.106156D-02  0.104809D-02 -0.127088D-03  0.185128D-02
     41  0.135419D-02  0.179534D-03  0.120182D-02 -0.233559D-02 -0.168886D-02
     42  0.145890D-03  0.190348D-02 -0.476408D-03  0.101809D-02 -0.291028D-02
     43 -0.482567D-02  0.275573D-02 -0.403314D-02  0.214877D-02 -0.143898D-02
     44  0.394143D-02 -0.538681D-03  0.154632D-02 -0.231833D-03 -0.102265D-02
     45 -0.128359D-02  0.941877D-03 -0.852813D-03  0.120294D-02 -0.658910D-03
     46  0.296849D-02 -0.210155D-02  0.534509D-03 -0.359231D-02  0.833269D-03
     47 -0.126153D-01  0.259082D-02 -0.301333D-02  0.141767D-02  0.177406D-02
     48  0.332632D-02 -0.235933D-03  0.161957D-02 -0.101616D-02 -0.316808D-03
               16            17            18            19            20
     16  0.527671D+00
     17 -0.657794D-02  0.450475D+00
     18  0.389004D-01  0.491785D-01  0.379228D+00
     19 -0.179043D+00  0.912440D-02  0.231658D-02  0.462375D+00
     20  0.174977D-01 -0.814089D-01 -0.274393D-02  0.528674D-02  0.581423D+00
     21 -0.832823D-02 -0.527475D-02 -0.718639D-01  0.587406D-03 -0.190241D-02
     22 -0.124325D-01  0.349989D-01  0.390922D-02 -0.657193D-01  0.675296D-01
     23  0.620382D-03 -0.264940D-02 -0.472922D-03  0.710086D-01 -0.292475D+00
     24  0.100277D-02 -0.827067D-03 -0.266652D-02  0.611696D-02 -0.260488D-01
     25 -0.736543D-02 -0.178293D-01  0.255120D-01 -0.774720D-01 -0.454600D-01
     26  0.593245D-03 -0.532685D-03 -0.320976D-02 -0.466632D-01 -0.118046D+00
     27 -0.754140D-03 -0.159351D-03 -0.166224D-02  0.712040D-01  0.108263D+00
     28 -0.145027D-01 -0.132928D-01 -0.285195D-01 -0.889806D-01 -0.378144D-01
     29  0.310170D-03 -0.136001D-03  0.300659D-02 -0.377376D-01 -0.833043D-01
     30  0.542782D-03  0.157140D-02  0.178721D-02 -0.881932D-01 -0.815853D-01
     31 -0.755232D-01  0.444670D-02 -0.494553D-01 -0.175797D-01 -0.971095D-02
     32 -0.344412D-02 -0.920383D-01 -0.432410D-01 -0.174693D-02  0.830756D-03
     33 -0.468884D-01 -0.436837D-01 -0.105726D+00 -0.510352D-02 -0.126756D-02
     34 -0.250027D-02  0.644491D-02 -0.734874D-02 -0.488085D-03  0.607156D-04
     35 -0.443601D-02  0.923159D-02 -0.714534D-02  0.632139D-05 -0.377104D-03
     36 -0.360252D-02  0.164368D-01 -0.483751D-02  0.321149D-03 -0.795483D-03
     37  0.600159D-02 -0.121813D-01 -0.522266D-02  0.167694D-02 -0.547134D-03
     38  0.407947D-02 -0.733174D-02 -0.128344D-02  0.103588D-02  0.983958D-03
     39  0.125244D-01 -0.191431D-01 -0.562222D-02  0.119228D-02 -0.207577D-03
     40 -0.216566D-01 -0.134670D-01  0.114261D-02 -0.101632D-02 -0.737730D-03
     41 -0.179527D-01 -0.786514D-02  0.555170D-02 -0.341826D-03 -0.644775D-03
     42  0.166615D-01  0.147836D-01 -0.273670D-01 -0.139040D-02  0.177945D-02
     43 -0.632155D-01  0.396732D-02 -0.148195D-01 -0.226228D-01 -0.247476D-01
     44  0.144958D-01 -0.920917D-01  0.344949D-01 -0.682910D-02 -0.235037D-03
     45 -0.317535D-01  0.321528D-01 -0.971047D-01  0.109924D-01  0.287436D-02
     46 -0.512510D-01 -0.257362D-01  0.252534D-01  0.245341D-02 -0.711739D-02
     47 -0.337054D-01 -0.431242D-02 -0.117267D-02 -0.557601D-05 -0.284764D-02
     48  0.156417D-01 -0.662021D-02  0.195123D-01  0.774283D-03  0.368758D-02
               21            22            23            24            25
     21  0.564266D+00
     22  0.638738D-02  0.736805D-01
     23 -0.263349D-01 -0.770335D-01  0.315411D+00
     24 -0.489689D-01 -0.695615D-02  0.286191D-01  0.490566D-01
     25  0.702513D-01  0.291433D-02  0.404748D-02 -0.834859D-02  0.841265D-01
     26  0.108868D+00 -0.113198D-01 -0.140165D-01  0.241244D-01  0.514979D-01
     27 -0.206745D+00 -0.251977D-02 -0.234776D-02  0.328912D-02 -0.775850D-01
     28 -0.873407D-01  0.347536D-02  0.259804D-02  0.837172D-02  0.487584D-02
     29 -0.815968D-01 -0.129027D-01 -0.980942D-02 -0.262868D-01  0.815272D-02
     30 -0.229979D+00 -0.154870D-03 -0.416183D-03 -0.195403D-02 -0.992805D-02
     31 -0.180333D-01  0.136677D-02 -0.292420D-03 -0.758368D-03 -0.319937D-03
     32  0.454047D-02  0.894462D-03  0.771894D-03  0.820187D-03 -0.748478D-03
     33 -0.259670D-02  0.121902D-02 -0.636610D-04  0.425389D-03  0.602487D-03
     34 -0.748032D-03  0.123593D-03 -0.160622D-03  0.364670D-04 -0.157458D-03
[...]
    Z6       -0.16807   0.00001   0.00000   0.00003   0.00000  -0.16807
    X7       -3.02608   0.00000   0.00000   0.00006   0.00011  -3.02596
    Y7       -0.46149  -0.00001   0.00000  -0.00001   0.00003  -0.46146
    Z7       -0.28291   0.00000   0.00000  -0.00008  -0.00012  -0.28303
    X8       -2.44156  -0.00001   0.00000   0.00000   0.00009  -2.44148
    Y8       -2.42803   0.00000   0.00000   0.00031   0.00036  -2.42767
    Z8       -0.48660  -0.00001   0.00000  -0.00319  -0.00323  -0.48984
    X9       -2.30802   0.00000   0.00000   0.00034   0.00037  -2.30765
    Y9        0.61720   0.00000   0.00000   0.00258   0.00264   0.61984
    Z9       -1.89041   0.00001   0.00000   0.00180   0.00175  -1.88865
   X10       -2.17687   0.00000   0.00000  -0.00016  -0.00010  -2.17697
   Y10        0.29837  -0.00002   0.00000  -0.00295  -0.00289   0.29548
   Z10        1.44033   0.00000   0.00000   0.00132   0.00127   1.44160
   X11       -7.25103  -0.00002   0.00000  -0.00024  -0.00018  -7.25121
   Y11       -1.35142   0.00000   0.00000  -0.00014  -0.00016  -1.35158
   Z11       -2.50298   0.00001   0.00000   0.00026   0.00024  -2.50274
   X12       -8.12025   0.00000   0.00000  -0.00020  -0.00017  -8.12042
   Y12       -0.01619   0.00002   0.00000  -0.00014  -0.00017  -0.01637
   Z12       -3.79487   0.00000   0.00000   0.00021   0.00019  -3.79468
   X13       -6.37286  -0.00001   0.00000  -0.00062  -0.00055  -6.37340
   Y13       -2.98477   0.00001   0.00000  -0.00039  -0.00039  -2.98515
   Z13       -3.39467   0.00000   0.00000   0.00035   0.00032  -3.39435
   X14       -9.05825   0.00001   0.00000   0.00008   0.00016  -9.05810
   Y14       -2.30592   0.00001   0.00000   0.00006   0.00001  -2.30590
   Z14       -0.92801  -0.00002   0.00000   0.00039   0.00038  -0.92763
   X15       -6.66516   0.00000   0.00000   0.00032   0.00041  -6.66475
   Y15       -2.02701  -0.00001   0.00000   0.00010   0.00009  -2.02692
   Z15        1.83511   0.00000   0.00000   0.00020   0.00017   1.83528
   X16       -9.27370   0.00000   0.00000   0.00028   0.00037  -9.27332
   Y16       -2.48798   0.00000   0.00000  -0.00003  -0.00007  -2.48805
   Z16        1.34252  -0.00002   0.00000   0.00043   0.00042   1.34294
         Item               Value     Threshold  Converged?
 Maximum Force            0.000026     0.000450     YES
 RMS     Force            0.000010     0.000300     YES
 Maximum Displacement     0.003233     0.001800     NO 
 RMS     Displacement     0.000844     0.001200     YES
 Predicted change in Energy=-3.369617D-08
 GradGradGradGradGradGradGradGradGradGradGradGradGradGradGradGradGradGrad


 Test job not archived.
 1\1\GINC-NODE23\Freq\UB3LYP\CBSB7\C4H9O3(2)\GOLDMANM\30-Jul-2019\0\\# 
 freq nosymm b3lyp/cbsb7 iop(7/33=1)\\NBO NRT\\0,2\C,-3.59116,1.27422,0
 .2406\H,-3.2348,1.5105,1.2527\H,-3.12411,1.97819,-0.45427\O,-4.98792,1
 .46382,0.12143\H,-5.41188,0.77259,0.64644\C,-3.12066,-0.15394,-0.08894
 \C,-1.60133,-0.24421,-0.14971\H,-1.29202,-1.28486,-0.2575\H,-1.22135,0
 .32661,-1.00036\H,-1.15195,0.15789,0.76219\C,-3.83708,-0.71514,-1.3245
 2\H,-4.29705,-0.00857,-2.00816\H,-3.37237,-1.57947,-1.79638\H,-4.79342
 ,-1.22024,-0.49108\O,-3.52705,-1.07265,0.9711\O,-4.90743,-1.31658,0.71
 043\\Version=AM64L-G03RevD.01\HF=-383.4315498\S2=0.758197\S2-1=0.\S2A=
 0.750033\RMSD=7.280e-09\RMSF=9.795e-06\ZeroPoint=0.1259069\Thermal=0.1
 336588\Dipole=0.8189984,0.1066522,-0.710602\DipoleDeriv=0.6629635,-0.0
 835635,0.02181,-0.0920189,0.3140932,0.0871383,0.0153154,-0.03712,0.320
 6645,-0.0474443,-0.0063552,-0.0703811,0.0043819,0.0076014,-0.0125065,-
 0.1026618,-0.0722319,-0.1287348,-0.0133688,-0.0434086,0.0414994,-0.055
 0515,-0.0325541,0.0325386,0.0725077,0.1018773,-0.0158926,-0.909938,0.1
 853304,0.0330723,0.138203,-0.5259542,-0.1583865,0.0283031,-0.1339946,-
 0.3760307,0.3051617,-0.026965,-0.0699272,-0.0897361,0.3195666,0.132738
 8,-0.0485299,0.0909589,0.2387292,0.3373948,0.0514987,0.0439123,0.15081
 12,0.3530875,0.0538021,0.0668913,-0.0544919,-0.0286746,-0.0928313,-0.0
 103429,0.024211,-0.0015775,0.0158497,-0.0131241,-0.0317845,-0.0059982,
 0.1929633,0.0337205,0.0230142,0.0097214,0.072611,-0.0926561,-0.0244848
 ,0.0008648,-0.0236329,0.0632514,0.0429989,-0.0160132,-0.0159811,-0.030
 694,0.0227811,0.0716589,0.0539813,0.0799423,-0.0360916,0.0111,-0.02131
 98,0.0020725,-0.0238397,0.0544281,-0.0640991,-0.0853056,-0.0663729,-0.
 0533511,-0.0280045,-0.125571,-0.5575208,-0.1102024,0.0326288,-0.360688
 6,-0.0835843,-0.0329378,0.2566021,0.0879548,0.0267559,0.0571325,0.0452
 022,0.0243364,0.0885514,-0.0470796,0.0238854,0.007695,0.0363956,0.1046
 627,0.1672718,0.0423739,-0.0066999,0.0383099,-0.0101819,-0.082548,-0.0
 369631,0.1242662,0.0594875,0.3252862,-0.0034738,0.1951978,0.275968,0.0
 904795,0.0038526,-0.7288398,-0.2073898,-0.1179695,-0.730513,-0.0718545
 ,-0.3851241,-0.217572,0.0191103,0.0700361,-0.3239563,-0.3429793,0.0007
 593,0.7183338,0.0248652,-0.2965823,0.0701557,0.0616743,0.1387758,0.648
 629\Polar=64.2222813,2.2931298,55.9408108,-2.6345042,1.3075165,64.8899
 554\PG=C01 [X(C4H9O3)]\NImag=1\\0.49399514,0.06277068,0.49278825,-0.00
 602152,-0.04890723,0.60047244,-0.06474864,-0.01697806,-0.05838073,0.08
 505781,-0.01605559,-0.06105911,-0.04614066,0.01343204,0.06422946,-0.05
 968702,-0.04996672,-0.26427173,0.07417455,0.05438861,0.28181605,-0.083
 39584,-0.06085424,0.06090653,0.00551955,0.00535736,-0.00422819,0.11175
 636,-0.06800015,-0.16030269,0.10656870,0.00336296,0.00610668,-0.004924
 24,0.07169107,0.16843548,0.06713235,0.10802679,-0.16104172,0.01097915,
 0.01982666,-0.01815649,-0.07374707,-0.11703218,0.16568783,-0.22501490,
 0.03165258,-0.02619286,-0.03161948,0.00388040,-0.00892910,-0.03174299,
 0.00114285,0.00063605,0.43855389,-0.00498132,-0.08328454,0.01783842,-0
 .00403188,0.00475617,0.00065296,-0.02524239,0.00629070,-0.00326743,0.1
 0920930,0.35455091,-0.00303357,0.01938620,-0.07864045,-0.03339323,0.00
 481460,0.00626454,0.02331281,-0.00398457,0.00608694,-0.08512392,-0.218
 73965,0.22192730,-0.02914520,-0.03226329,0.02632627,0.00110532,-0.0006
 2329,-0.00023461,-0.00667767,0.00163320,-0.00167436,-0.12290188,-0.115
 08743,0.08746369,0.15915818,0.00328725,0.00444030,-0.00346311,0.001208
 14,-0.00052387,0.00079868,0.00268620,0.00121190,-0.00112642,-0.1563122
 4,-0.26825242,0.20065063,0.14656475,0.26177699,-0.00320519,-0.00362204
 ,0.00144304,-0.00156926,-0.00063004,0.00058405,-0.00023059,-0.00030428
 ,0.00127522,0.11841447,0.19957979,-0.16120591,-0.11332897,-0.19551021,
 0.16103209,-0.08189312,0.00672614,0.00535629,0.00431784,-0.00706083,-0
 .00257134,0.00411865,-0.01208951,-0.00316591,-0.03347238,0.03779539,0.
 00681005,0.00074641,0.00314827,-0.00037589,0.52767102,0.01953568,-0.14
 422619,-0.03113862,0.00105057,-0.01301878,-0.00067876,0.00252073,-0.01
 584022,-0.00543477,0.00647222,-0.00129242,-0.00288969,0.00052316,0.003
 03756,0.00172683,-0.00657794,0.45047478,0.00408299,-0.02235606,-0.0802
 7137,0.00627561,-0.03036931,-0.00973989,-0.00553094,0.01925541,0.00391
 487,0.00255568,0.00099809,0.00156991,0.00094808,-0.00049080,0.00084922
 ,0.03890043,0.04917851,0.37922823,-0.01536231,0.00878579,0.00121004,0.
 00042145,-0.00144966,-0.00040351,-0.00012076,-0.00080190,0.00002246,0.
 00143070,0.00022823,0.00018846,0.00004694,0.00009981,0.00016475,-0.179
 04288,0.00912440,0.00231658,0.46237531,0.02973726,0.00297705,-0.000709
 02,-0.00058572,0.00022394,-0.00026293,0.00052898,0.00087368,0.00032391
 ,0.00679834,-0.00653945,-0.00189229,-0.00071848,-0.00143396,0.00048719
 ,0.01749767,-0.08140895,-0.00274393,0.00528674,0.58142280,0.00588823,-
 0.00226437,0.00127647,0.00067573,-0.00015467,-0.00026111,0.00012548,0.
 00082326,-0.00007967,0.00056983,-0.00026256,0.00012357,0.00001305,-0.0
 0031629,0.00011958,-0.00832823,-0.00527475,-0.07186391,0.00058741,-0.0
 0190241,0.56426633,-0.00487222,-0.00377387,-0.00038015,0.00019423,0.00
 012803,0.00030732,0.00006926,-0.00012794,-0.00033598,-0.00215500,0.002
 17509,0.00058296,0.00030633,0.00036275,-0.00018195,-0.01243252,0.03499
 892,0.00390922,-0.06571928,0.06752961,0.00638738,0.07368050,0.00028155
 ,0.00101758,0.00063956,-0.00013831,0.00010053,-0.00000576,-0.00023417,
 0.00031496,-0.00005968,0.00025436,0.00008377,-0.00005735,-0.00001068,-
 0.00015944,0.00001989,0.00062038,-0.00264940,-0.00047292,0.07100864,-0
 .29247458,-0.02633489,-0.07703349,0.31541089,0.00055104,0.00051194,-0.
 00007113,-0.00016700,0.00035719,0.00033531,-0.00017142,-0.00033629,0.0
 0005807,0.00000873,-0.00022047,0.00050293,-0.00009879,-0.00002180,0.00
 002531,0.00100277,-0.00082707,-0.00266652,0.00611696,-0.02604878,-0.04
 896890,-0.00695615,0.02861913,0.04905660,0.00040202,-0.00057910,0.0003
 6209,-0.00002845,0.00006063,-0.00015113,-0.00013154,0.00075233,-0.0000
 0264,0.00045808,0.00018498,-0.00042746,0.00010943,-0.00024749,-0.00004
 543,-0.00736543,-0.01782929,0.02551202,-0.07747203,-0.04545998,0.07025
 129,0.00291433,0.00404748,-0.00834859,0.08412647,0.00013899,-0.0004104
 9,-0.00047291,0.00019408,0.00008823,-0.00000658,0.00062717,0.00000786,
 -0.00013520,-0.00020046,0.00009241,0.00012526,-0.00000153,0.00000780,-
 0.00008081,0.00059325,-0.00053268,-0.00320976,-0.04666321,-0.11804637,
 0.10886828,-0.01131975,-0.01401653,0.02412436,0.05149788,0.12547834,0.
 00028606,0.00077097,-0.00055282,0.00007103,0.00008129,0.00022762,-0.00
 002208,-0.00053740,0.00049529,-0.00002617,-0.00048636,0.00026821,-0.00
 012599,0.00013691,0.00000006,-0.00075414,-0.00015935,-0.00166224,0.071
 20395,0.10826277,-0.20674545,-0.00251977,-0.00234776,0.00328912,-0.077
 58496,-0.11957672,0.22272290,0.00036029,-0.00136066,-0.00140555,-0.000
 08506,0.00067570,0.00081323,0.00001815,0.00027019,0.00002487,0.0006446
 7,0.00039844,0.00064953,0.00002394,-0.00037968,-0.00011157,-0.01450266
 ,-0.01329282,-0.02851950,-0.08898061,-0.03781436,-0.08734069,0.0034753
 6,0.00259804,0.00837172,0.00487584,0.00546384,0.00969920,0.09767708,0.
 00086787,-0.00002088,0.00034442,0.00039406,0.00020741,-0.00013684,-0.0
 0005220,-0.00008125,0.00014812,-0.00046350,-0.00018147,0.00005123,-0.0
 0000911,0.00009384,-0.00002380,0.00031017,-0.00013600,0.00300659,-0.03
 773761,-0.08330432,-0.08159682,-0.01290270,-0.00980942,-0.02628677,0.0
 0815272,0.00674386,0.01463049,0.04189357,0.08534304,0.00026960,-0.0005
 2696,-0.00014466,0.00011089,0.00021597,0.00042435,-0.00016862,0.000022
 95,-0.00015855,0.00008281,0.00033358,0.00033083,0.00003878,-0.00016182
 ,-0.00005304,0.00054278,0.00157140,0.00178721,-0.08819325,-0.08158529,
 -0.22997916,-0.00015487,-0.00041618,-0.00195403,-0.00992805,-0.0099212
 1,-0.01980559,0.09732243,0.09034310,0.24850161,0.00471756,0.00239585,0
 .00720487,-0.00037108,0.00360637,0.00126528,0.00017621,-0.00091819,0.0
 0019353,0.00100382,-0.00068890,0.00268977,-0.00065682,0.00180581,-0.00
 109757,-0.07552322,0.00444670,-0.04945526,-0.01757970,-0.00971095,-0.0
 1803333,0.00136677,-0.00029242,-0.00075837,-0.00031994,-0.00032676,-0.
 00029773,-0.00280643,0.00029108,-0.00008798,0.26636665,-0.01571496,-0.
 01411271,-0.02847599,0.00214465,-0.00473594,-0.00067789,-0.00007143,-0
 .00032739,0.00030784,-0.00050414,0.00178153,0.00166597,-0.00001468,0.0
 0132143,-0.00105060,-0.00344412,-0.09203830,-0.04324096,-0.00174693,0.
 00083076,0.00454047,0.00089446,0.00077189,0.00082019,-0.00074848,0.000
 17860,-0.00037459,0.00215481,0.00069086,-0.00014913,-0.19639151,0.5035
 8117,-0.00332318,-0.01036300,-0.01091002,0.00048140,-0.00129168,0.0001
 4316,0.00019282,0.00075161,0.00034675,-0.00142633,0.00042572,-0.002790
 15,0.00050566,-0.00204206,0.00024946,-0.04688845,-0.04368370,-0.105726
 45,-0.00510352,-0.00126756,-0.00259670,0.00121902,-0.00006366,0.000425
 39,0.00060249,0.00017372,0.00038335,0.00053331,-0.00061266,0.00068979,
 0.09865169,0.02411370,0.46584698,0.00051700,0.00119952,0.00006253,-0.0
 0018594,-0.00026883,0.00007643,-0.00013967,-0.00017306,0.00003358,-0.0
 0024676,0.00046290,0.00028085,0.00004635,-0.00012640,0.00044491,-0.002
 50027,0.00644491,-0.00734874,-0.00048809,0.00006072,-0.00074803,0.0001
 2359,-0.00016062,0.00003647,-0.00015746,-0.00006790,0.00006642,-0.0004
 8434,-0.00043184,0.00002627,-0.07941145,0.08377979,-0.08135770,0.08267
 672,0.00016556,0.00040434,-0.00042308,0.00006834,0.00014499,0.00016127
 ,-0.00012787,-0.00001279,-0.00007967,-0.00018520,-0.00092397,-0.000585
 87,0.00016272,0.00009144,0.00014990,-0.00443601,0.00923159,-0.00714534
 ,0.00000632,-0.00037710,-0.00025852,-0.00014117,0.00004938,-0.00009121
 ,-0.00002819,0.00001835,0.00008321,-0.00034624,-0.00010978,-0.00001709
 ,0.08890362,-0.17330196,0.11558267,-0.09231492,0.17721173,-0.00211412,
 0.00073947,-0.00023421,0.00009786,0.00011134,0.00034861,0.00005926,-0.
 00054784,-0.00003884,0.00110886,0.00035008,0.00177049,0.00013026,0.000
 28719,-0.00048715,-0.00360252,0.01643681,-0.00483751,0.00032115,-0.000
 79548,-0.00149479,0.00003130,0.00006809,0.00001086,-0.00018760,-0.0000
 1994,0.00017050,-0.00051960,0.00006660,0.00005224,-0.08648775,0.112480
 74,-0.16027378,0.09015064,-0.12255836,0.16550223,-0.00102723,-0.001908
 34,-0.00286916,0.00041602,-0.00104022,-0.00028859,-0.00000021,0.000382
 48,-0.00019426,-0.00019481,0.00124202,0.00040744,0.00028921,-0.0005265
 6,-0.00012329,0.00600159,-0.01218129,-0.00522266,0.00167694,-0.0005471
 3,-0.00112785,-0.00005500,0.00017824,-0.00007434,0.00024226,0.00000647
 ,0.00015008,-0.00029989,0.00003024,0.00015968,-0.08657721,0.11403163,0
 .04492236,-0.00164009,0.00720273,0.00606175,0.08959618,0.00018842,-0.0
 0015252,-0.00145326,0.00023756,-0.00059598,-0.00031217,-0.00000427,0.0
 0030971,-0.00002395,-0.00088938,0.00023849,-0.00077615,0.00010984,-0.0
 0046184,0.00019561,0.00407947,-0.00733174,-0.00128344,0.00103588,0.000
 98396,-0.00037712,-0.00051219,0.00022261,-0.00003702,0.00003542,-0.000
 16118,0.00000761,-0.00025510,0.00017219,0.00020366,0.10476693,-0.21451
 387,-0.09482817,0.00789662,-0.00967678,-0.01030706,-0.11204220,0.22902
 628,-0.00430797,0.00098975,-0.00367963,0.00033186,-0.00123769,-0.00013
 995,-0.00004149,-0.00045050,0.00010124,0.00093481,0.00060921,0.0011823
 5,-0.00025343,0.00005424,0.00005406,0.01252439,-0.01914309,-0.00562222
 ,0.00119228,-0.00020758,0.00157797,-0.00067308,0.00039669,-0.00021205,
 -0.00031283,-0.00002669,0.00005160,0.00024370,0.00031986,0.00006830,0.
 04086349,-0.10143367,-0.10078691,-0.00829302,0.01484095,0.01125677,-0.
 04708567,0.10755000,0.09937540,0.00265352,-0.00188153,0.00022752,0.000
 01342,-0.00018680,-0.00013858,-0.00012386,0.00092291,-0.00036023,-0.00
 197221,0.00019275,-0.00106156,0.00104809,-0.00012709,0.00185128,-0.021
 65660,-0.01346700,0.00114261,-0.00101632,-0.00073773,-0.00574375,-0.00
 009518,-0.00007606,0.00029296,0.00105783,0.00034352,0.00009176,-0.0016
 8103,-0.00001906,0.00016197,0.00597860,0.02006854,-0.01429125,-0.00002
 066,0.00145735,-0.00250061,-0.00980384,-0.00577616,0.00633223,0.065084
 27,-0.00119666,-0.00206984,-0.00011798,0.00044869,-0.00023693,-0.00006
 873,0.00012067,0.00065184,-0.00055664,0.00053823,0.00135419,0.00017953
 ,0.00120182,-0.00233559,-0.00168886,-0.01795266,-0.00786514,0.00555170
 ,-0.00034183,-0.00064477,-0.00438976,0.00011448,-0.00006347,0.00020499
 ,0.00079285,0.00019565,0.00005653,-0.00134145,-0.00001485,0.00001233,0
 .02272431,-0.00993756,-0.01075509,-0.00884278,-0.00446789,0.00497771,0
 .00397536,-0.00035022,-0.00432738,-0.00296106,0.03245403,-0.00268237,0
 .00164404,0.00235606,-0.00020759,0.00149884,0.00070101,0.00018908,-0.0
 0196818,0.00083995,0.00206683,0.00014589,0.00190348,-0.00047641,0.0010
 1809,-0.00291028,0.01666155,0.01478364,-0.02736698,-0.00139040,0.00177
 945,0.01092870,0.00021872,0.00003397,-0.00080152,-0.00180573,-0.000595
 38,-0.00049504,0.00327474,0.00014339,-0.00027733,-0.10385367,-0.061818
 59,0.05964914,0.01429929,0.00492504,-0.00515597,0.01646635,0.01194009,
 -0.00875080,0.08919610,0.05134399,-0.11361449,0.00273209,0.00677959,-0
 .00504938,-0.00056421,0.00116535,0.00025170,0.00064740,0.00008448,0.00
 149158,0.00416927,-0.00482567,0.00275573,-0.00403314,0.00214877,-0.001
 43898,-0.06321546,0.00396732,-0.01481953,-0.02262279,-0.02474758,0.037
 60658,0.00240583,-0.00086120,-0.00021955,-0.00789880,-0.00112179,0.000
 03333,0.00399663,-0.00004030,0.00029955,-0.03989735,-0.02206262,0.0059
 9311,0.00740184,0.00078236,-0.00269699,0.00981948,0.00772822,-0.006175
 56,0.01236416,0.01797824,-0.08721745,0.25676116,-0.01736079,-0.0368960
 0,0.03797589,-0.00016806,0.00442207,0.00137932,0.00384691,-0.00875863,
 -0.00111116,0.00004950,0.00394143,-0.00053868,0.00154632,-0.00023183,-
 0.00102265,0.01449576,-0.09209168,0.03449489,-0.00682910,-0.00023504,0
 .00569155,0.00009999,0.00084436,-0.00106582,0.00033453,-0.00042794,-0.
 00035436,0.00113120,0.00055713,0.00001178,-0.01254844,-0.00149242,0.01
 538507,0.00263196,0.00174005,-0.00068030,0.00160195,0.00123526,0.00103
 132,0.00393168,0.00921487,-0.02600373,0.02469689,0.14585422,0.00230143
 ,0.01216132,-0.00602725,0.00014387,-0.00069560,0.00211612,-0.00055177,
 0.00113381,0.00209618,-0.00125934,-0.00128359,0.00094188,-0.00085281,0
 .00120294,-0.00065891,-0.03175353,0.03215281,-0.09710469,0.01099236,0.
 00287436,-0.00341223,-0.00083248,0.00010376,0.00038337,-0.00121285,-0.
 00023373,0.00132632,-0.00052546,-0.00037880,0.00019355,-0.01387099,0.0
 2663765,-0.05726216,0.00244901,-0.00280782,-0.00922270,-0.00009948,-0.
 00112227,-0.00040449,-0.02354642,0.00206155,-0.02237043,0.06149832,-0.
 09266443,0.24178431,0.00008183,-0.00071107,-0.00135678,0.00055723,-0.0
 0162066,-0.00025645,0.00002696,0.00186828,-0.00103313,0.00305998,0.002
 96849,-0.00210155,0.00053451,-0.00359231,0.00083327,-0.05125096,-0.025
 73625,0.02525341,0.00245341,-0.00711739,-0.00078311,0.00079300,-0.0001
 8171,0.00041356,-0.00081261,0.00083621,-0.00027099,-0.00223195,-0.0002
 8340,-0.00048200,0.02353358,0.01762498,-0.00071143,-0.00549078,-0.0011
 6941,0.00014811,-0.00844340,-0.00659905,0.00472030,-0.05183019,-0.0152
 5821,0.05526096,-0.16206611,-0.01746028,-0.00287986,0.25108550,0.00633
 622,0.00090746,-0.00206513,-0.00063906,-0.00010887,-0.00034023,-0.0007
 9252,0.00112015,0.00019377,-0.00144284,-0.01261532,0.00259082,-0.00301
 333,0.00141767,0.00177406,-0.03370543,-0.00431242,-0.00117267,-0.00000
 558,-0.00284764,0.00320861,-0.00049221,0.00035687,0.00029743,-0.000966
 28,0.00078411,-0.00019324,0.00020453,-0.00015036,0.00006293,-0.0080635
 0,0.00130392,0.00847508,-0.00009006,-0.00002159,-0.00060904,-0.0004053
 8,0.00105565,0.00103456,-0.00168426,-0.01588429,0.00112945,-0.01167208
 ,-0.02767587,0.02085802,0.05643178,0.05667053,0.00386323,-0.00622412,0
 .00029696,0.00037585,-0.00077485,-0.00039166,-0.00009383,0.00152973,-0
 .00142708,-0.00342035,0.00332632,-0.00023593,0.00161957,-0.00101616,-0
 .00031681,0.01564174,-0.00662021,0.01951235,0.00077428,0.00368758,-0.0
 1289070,-0.00062149,-0.00012289,0.00058716,0.00327940,0.00098732,0.000
 32616,-0.00251037,-0.00001809,0.00032446,0.12307401,0.06665487,-0.0873
 8784,-0.01017889,-0.00177609,0.00263325,-0.01108237,-0.00937637,0.0059
 2837,-0.05165404,-0.04248389,0.10536449,0.00768757,0.02747130,-0.05237
 887,-0.07675431,-0.03524442,0.02005569\\0.00000536,0.00000146,-0.00001
 532,-0.00000406,0.00000914,-0.00000342,-0.00000724,-0.00000366,-0.0000
 0865,0.00000404,0.00001283,-0.00001855,-0.00001738,-0.00002559,0.00001
 197,0.00000062,0.00000795,-0.00000506,-0.00000491,0.00001017,0.0000010
 4,0.00000574,-0.00000047,0.00000770,-0.00000199,0.00000072,-0.00000588
 ,0.00000120,0.00001571,-0.00000311,0.00001637,-0.00000157,-0.00001045,
 -0.00000146,-0.00001545,0.00000423,0.00001045,-0.00000705,0.00000404,-
 0.00001281,-0.00001059,0.00001871,0.00000181,0.00000530,0.00000411,0.0
 0000423,0.00000111,0.00001865\\\@


 "THE TIME HAS COME", THE WALRUS SAID,
 "TO TALK OF MANY THINGS,
 OF SHOES AND SHIPS AND SEALING WAX,
 OF CABBAGES AND KINGS,
 AND WHY THE SEA IS BOILING HOT,
 AND WHETHER PIGS HAVE WINGS."
 Job cpu time:  0 days  1 hours 12 minutes 47.6 seconds.
 File lengths (MBytes):  RWF=    125 Int=      0 D2E=      0 Chk=      8 Scr=      1
 Normal termination of Gaussian 03 at Tue Jul 30 00:14:58 2019.
