 Entering Gaussian System, Link 0=g03
 Input=TS03freq.gjf
 Output=TS03freq.log
 Initial command:
 /opt/g03/l1.exe /scratch/nyee/Gau-8587.inp -scrdir=/scratch/nyee/
 Entering Link 1 = /opt/g03/l1.exe PID=      8589.
  
 Copyright (c) 1988,1990,1992,1993,1995,1998,2003,2004, Gaussian, Inc.
                  All Rights Reserved.
  
 This is the Gaussian(R) 03 program.  It is based on the
 the Gaussian(R) 98 system (copyright 1998, Gaussian, Inc.),
 the Gaussian(R) 94 system (copyright 1995, Gaussian, Inc.),
 the Gaussian 92(TM) system (copyright 1992, Gaussian, Inc.),
 the Gaussian 90(TM) system (copyright 1990, Gaussian, Inc.),
 the Gaussian 88(TM) system (copyright 1988, Gaussian, Inc.),
 the Gaussian 86(TM) system (copyright 1986, Carnegie Mellon
 University), and the Gaussian 82(TM) system (copyright 1983,
 Carnegie Mellon University). Gaussian is a federally registered
 trademark of Gaussian, Inc.
  
 This software contains proprietary and confidential information,
 including trade secrets, belonging to Gaussian, Inc.
  
 This software is provided under written license and may be
 used, copied, transmitted, or stored only in accord with that
 written license.
  
 The following legend is applicable only to US Government
 contracts under FAR:
  
                    RESTRICTED RIGHTS LEGEND
  
 Use, reproduction and disclosure by the US Government is
 subject to restrictions as set forth in subparagraphs (a)
 and (c) of the Commercial Computer Software - Restricted
 Rights clause in FAR 52.227-19.
  
 Gaussian, Inc.
 340 Quinnipiac St., Bldg. 40, Wallingford CT 06492
  
  
 ---------------------------------------------------------------
 Warning -- This program may not be used in any manner that
 competes with the business of Gaussian, Inc. or will provide
 assistance to any competitor of Gaussian, Inc.  The licensee
 of this program is prohibited from giving any competitor of
 Gaussian, Inc. access to this program.  By using this program,
 the user acknowledges that Gaussian, Inc. is engaged in the
 business of creating and licensing software in the field of
 computational chemistry and represents and warrants to the
 licensee that it is not a competitor of Gaussian, Inc. and that
 it will not use this program in any manner prohibited above.
 ---------------------------------------------------------------
  

 Cite this work as:
 Gaussian 03, Revision D.01,
 M. J. Frisch, G. W. Trucks, H. B. Schlegel, G. E. Scuseria, 
 M. A. Robb, J. R. Cheeseman, J. A. Montgomery, Jr., T. Vreven, 
 K. N. Kudin, J. C. Burant, J. M. Millam, S. S. Iyengar, J. Tomasi, 
 V. Barone, B. Mennucci, M. Cossi, G. Scalmani, N. Rega, 
 G. A. Petersson, H. Nakatsuji, M. Hada, M. Ehara, K. Toyota, 
 R. Fukuda, J. Hasegawa, M. Ishida, T. Nakajima, Y. Honda, O. Kitao, 
 H. Nakai, M. Klene, X. Li, J. E. Knox, H. P. Hratchian, J. B. Cross, 
 V. Bakken, C. Adamo, J. Jaramillo, R. Gomperts, R. E. Stratmann, 
 O. Yazyev, A. J. Austin, R. Cammi, C. Pomelli, J. W. Ochterski, 
 P. Y. Ayala, K. Morokuma, G. A. Voth, P. Salvador, J. J. Dannenberg, 
 V. G. Zakrzewski, S. Dapprich, A. D. Daniels, M. C. Strain, 
 O. Farkas, D. K. Malick, A. D. Rabuck, K. Raghavachari, 
 J. B. Foresman, J. V. Ortiz, Q. Cui, A. G. Baboul, S. Clifford, 
 J. Cioslowski, B. B. Stefanov, G. Liu, A. Liashenko, P. Piskorz, 
 I. Komaromi, R. L. Martin, D. J. Fox, T. Keith, M. A. Al-Laham, 
 C. Y. Peng, A. Nanayakkara, M. Challacombe, P. M. W. Gill, 
 B. Johnson, W. Chen, M. W. Wong, C. Gonzalez, and J. A. Pople, 
 Gaussian, Inc., Wallingford CT, 2004.
 
 ******************************************
 Gaussian 03:  AM64L-G03RevD.01 13-Oct-2005
                10-Jul-2014 
 ******************************************
 %chk=TS03.chk
 %mem=1000mb
 %nproc=8
 Will use up to    8 processors via shared memory.
 -------------------------------------
 # freq nosymm b3lyp/cbsb7 iop(7/33=1)
 -------------------------------------
 1/10=4,30=1,38=1/1,3;
 2/15=1,17=6,18=5,40=1/2;
 3/5=4,6=6,7=700,11=2,16=1,25=1,30=1,74=-5/1,2,3;
 4//1;
 5/5=2,38=5/2;
 8/6=4,10=90,11=11/1;
 11/6=1,8=1,9=11,15=111,16=1,31=1/1,2,10;
 10/6=1,31=1/2;
 6/7=2,8=2,9=2,10=2,18=1,28=1/1;
 7/8=1,10=1,25=1,30=1,33=1/1,2,3,16;
 1/10=4,30=1/3;
 99//99;
 -------------------
 Title Card Required
 -------------------
 Symbolic Z-matrix:
 Charge =  0 Multiplicity = 2
 C                     0.40853   1.24243   1.13592 
 H                     1.12169   0.76553   1.79447 
 H                     0.80709   1.77332   0.2797 
 C                    -1.01756   1.47589   1.55984 
 H                    -1.16467   1.10719   2.57771 
 C                    -1.7196    0.47827   0.6376 
 H                    -2.13611   0.93724  -0.27009 
 C                    -1.5132    2.91852   1.43989 
 H                    -2.57856   2.97616   1.67818 
 H                    -0.97477   3.57503   2.12802 
 O                    -0.57538  -0.30652   0.24157 
 O                    -1.32767  -1.44525  -0.74415 
 H                    -0.79328  -2.18498  -0.42587 
 H                    -1.36968   3.30096   0.42513 
 O                    -2.67367  -0.26949   1.31231 
 H                    -2.92214  -0.97502   0.69898 
 

 GradGradGradGradGradGradGradGradGradGradGradGradGradGradGradGradGradGrad
 Berny optimization.
 Initialization pass.
 Trust Radius=3.00D-01 FncErr=1.00D-07 GrdErr=1.00D-07
 Number of steps in this run=   2 maximum allowed number of steps=   2.
 GradGradGradGradGradGradGradGradGradGradGradGradGradGradGradGradGradGrad

                          Input orientation:                          
 ---------------------------------------------------------------------
 Center     Atomic     Atomic              Coordinates (Angstroms)
 Number     Number      Type              X           Y           Z
 ---------------------------------------------------------------------
    1          6             0        0.408529    1.242425    1.135921
    2          1             0        1.121689    0.765529    1.794471
    3          1             0        0.807089    1.773316    0.279698
    4          6             0       -1.017558    1.475886    1.559836
    5          1             0       -1.164672    1.107186    2.577707
    6          6             0       -1.719595    0.478266    0.637604
    7          1             0       -2.136111    0.937243   -0.270092
    8          6             0       -1.513199    2.918524    1.439886
    9          1             0       -2.578558    2.976162    1.678179
   10          1             0       -0.974773    3.575028    2.128021
   11          8             0       -0.575379   -0.306523    0.241567
   12          8             0       -1.327667   -1.445250   -0.744150
   13          1             0       -0.793276   -2.184976   -0.425870
   14          1             0       -1.369683    3.300957    0.425126
   15          8             0       -2.673667   -0.269491    1.312307
   16          1             0       -2.922136   -0.975018    0.698977
 ---------------------------------------------------------------------
                    Distance matrix (angstroms):
                    1          2          3          4          5
     1  C    0.000000
     2  H    1.081534   0.000000
     3  H    1.083427   1.846387   0.000000
     4  C    1.505966   2.266283   2.248678   0.000000
     5  H    2.138223   2.440827   3.100390   1.092540   0.000000
     6  C    2.315420   3.081194   2.861710   1.529253   2.113641
     7  H    2.923218   3.860721   3.108651   2.211319   3.013724
     8  C    2.568023   3.421075   2.835714   1.530115   2.167269
     9  H    3.496080   4.311873   3.855541   2.168307   2.510238
    10  H    2.887702   3.521320   3.136478   2.175100   2.515656
    11  O    2.041368   2.537882   2.497679   2.260606   2.793455
    12  O    3.711151   4.163110   3.995574   3.733303   4.192402
    13  H    3.953556   4.159626   4.327478   4.170760   4.471883
    14  H    2.811551   3.809257   2.663301   2.177715   3.080303
    15  O    3.437577   3.963392   4.165934   2.418741   2.402820
    16  H    4.025084   4.536753   4.651479   3.221091   3.309665
                    6          7          8          9         10
     6  C    0.000000
     7  H    1.099117   0.000000
     8  C    2.577036   2.690264   0.000000
     9  H    2.839031   2.854595   1.093204   0.000000
    10  H    3.516538   3.749341   1.092900   1.770063   0.000000
    11  O    1.442903   2.060251   3.566007   4.105192   4.334128
    12  O    2.400576   2.560192   4.883335   5.194352   5.794574
    13  H    3.013619   3.402312   5.481336   5.852487   6.303408
    14  H    2.852222   2.580288   1.093887   1.771161   1.769441
    15  O    1.387306   2.061349   3.395056   3.267594   4.281583
    16  H    1.887301   2.283347   4.206390   4.085181   5.151437
                   11         12         13         14         15
    11  O    0.000000
    12  O    1.683530   0.000000
    13  H    2.005377   0.966473   0.000000
    14  H    3.698449   4.888298   5.581389   0.000000
    15  O    2.355986   2.724544   3.197845   3.903276   0.000000
    16  H    2.482615   2.201378   2.694684   4.557309   0.967305
                   16
    16  H    0.000000
 Symmetry turned off by external request.
 Stoichiometry    C4H9O3(2)
 Framework group  C1[X(C4H9O3)]
 Deg. of freedom    42
 Full point group                 C1
 Rotational constants (GHZ):      4.3168004      1.8543106      1.4679243
 Standard basis: CBSB7 (5D, 7F)
 Integral buffers will be    131072 words long.
 Raffenetti 2 integral format.
 Two-electron integral symmetry is turned off.
   180 basis functions,   296 primitive gaussians,   187 cartesian basis functions
    29 alpha electrons       28 beta electrons
       nuclear repulsion energy       331.0068303293 Hartrees.
 NAtoms=   16 NActive=   16 NUniq=   16 SFac= 7.50D-01 NAtFMM=   80 NAOKFM=F Big=F
 One-electron integrals computed using PRISM.
 NBasis=   180 RedAO= T  NBF=   180
 NBsUse=   180 1.00D-06 NBFU=   180
 Harris functional with IExCor=  402 diagonalized for initial guess.
 ExpMin= 1.03D-01 ExpMax= 8.59D+03 ExpMxC= 1.30D+03 IAcc=1 IRadAn=         1 AccDes= 1.00D-06
 HarFok:  IExCor= 402 AccDes= 1.00D-06 IRadAn=         1 IDoV=1
 ScaDFX=  1.000000  1.000000  1.000000  1.000000
 <S**2> of initial guess= 0.7500
 Requested convergence on RMS density matrix=1.00D-08 within 128 cycles.
 Requested convergence on MAX density matrix=1.00D-06.
 Requested convergence on             energy=1.00D-06.
 No special actions if energy rises.
 Integral accuracy reduced to 1.0D-05 until final iterations.
 Initial convergence to 1.0D-05 achieved.  Increase integral accuracy.
 SCF Done:  E(UB+HF-LYP) =  -383.445921756     A.U. after   22 cycles
             Convg  =    0.2986D-08             -V/T =  2.0033
             S**2   =   0.7864
 Annihilation of the first spin contaminant:
 S**2 before annihilation     0.7864,   after     0.7502
 Range of M.O.s used for correlation:     1   180
 NBasis=   180 NAE=    29 NBE=    28 NFC=     0 NFV=     0
 NROrb=    180 NOA=    29 NOB=    28 NVA=   151 NVB=   152
 Symmetrizing basis deriv contribution to polar:
 IMax=3 JMax=2 DiffMx= 0.00D+00
 G2DrvN: will do   17 centers at a time, making    1 passes doing MaxLOS=2.
 FoFDir/FoFCou used for L=0 through L=2.
 DoAtom=TTTTTTTTTTTTTTTT
          Differentiating once with respect to electric field.
                with respect to dipole field.
          Differentiating once with respect to nuclear coordinates.
 Symmetry not used in FoFDir.
 MinBra= 0 MaxBra= 2 Meth= 1.
 IRaf=       0 NMat=  51 IRICut=      51 DoRegI=T DoRafI=T ISym2E= 0 JSym2E=0.
          There are  51 degrees of freedom in the 1st order CPHF.
    48 vectors were produced by pass  0.
 AX will form  48 AO Fock derivatives at one time.
    48 vectors were produced by pass  1.
    48 vectors were produced by pass  2.
    48 vectors were produced by pass  3.
    48 vectors were produced by pass  4.
    48 vectors were produced by pass  5.
    35 vectors were produced by pass  6.
     3 vectors were produced by pass  7.
     3 vectors were produced by pass  8.
 Inv2:  IOpt= 1 Iter= 1 AM= 3.82D-15 Conv= 1.00D-12.
 Inverted reduced A of dimension  329 with in-core refinement.
 Isotropic polarizability for W=    0.000000       70.02 Bohr**3.
 End of Minotr Frequency-dependent properties file   721 does not exist.

 **********************************************************************

            Population analysis using the SCF density.

 **********************************************************************

 Alpha  occ. eigenvalues --  -19.16650 -19.13981 -19.11773 -10.26923 -10.21229
 Alpha  occ. eigenvalues --  -10.19275 -10.17329  -1.07160  -1.01212  -0.93327
 Alpha  occ. eigenvalues --   -0.80800  -0.69915  -0.66474  -0.57533  -0.53407
 Alpha  occ. eigenvalues --   -0.49967  -0.48255  -0.45817  -0.43649  -0.42373
 Alpha  occ. eigenvalues --   -0.41315  -0.37815  -0.37357  -0.36098  -0.35143
 Alpha  occ. eigenvalues --   -0.31990  -0.28932  -0.27329  -0.21101
 Alpha virt. eigenvalues --   -0.05306   0.04369   0.05501   0.06544   0.07173
 Alpha virt. eigenvalues --    0.09372   0.11289   0.11502   0.12607   0.13110
 Alpha virt. eigenvalues --    0.17225   0.19292   0.21076   0.24578   0.28991
 Alpha virt. eigenvalues --    0.29544   0.30601   0.33713   0.35618   0.38323
 Alpha virt. eigenvalues --    0.40105   0.43723   0.44960   0.46798   0.49349
 Alpha virt. eigenvalues --    0.52516   0.53710   0.54707   0.56078   0.56884
 Alpha virt. eigenvalues --    0.57370   0.58373   0.60861   0.62243   0.64528
 Alpha virt. eigenvalues --    0.67640   0.69211   0.74915   0.79248   0.79943
 Alpha virt. eigenvalues --    0.82003   0.85189   0.88836   0.89798   0.92248
 Alpha virt. eigenvalues --    0.96520   0.98198   1.01615   1.07278   1.13268
 Alpha virt. eigenvalues --    1.16032   1.19371   1.20764   1.28306   1.29327
 Alpha virt. eigenvalues --    1.33239   1.35263   1.39788   1.41369   1.43535
 Alpha virt. eigenvalues --    1.45340   1.45642   1.47671   1.50596   1.53136
 Alpha virt. eigenvalues --    1.55391   1.55949   1.59433   1.60874   1.63308
 Alpha virt. eigenvalues --    1.65548   1.67982   1.69069   1.71181   1.73273
 Alpha virt. eigenvalues --    1.74146   1.79740   1.81800   1.83303   1.89378
 Alpha virt. eigenvalues --    1.90787   1.97356   1.98507   2.00698   2.03456
 Alpha virt. eigenvalues --    2.07120   2.08070   2.12176   2.14472   2.18376
 Alpha virt. eigenvalues --    2.25555   2.36223   2.38628   2.39781   2.42021
 Alpha virt. eigenvalues --    2.46931   2.47444   2.48205   2.49878   2.53719
 Alpha virt. eigenvalues --    2.57355   2.58468   2.60312   2.61419   2.66068
 Alpha virt. eigenvalues --    2.69359   2.73609   2.76076   2.80540   2.81520
 Alpha virt. eigenvalues --    2.84708   2.88723   2.90907   3.01907   3.03734
 Alpha virt. eigenvalues --    3.07217   3.07438   3.12595   3.15951   3.17343
 Alpha virt. eigenvalues --    3.18731   3.30851   3.39146   3.41717   3.46200
 Alpha virt. eigenvalues --    3.69881   3.74622   3.77918   3.78935   3.80690
 Alpha virt. eigenvalues --    3.85887   3.92928   4.07338   4.15171   4.37512
 Alpha virt. eigenvalues --    4.79749   4.83632   4.89284   4.95192   5.22536
 Alpha virt. eigenvalues --    5.24128   5.39520   5.45255   5.70093  23.65705
 Alpha virt. eigenvalues --   23.80464  23.83253  23.92320  49.79467  49.84884
 Alpha virt. eigenvalues --   49.93961
  Beta  occ. eigenvalues --  -19.16678 -19.12924 -19.11774 -10.26824 -10.20140
  Beta  occ. eigenvalues --  -10.19336 -10.17269  -1.06911  -1.00513  -0.91943
  Beta  occ. eigenvalues --   -0.80174  -0.68619  -0.65609  -0.57062  -0.53191
  Beta  occ. eigenvalues --   -0.49174  -0.47529  -0.45362  -0.43032  -0.41888
  Beta  occ. eigenvalues --   -0.41113  -0.37444  -0.36178  -0.35807  -0.34468
  Beta  occ. eigenvalues --   -0.31195  -0.28748  -0.26598
  Beta virt. eigenvalues --   -0.09426  -0.01295   0.04598   0.05844   0.06751
  Beta virt. eigenvalues --    0.07466   0.09552   0.11377   0.11717   0.12695
  Beta virt. eigenvalues --    0.13273   0.17520   0.19585   0.21222   0.24670
  Beta virt. eigenvalues --    0.29348   0.29713   0.31284   0.34036   0.36400
  Beta virt. eigenvalues --    0.38668   0.40690   0.44035   0.46688   0.47319
  Beta virt. eigenvalues --    0.49530   0.52872   0.54328   0.54992   0.56380
  Beta virt. eigenvalues --    0.57039   0.57595   0.58622   0.61342   0.62555
  Beta virt. eigenvalues --    0.64767   0.68233   0.69505   0.75516   0.80375
  Beta virt. eigenvalues --    0.80663   0.82216   0.86184   0.89486   0.90063
  Beta virt. eigenvalues --    0.93024   0.97137   0.98377   1.02233   1.07626
  Beta virt. eigenvalues --    1.14400   1.16372   1.19732   1.21327   1.29063
  Beta virt. eigenvalues --    1.29545   1.33583   1.35567   1.40047   1.41813
  Beta virt. eigenvalues --    1.43843   1.45642   1.45819   1.47937   1.50827
  Beta virt. eigenvalues --    1.53462   1.55633   1.56364   1.59527   1.61012
  Beta virt. eigenvalues --    1.63617   1.66279   1.68257   1.69742   1.71428
  Beta virt. eigenvalues --    1.73640   1.74760   1.80666   1.82036   1.84088
  Beta virt. eigenvalues --    1.90209   1.91269   1.97804   1.99381   2.01257
  Beta virt. eigenvalues --    2.03710   2.07371   2.08266   2.12619   2.14890
  Beta virt. eigenvalues --    2.18970   2.25772   2.36305   2.38815   2.39921
  Beta virt. eigenvalues --    2.42211   2.47070   2.47686   2.48378   2.50018
  Beta virt. eigenvalues --    2.53854   2.57631   2.58596   2.60669   2.63021
  Beta virt. eigenvalues --    2.66307   2.69945   2.73705   2.76476   2.81073
  Beta virt. eigenvalues --    2.81536   2.86271   2.89600   2.92056   3.02509
  Beta virt. eigenvalues --    3.04205   3.07573   3.08520   3.13717   3.16348
  Beta virt. eigenvalues --    3.18578   3.19164   3.30931   3.39384   3.42339
  Beta virt. eigenvalues --    3.47034   3.71363   3.75143   3.78325   3.79027
  Beta virt. eigenvalues --    3.80855   3.86048   3.93199   4.07423   4.15914
  Beta virt. eigenvalues --    4.37806   4.81505   4.85965   4.90015   4.95381
  Beta virt. eigenvalues --    5.21582   5.24061   5.39641   5.46156   5.70140
  Beta virt. eigenvalues --   23.65840  23.81616  23.83222  23.92424  49.80483
  Beta virt. eigenvalues --   49.84925  49.93988
          Condensed to atoms (all electrons):
              1          2          3          4          5          6
     1  C    5.117117   0.394789   0.393142   0.335386  -0.026813  -0.130179
     2  H    0.394789   0.535187  -0.032365  -0.025313  -0.011152   0.004172
     3  H    0.393142  -0.032365   0.539609  -0.035948   0.006125   0.000583
     4  C    0.335386  -0.025313  -0.035948   5.247614   0.363860   0.302568
     5  H   -0.026813  -0.011152   0.006125   0.363860   0.565631  -0.032587
     6  C   -0.130179   0.004172   0.000583   0.302568  -0.032587   4.726849
     7  H    0.007507  -0.000916   0.001649  -0.074284   0.011362   0.400754
     8  C   -0.066644   0.003558  -0.003134   0.345519  -0.023388  -0.058013
     9  H    0.008352  -0.000326  -0.000153  -0.032877  -0.004885  -0.003909
    10  H   -0.001403   0.000675   0.000103  -0.031789  -0.007823   0.008523
    11  O    0.040459  -0.000699  -0.003723  -0.017182   0.001893   0.174742
    12  O    0.009630  -0.000100  -0.000200   0.005559  -0.000109  -0.035609
    13  H   -0.001538   0.000062   0.000042  -0.001168   0.000074  -0.000023
    14  H   -0.006134  -0.000282   0.004501  -0.037564   0.007949  -0.006919
    15  O    0.007622  -0.000117  -0.000114  -0.052548   0.010421   0.324578
    16  H   -0.001619   0.000091   0.000043   0.010495  -0.000642  -0.047913
              7          8          9         10         11         12
     1  C    0.007507  -0.066644   0.008352  -0.001403   0.040459   0.009630
     2  H   -0.000916   0.003558  -0.000326   0.000675  -0.000699  -0.000100
     3  H    0.001649  -0.003134  -0.000153   0.000103  -0.003723  -0.000200
     4  C   -0.074284   0.345519  -0.032877  -0.031789  -0.017182   0.005559
     5  H    0.011362  -0.023388  -0.004885  -0.007823   0.001893  -0.000109
     6  C    0.400754  -0.058013  -0.003909   0.008523   0.174742  -0.035609
     7  H    0.655076   0.003526  -0.000380  -0.000289  -0.055351   0.001665
     8  C    0.003526   4.862093   0.398795   0.400908   0.002737  -0.000080
     9  H   -0.000380   0.398795   0.563310  -0.025556   0.000201  -0.000011
    10  H   -0.000289   0.400908  -0.025556   0.574062  -0.000255   0.000000
    11  O   -0.055351   0.002737   0.000201  -0.000255   8.216390   0.021892
    12  O    0.001665  -0.000080  -0.000011   0.000000   0.021892   8.056510
    13  H    0.000490   0.000007  -0.000002   0.000001  -0.003835   0.270522
    14  H    0.003828   0.405657  -0.028432  -0.030230  -0.000028  -0.000024
    15  O   -0.048681  -0.001042   0.003211  -0.000292  -0.047603  -0.008406
    16  H   -0.007777  -0.000682  -0.000151   0.000065  -0.000609   0.032142
             13         14         15         16
     1  C   -0.001538  -0.006134   0.007622  -0.001619
     2  H    0.000062  -0.000282  -0.000117   0.000091
     3  H    0.000042   0.004501  -0.000114   0.000043
     4  C   -0.001168  -0.037564  -0.052548   0.010495
     5  H    0.000074   0.007949   0.010421  -0.000642
     6  C   -0.000023  -0.006919   0.324578  -0.047913
     7  H    0.000490   0.003828  -0.048681  -0.007777
     8  C    0.000007   0.405657  -0.001042  -0.000682
     9  H   -0.000002  -0.028432   0.003211  -0.000151
    10  H    0.000001  -0.030230  -0.000292   0.000065
    11  O   -0.003835  -0.000028  -0.047603  -0.000609
    12  O    0.270522  -0.000024  -0.008406   0.032142
    13  H    0.478093   0.000004   0.002885  -0.001247
    14  H    0.000004   0.581179  -0.000207   0.000008
    15  O    0.002885  -0.000207   7.874219   0.318310
    16  H   -0.001247   0.000008   0.318310   0.458315
 Mulliken atomic charges:
              1
     1  C   -0.079674
     2  H    0.132734
     3  H    0.129842
     4  C   -0.302326
     5  H    0.140084
     6  C    0.372380
     7  H    0.101819
     8  C   -0.269816
     9  H    0.122812
    10  H    0.113299
    11  O   -0.329030
    12  O   -0.353381
    13  H    0.255632
    14  H    0.106693
    15  O   -0.382237
    16  H    0.241170
 Sum of Mulliken charges=   0.00000
 Atomic charges with hydrogens summed into heavy atoms:
              1
     1  C    0.182902
     2  H    0.000000
     3  H    0.000000
     4  C   -0.162243
     5  H    0.000000
     6  C    0.474199
     7  H    0.000000
     8  C    0.072988
     9  H    0.000000
    10  H    0.000000
    11  O   -0.329030
    12  O   -0.097749
    13  H    0.000000
    14  H    0.000000
    15  O   -0.141067
    16  H    0.000000
 Sum of Mulliken charges=   0.00000
          Atomic-Atomic Spin Densities.
              1          2          3          4          5          6
     1  C    0.841623   0.001289   0.001127  -0.026083  -0.001613  -0.038308
     2  H    0.001289  -0.037901   0.003215  -0.002668  -0.000065   0.001829
     3  H    0.001127   0.003215  -0.036959  -0.001296  -0.000543   0.001590
     4  C   -0.026083  -0.002668  -0.001296  -0.049245   0.002949   0.008418
     5  H   -0.001613  -0.000065  -0.000543   0.002949   0.008659  -0.009617
     6  C   -0.038308   0.001829   0.001590   0.008418  -0.009617   0.092408
     7  H    0.004903  -0.000062  -0.000313   0.001153   0.000606  -0.007670
     8  C   -0.013815  -0.000888   0.000027   0.011399   0.006168  -0.014573
     9  H    0.000828   0.000053   0.000045  -0.000495  -0.001206   0.003012
    10  H    0.005297   0.000154   0.000252  -0.001126  -0.001154   0.001473
    11  O   -0.021407   0.000334   0.000694   0.005228  -0.000248   0.003732
    12  O    0.009659  -0.000209  -0.000222   0.000358   0.000296   0.000156
    13  H   -0.001566   0.000051   0.000032   0.000017  -0.000070   0.000101
    14  H   -0.001242  -0.000015  -0.000277   0.001361   0.000227  -0.001387
    15  O    0.000916  -0.000047  -0.000014   0.000571   0.000979  -0.004662
    16  H   -0.001149   0.000035   0.000021   0.000254  -0.000520  -0.000258
              7          8          9         10         11         12
     1  C    0.004903  -0.013815   0.000828   0.005297  -0.021407   0.009659
     2  H   -0.000062  -0.000888   0.000053   0.000154   0.000334  -0.000209
     3  H   -0.000313   0.000027   0.000045   0.000252   0.000694  -0.000222
     4  C    0.001153   0.011399  -0.000495  -0.001126   0.005228   0.000358
     5  H    0.000606   0.006168  -0.001206  -0.001154  -0.000248   0.000296
     6  C   -0.007670  -0.014573   0.003012   0.001473   0.003732   0.000156
     7  H    0.005189   0.001390  -0.000662  -0.000192  -0.003434   0.002323
     8  C    0.001390   0.039135  -0.004731  -0.005584  -0.000030   0.000062
     9  H   -0.000662  -0.004731   0.006030   0.002173  -0.000006  -0.000014
    10  H   -0.000192  -0.005584   0.002173   0.001850  -0.000010  -0.000005
    11  O   -0.003434  -0.000030  -0.000006  -0.000010   0.019039  -0.091610
    12  O    0.002323   0.000062  -0.000014  -0.000005  -0.091610   0.454357
    13  H   -0.000243  -0.000017   0.000003   0.000002   0.005873  -0.001084
    14  H    0.000351   0.001473  -0.000903  -0.000645  -0.000052   0.000018
    15  O    0.000835   0.000375  -0.000215  -0.000029   0.000789  -0.000051
    16  H   -0.001676  -0.000219   0.000105   0.000019   0.002633  -0.003828
             13         14         15         16
     1  C   -0.001566  -0.001242   0.000916  -0.001149
     2  H    0.000051  -0.000015  -0.000047   0.000035
     3  H    0.000032  -0.000277  -0.000014   0.000021
     4  C    0.000017   0.001361   0.000571   0.000254
     5  H   -0.000070   0.000227   0.000979  -0.000520
     6  C    0.000101  -0.001387  -0.004662  -0.000258
     7  H   -0.000243   0.000351   0.000835  -0.001676
     8  C   -0.000017   0.001473   0.000375  -0.000219
     9  H    0.000003  -0.000903  -0.000215   0.000105
    10  H    0.000002  -0.000645  -0.000029   0.000019
    11  O    0.005873  -0.000052   0.000789   0.002633
    12  O   -0.001084   0.000018  -0.000051  -0.003828
    13  H   -0.009688  -0.000003  -0.000046   0.000876
    14  H   -0.000003  -0.000210   0.000021  -0.000022
    15  O   -0.000046   0.000021   0.000727  -0.001347
    16  H    0.000876  -0.000022  -0.001347   0.007614
 Mulliken atomic spin densities:
              1
     1  C    0.760460
     2  H   -0.034894
     3  H   -0.032619
     4  C   -0.049206
     5  H    0.004848
     6  C    0.036245
     7  H    0.002500
     8  C    0.020172
     9  H    0.004016
    10  H    0.002475
    11  O   -0.078474
    12  O    0.370206
    13  H   -0.005762
    14  H   -0.001305
    15  O   -0.001199
    16  H    0.002540
 Sum of Mulliken spin densities=   1.00000
 APT atomic charges:
              1
     1  C   -0.218466
     2  H    0.023316
     3  H    0.013954
     4  C    0.052900
     5  H   -0.017137
     6  C    0.796354
     7  H   -0.085660
     8  C    0.098837
     9  H   -0.011703
    10  H   -0.013517
    11  O    0.317090
    12  O   -0.850020
    13  H    0.248138
    14  H   -0.018244
    15  O   -0.625718
    16  H    0.289878
 Sum of APT charges=   0.00000
 APT Atomic charges with hydrogens summed into heavy atoms:
              1
     1  C   -0.181196
     2  H    0.000000
     3  H    0.000000
     4  C    0.035763
     5  H    0.000000
     6  C    0.710693
     7  H    0.000000
     8  C    0.055373
     9  H    0.000000
    10  H    0.000000
    11  O    0.317090
    12  O   -0.601883
    13  H    0.000000
    14  H    0.000000
    15  O   -0.335840
    16  H    0.000000
 Sum of APT charges=   0.00000
 Electronic spatial extent (au):  <R**2>=  1343.5238
 Charge=     0.0000 electrons
 Dipole moment (field-independent basis, Debye):
    X=     1.0262    Y=     0.8224    Z=     0.6983  Tot=     1.4890
 Quadrupole moment (field-independent basis, Debye-Ang):
   XX=   -44.2090   YY=   -35.9873   ZZ=   -45.0133
   XY=    -0.3755   XZ=     2.2713   YZ=     0.9267
 Traceless Quadrupole moment (field-independent basis, Debye-Ang):
   XX=    -2.4725   YY=     5.7493   ZZ=    -3.2768
   XY=    -0.3755   XZ=     2.2713   YZ=     0.9267
 Octapole moment (field-independent basis, Debye-Ang**2):
  XXX=   157.4689  YYY=   -99.8407  ZZZ=  -104.0636  XYY=    44.7892
  XXY=   -31.4950  XXZ=   -43.3382  XZZ=    61.0239  YZZ=   -23.6290
  YYZ=   -33.1158  XYZ=    -0.0124
 Hexadecapole moment (field-independent basis, Debye-Ang**3):
 XXXX=  -653.4741 YYYY=  -661.6429 ZZZZ=  -386.1311 XXXY=    95.7157
 XXXZ=   158.7635 YYYX=    88.9960 YYYZ=  -174.3693 ZZZX=   141.1999
 ZZZY=  -173.4280 XXYY=  -210.2353 XXZZ=  -196.1576 YYZZ=  -176.3382
 XXYZ=   -61.9255 YYXZ=    35.0606 ZZXY=    18.7334
 N-N= 3.310068303293D+02 E-N=-1.562236754688D+03  KE= 3.821914278162D+02
  Exact polarizability:  64.359  12.270  85.985   7.272  19.783  59.709
 Approx polarizability:  94.472  26.669 122.282  17.500  34.261  93.247
                          Isotropic Fermi Contact Couplings
        Atom                 a.u.       MegaHertz       Gauss      10(-4) cm-1
     1  C(13)              0.06853      77.03755      27.48891      25.69696
     2  H(1)              -0.01005     -44.93674     -16.03455     -14.98928
     3  H(1)              -0.01007     -45.01724     -16.06327     -15.01614
     4  C(13)             -0.02241     -25.19399      -8.98984      -8.40381
     5  H(1)               0.00178       7.96566       2.84235       2.65706
     6  C(13)              0.02469      27.75409       9.90335       9.25777
     7  H(1)               0.00059       2.64843       0.94503       0.88342
     8  C(13)              0.02634      29.60854      10.56506       9.87635
     9  H(1)               0.00113       5.05361       1.80325       1.68570
    10  H(1)              -0.00061      -2.73997      -0.97769      -0.91395
    11  O(17)              0.47315    -286.82447    -102.34610     -95.67434
    12  O(17)              0.05274     -31.97318     -11.40883     -10.66511
    13  H(1)              -0.00583     -26.05487      -9.29702      -8.69097
    14  H(1)              -0.00036      -1.59575      -0.56940      -0.53229
    15  O(17)              0.00647      -3.92045      -1.39891      -1.30772
    16  H(1)               0.00174       7.78121       2.77653       2.59553
 --------------------------------------------------------
       Center         ----  Spin Dipole Couplings  ----
                      3XX-RR        3YY-RR        3ZZ-RR
 --------------------------------------------------------
     1   Atom       -0.375636      0.453953     -0.078317
     2   Atom       -0.004783      0.006192     -0.001409
     3   Atom       -0.036726      0.007624      0.029102
     4   Atom        0.001815      0.003559     -0.005374
     5   Atom        0.003375     -0.004961      0.001586
     6   Atom       -0.025386      0.013703      0.011684
     7   Atom       -0.000103      0.000996     -0.000893
     8   Atom       -0.001043      0.019798     -0.018754
     9   Atom        0.003788     -0.000353     -0.003435
    10   Atom       -0.001394      0.005144     -0.003750
    11   Atom       -0.235452     -0.201479      0.436931
    12   Atom        0.020103      0.245497     -0.265600
    13   Atom       -0.007627      0.040076     -0.032449
    14   Atom       -0.000885      0.002737     -0.001852
    15   Atom       -0.006710      0.007518     -0.000808
    16   Atom        0.002845     -0.002809     -0.000036
 --------------------------------------------------------
                        XY            XZ            YZ
 --------------------------------------------------------
     1   Atom        0.217488      0.136259      0.551186
     2   Atom       -0.023948      0.048971     -0.008900
     3   Atom        0.028507     -0.025305     -0.021488
     4   Atom       -0.002768     -0.002581      0.012951
     5   Atom        0.000875     -0.008989      0.000218
     6   Atom        0.020396      0.015838      0.054696
     7   Atom       -0.001967      0.005078      0.000886
     8   Atom       -0.026256      0.002374     -0.004058
     9   Atom       -0.002967     -0.001488      0.000766
    10   Atom       -0.003686     -0.001088      0.004859
    11   Atom       -0.498594     -0.321737     -0.084143
    12   Atom        0.921885      0.695035      0.740799
    13   Atom       -0.035992      0.029242     -0.019005
    14   Atom       -0.004941      0.002043     -0.003736
    15   Atom       -0.001496      0.001224      0.006902
    16   Atom        0.000317     -0.005283      0.002149
 --------------------------------------------------------


 ---------------------------------------------------------------------------------
              Anisotropic Spin Dipole Couplings in Principal Axis System
 ---------------------------------------------------------------------------------

       Atom             a.u.   MegaHertz   Gauss  10(-4) cm-1        Axes

              Baa    -0.4292   -57.599   -20.553   -19.213  0.9781 -0.1944 -0.0744
     1 C(13)  Bbb    -0.4242   -56.930   -20.314   -18.990 -0.0394 -0.5242  0.8507
              Bcc     0.8535   114.529    40.867    38.203  0.2044  0.8291  0.5203
 
              Baa    -0.0543   -28.974   -10.339    -9.665  0.7358  0.1959 -0.6483
     2 H(1)   Bbb    -0.0024    -1.258    -0.449    -0.420  0.1523  0.8849  0.4403
              Bcc     0.0567    30.232    10.787    10.084  0.6599 -0.4227  0.6212
 
              Baa    -0.0532   -28.382   -10.127    -9.467  0.9133 -0.3623  0.1862
     3 H(1)   Bbb    -0.0037    -1.988    -0.709    -0.663  0.1724  0.7580  0.6291
              Bcc     0.0569    30.370    10.837    10.130 -0.3691 -0.5424  0.7547
 
              Baa    -0.0146    -1.962    -0.700    -0.654  0.0311 -0.5767  0.8163
     4 C(13)  Bbb     0.0007     0.090     0.032     0.030  0.9548  0.2586  0.1464
              Bcc     0.0140     1.872     0.668     0.625 -0.2955  0.7749  0.5587
 
              Baa    -0.0069    -3.656    -1.304    -1.219  0.6309 -0.3706  0.6817
     5 H(1)   Bbb    -0.0047    -2.496    -0.891    -0.832  0.2275  0.9283  0.2941
              Bcc     0.0115     6.151     2.195     2.052  0.7418  0.0305 -0.6699
 
              Baa    -0.0428    -5.742    -2.049    -1.915 -0.2523  0.7185 -0.6481
     6 C(13)  Bbb    -0.0312    -4.191    -1.495    -1.398  0.9348  0.0079 -0.3551
              Bcc     0.0740     9.933     3.544     3.313  0.2500  0.6954  0.6737
 
              Baa    -0.0061    -3.280    -1.170    -1.094 -0.6693 -0.2701  0.6922
     7 H(1)   Bbb     0.0013     0.718     0.256     0.240 -0.0038  0.9328  0.3603
              Bcc     0.0048     2.562     0.914     0.855  0.7430 -0.2385  0.6254
 
              Baa    -0.0193    -2.596    -0.926    -0.866  0.4161  0.3654  0.8326
     8 C(13)  Bbb    -0.0187    -2.505    -0.894    -0.835  0.7168  0.4316 -0.5476
              Bcc     0.0380     5.101     1.820     1.701 -0.5595  0.8248 -0.0824
 
              Baa    -0.0037    -1.997    -0.713    -0.666  0.1631 -0.0794  0.9834
     9 H(1)   Bbb    -0.0019    -1.014    -0.362    -0.338  0.4614  0.8872 -0.0049
              Bcc     0.0056     3.011     1.074     1.004  0.8721 -0.4546 -0.1813
 
              Baa    -0.0060    -3.180    -1.135    -1.061 -0.1398 -0.4356  0.8892
    10 H(1)   Bbb    -0.0028    -1.474    -0.526    -0.492  0.9251  0.2628  0.2742
              Bcc     0.0087     4.654     1.661     1.552 -0.3531  0.8609  0.3662
 
              Baa    -0.7874    56.974    20.330    19.005  0.7234  0.6493  0.2347
    11 O(17)  Bbb     0.1996   -14.440    -5.153    -4.817 -0.5166  0.7346 -0.4399
              Bcc     0.5878   -42.534   -15.177   -14.188 -0.4580  0.1969  0.8668
 
              Baa    -0.8331    60.281    21.510    20.107 -0.6854  0.0895  0.7226
    12 O(17)  Bbb    -0.7780    56.293    20.087    18.777 -0.4305  0.7506 -0.5013
              Bcc     1.6110  -116.573   -41.596   -38.885  0.5873  0.6547  0.4759
 
              Baa    -0.0520   -27.770    -9.909    -9.263 -0.5825 -0.0604  0.8106
    13 H(1)   Bbb    -0.0169    -8.993    -3.209    -3.000  0.6433  0.5753  0.5051
              Bcc     0.0689    36.763    13.118    12.263 -0.4968  0.8157 -0.2963
 
              Baa    -0.0045    -2.426    -0.866    -0.809  0.6453  0.6465  0.4071
    14 H(1)   Bbb    -0.0035    -1.847    -0.659    -0.616 -0.5653  0.0457  0.8236
              Bcc     0.0080     4.273     1.525     1.425 -0.5138  0.7616 -0.3950
 
              Baa    -0.0078     0.564     0.201     0.188  0.8630  0.2753 -0.4236
    15 O(17)  Bbb    -0.0037     0.264     0.094     0.088  0.5037 -0.4042  0.7635
              Bcc     0.0114    -0.828    -0.295    -0.276 -0.0390  0.8722  0.4875
 
              Baa    -0.0055    -2.921    -1.042    -0.974  0.4476 -0.5930  0.6693
    16 H(1)   Bbb    -0.0015    -0.812    -0.290    -0.271  0.4405  0.7976  0.4121
              Bcc     0.0070     3.733     1.332     1.245  0.7782 -0.1103 -0.6183
 

 ---------------------------------------------------------------------------------

 Use density number 0.
 Entering OneElI...
 Calculate overlap and kinetic energy integrals
    NBasis = 187  MinDer = 2  MaxDer = 2
 Requested accuracy = 0.1000D-12
 PrsmSu:  NPrtUS=   1 ThrOK=F
 PRISM was handed   130760200 working-precision words and  2542 shell-pairs
 Entering OneElI...
 Calculate potential energy integrals
    NBasis = 187  MinDer = 2  MaxDer = 2
 Requested accuracy = 0.1000D-12
 PrsmSu:  NPrtUS=   8 ThrOK=T
 PRISM was handed    16302456 working-precision words and  2348 shell-pairs
 PRISM was handed    16302456 working-precision words and  2348 shell-pairs
 PRISM was handed    16302456 working-precision words and  2348 shell-pairs
 PRISM was handed    16302456 working-precision words and  2348 shell-pairs
 PRISM was handed    16302456 working-precision words and  2348 shell-pairs
 PRISM was handed    16302456 working-precision words and  2348 shell-pairs
 PRISM was handed    16302456 working-precision words and  2348 shell-pairs
 PRISM was handed    16302456 working-precision words and  2348 shell-pairs
 Polarizability after L701:
                1             2             3
      1  0.643588D+02
      2  0.122701D+02  0.859850D+02
      3  0.727213D+01  0.197834D+02  0.597093D+02
 Dipole Derivatives after L701:
               1            2            3            4            5
      1-0.114511D+00-0.336269D+00-0.204617D+00-0.252414D-01 0.340952D-01
      2-0.388042D+00-0.497375D+00-0.400612D+00 0.499342D-01 0.687094D-01
      3-0.229382D+00-0.401514D+00-0.435130D-01-0.124500D-01 0.324437D-01
               6            7            8            9           10
      1-0.496633D-01 0.161422D-01-0.367441D-01 0.380971D-01-0.102542D+00
      2 0.521134D-01 0.547927D-02 0.380798D-01 0.549535D-01-0.199685D+00
      3 0.264806D-01 0.152881D-01 0.755542D-01-0.123608D-01-0.104539D+00
              11           12           13           14           15
      1-0.252657D-01-0.121575D-01 0.346167D-01 0.247660D-01 0.268727D-01
      2 0.164452D+00 0.736894D-01 0.312999D-01-0.136080D-01 0.330364D-01
      3 0.339359D-01 0.967901D-01 0.458349D-01 0.620027D-01-0.724199D-01
              16           17           18           19           20
      1 0.116540D+01 0.530275D-01-0.232825D+00-0.709358D-01 0.213658D-01
      2 0.165733D+00 0.628438D+00-0.169455D+00 0.235324D-01-0.562931D-01
      3-0.191006D+00-0.201243D+00 0.595227D+00-0.301569D-01 0.698431D-01
              21           22           23           24           25
      1-0.552380D-01 0.959862D-01 0.457817D-01 0.204531D-01-0.112897D+00
      2 0.110926D+00 0.853519D-01 0.923448D-01-0.279688D-01 0.715543D-01
      3-0.129752D+00 0.247491D-01 0.301260D-01 0.108180D+00 0.587624D-01
              26           27           28           29           30
      1-0.758853D-02 0.400856D-01 0.733286D-02-0.147731D-01-0.622927D-01
      2 0.102594D-01 0.798239D-02-0.840768D-01-0.380234D-01-0.851371D-01
      3-0.102208D-01 0.675291D-01-0.855210D-01-0.630635D-01-0.986193D-02
              31           32           33           34           35
      1-0.197829D-01 0.100712D+01 0.668506D+00-0.669941D+00-0.554992D+00
      2 0.918869D+00 0.765717D+00 0.842608D+00-0.540712D+00-0.117759D+01
      3 0.585792D+00 0.669276D+00 0.205335D+00-0.184558D+00-0.602242D+00
              36           37           38           39           40
      1-0.281243D+00 0.199678D+00 0.727324D-01-0.823986D-01 0.515979D-01
      2-0.701524D+00-0.289628D-01 0.307507D+00 0.167987D-01-0.131076D-01
      3-0.702527D+00-0.123319D+00 0.860753D-01 0.237229D+00 0.381877D-01
              41           42           43           44           45
      1 0.698108D-02 0.196385D-01-0.874794D+00-0.224013D+00 0.236563D+00
      2 0.159988D-01 0.899767D-01-0.162446D+00-0.563058D+00 0.205423D+00
      3 0.220300D-01-0.122328D+00 0.163668D+00 0.223961D+00-0.439301D+00
              46           47           48
      1 0.419896D+00-0.662215D-01-0.697822D-01
      2 0.652774D-01 0.254445D+00-0.102811D+00
      3 0.286485D-01-0.269645D-01 0.195293D+00
 Hessian after L701:
                1             2             3             4             5
      1  0.863355D+01
      2  0.249008D+00  0.129103D+02
      3  0.433196D+00  0.401502D+00  0.124478D+02
      4 -0.303175D+01 -0.944271D+00  0.128719D+01  0.264821D+01
      5 -0.782234D+00 -0.381547D+01 -0.718900D+00  0.834930D+00  0.384599D+01
      6  0.118966D+01 -0.800427D+00 -0.326545D+01 -0.154121D+01  0.611712D+00
      7 -0.402719D+01  0.645963D+00 -0.104278D+01  0.122558D+00  0.287521D-01
      8  0.551992D+00 -0.368325D+01 -0.122629D+01  0.352315D-01  0.205009D-01
      9 -0.818895D+00 -0.113972D+01 -0.255863D+01 -0.491143D-01  0.140687D+00
     10 -0.141074D+01 -0.987549D+00 -0.139952D+01  0.406899D-01  0.166099D-01
     11 -0.122966D+01 -0.610461D+01  0.321007D+00  0.504549D-01  0.363699D-01
     12 -0.149902D+01  0.288692D+00 -0.590264D+01  0.106599D-01 -0.103657D-01
     13 -0.785142D-01 -0.428641D-01  0.465492D-01 -0.874864D-01  0.142156D-01
     14 -0.683964D-02  0.579343D-01 -0.127525D-01  0.243425D-01  0.289909D-01
     15  0.484092D-01  0.281318D-01  0.146905D+00  0.404516D-01 -0.559456D-03
     16  0.772801D-01  0.541058D-01  0.149977D+00  0.105286D+00 -0.177386D-01
     17  0.137559D+00  0.491231D+00  0.115739D+00 -0.215045D-02 -0.497876D-01
     18  0.150113D+00  0.986627D-01  0.424634D+00  0.652650D-01 -0.844105D-02
     19  0.882719D-01 -0.183641D-01  0.105792D+00 -0.591502D-02 -0.224854D-02
     20 -0.265447D-01 -0.718040D-01 -0.139142D-01 -0.321883D-02  0.315955D-02
     21  0.118531D+00 -0.748649D-02  0.204524D-01  0.516557D-04 -0.367182D-02
     22  0.959498D-01 -0.183686D+00 -0.125862D-01  0.605490D-01 -0.757405D-01
     23 -0.209701D-01  0.145539D+00  0.323747D-01 -0.779575D-01  0.214438D-01
     24  0.801424D-02  0.511951D-01  0.156563D-01  0.176747D-01 -0.151486D-01
     25  0.145359D+00 -0.103496D+00 -0.316168D-01  0.550858D-02 -0.430345D-02
     26 -0.999497D-01 -0.259632D-02  0.175012D-01  0.170051D-02 -0.632500D-03
     27 -0.332765D-01  0.194747D-01 -0.435897D-01 -0.148899D-02  0.483161D-03
     28 -0.603472D-03 -0.757479D-02 -0.182843D-02  0.412531D-03 -0.646233D-02
     29 -0.229557D-01 -0.726693D-03  0.878090D-02 -0.181456D-01  0.146883D-01
     30 -0.138751D-01  0.262282D-01 -0.154864D-01 -0.757705D-02  0.718729D-02
     31 -0.803376D+00  0.802849D+00  0.388036D+00  0.662032D-01 -0.657519D-02
     32  0.739144D+00  0.301844D-01  0.857812D+00  0.532887D-01 -0.804960D-01
     33  0.355375D+00  0.871458D+00 -0.970769D+00  0.132475D+00 -0.221337D-02
     34 -0.431524D-01  0.255512D+00  0.173369D+00  0.175408D-01  0.484008D-02
     35  0.232463D+00  0.121853D+00  0.233071D+00  0.180593D-01 -0.762210D-02
     36  0.145982D+00  0.226999D+00 -0.495869D-01  0.308272D-01  0.522836D-02
     37 -0.609474D-02 -0.114662D-01 -0.495632D-02 -0.332702D-02  0.152159D-02
     38 -0.748323D-02  0.120898D-01  0.811608D-02  0.902860D-02 -0.383834D-03
     39 -0.195071D-02 -0.825603D-02 -0.114972D-01 -0.236378D-03  0.152400D-02
     40 -0.174620D-01 -0.322831D-02 -0.937605D-02  0.956990D-04 -0.156988D-02
     41  0.662095D-02  0.667437D-02  0.796786D-02 -0.503753D-02  0.289489D-02
     42  0.617371D-03 -0.223281D-01 -0.539031D-02  0.870859D-02 -0.740050D-02
     43  0.394901D+00  0.299937D+00 -0.794137D-01  0.536242D-01 -0.411178D-02
     44  0.284513D+00 -0.946852D-01 -0.318666D-01  0.144941D-01 -0.167586D-01
     45 -0.882229D-01 -0.407995D-01 -0.229849D+00 -0.707624D-03  0.130926D-02
     46 -0.164257D-01 -0.487481D-02 -0.202896D-02  0.780333D-02  0.115109D-03
     47 -0.466415D-02 -0.270035D-02 -0.150689D-03  0.925153D-02 -0.287880D-02
     48  0.534743D-02  0.667254D-02 -0.251955D-02  0.703367D-02 -0.143028D-02
                6             7             8             9            10
      6  0.324523D+01
      7 -0.437457D-01  0.375720D+01
      8  0.154257D+00 -0.796876D+00  0.349446D+01
      9 -0.102756D+00  0.109020D+01  0.115387D+01  0.267843D+01
     10  0.482003D-01 -0.775042D-02  0.150653D-01  0.533301D-01  0.167250D+02
     11 -0.199862D-01 -0.115927D-01  0.109080D+00 -0.226903D-02  0.123103D+00
     12  0.770478D-01  0.131162D+00 -0.838733D-02  0.324564D-01  0.109100D+00
     13  0.382072D-01  0.269149D-01  0.241106D-01 -0.632753D-01 -0.465430D+01
     14 -0.462000D-02  0.219517D-01 -0.165431D-01 -0.262429D-01  0.174177D+00
     15  0.134003D-01 -0.802006D-01 -0.353848D-01  0.686768D-01 -0.517594D+00
     16  0.768231D-01  0.320452D-01  0.541283D-01 -0.383646D-01 -0.533914D+01
     17 -0.128332D-02  0.527635D-01  0.682914D-02 -0.318189D-01  0.186995D+01
     18 -0.107984D-01 -0.260348D-01 -0.197070D-01 -0.184458D-01  0.143263D+01
     19 -0.240631D-02  0.355721D-01  0.178727D-01 -0.280067D-02  0.194747D+00
     20 -0.242526D-02  0.673575D-02 -0.877057D-02  0.302321D-02 -0.299796D-01
     21  0.388284D-02  0.174081D-01  0.925491D-02 -0.155580D-01 -0.259680D+00
     22  0.320083D-01  0.403514D-02 -0.350759D-02 -0.373491D-01 -0.527131D+01
     23 -0.230050D-01 -0.118760D-01 -0.122345D-01  0.111289D-01 -0.165135D+01
     24 -0.288025D-01 -0.142833D-01 -0.142705D-02 -0.268759D-02  0.683719D-01
     25  0.648095D-02  0.869624D-02  0.363026D-02 -0.119178D-01  0.827273D-01
     26 -0.166481D-02 -0.168053D-02 -0.224637D-02  0.165510D-02  0.791843D-01
     27 -0.143492D-02 -0.339682D-02 -0.999333D-03  0.176476D-02 -0.122371D-01
     28 -0.138360D-02 -0.226322D-02 -0.264500D-02 -0.134119D-02  0.617958D-01
     29 -0.509070D-02 -0.904617D-02 -0.298588D-02  0.139957D-01 -0.765122D-02
     30 -0.809483D-02 -0.977610D-02  0.995638D-03  0.106132D-01  0.151339D-01
     31  0.128914D+00 -0.926468D-02  0.597310D-01 -0.666387D-01 -0.540156D+00
     32  0.585560D-01  0.603648D-01  0.592083D-01 -0.101931D+00  0.726371D-01
     33  0.721516D-01 -0.231008D-01 -0.308761D-01 -0.428724D-01 -0.403369D-01
     34  0.321116D-01  0.554209D-02  0.328560D-01 -0.105418D-01 -0.194173D+00
     35  0.179228D-01  0.249418D-01  0.196678D-01 -0.633608D-02  0.257484D-01
     36  0.167066D-01  0.108479D-01  0.166308D-01 -0.199592D-01  0.192040D-01
     37 -0.177933D-02 -0.253369D-02 -0.194104D-02  0.237383D-02 -0.402834D-02
     38  0.945643D-02  0.559179D-02  0.899592D-02 -0.597282D-02  0.568907D-03
     39 -0.158177D-02 -0.105079D-02 -0.153543D-02  0.538658D-03  0.243655D-02
     40  0.144921D-02  0.291940D-01 -0.259603D-01 -0.100793D-01  0.767666D-01
     41 -0.459085D-02 -0.429990D-01 -0.155546D-04  0.117397D-01  0.134493D-01
     42  0.619299D-02  0.902595D-02  0.144677D-02 -0.287418D-01 -0.635609D-02
     43  0.315066D-01  0.228904D-01  0.309031D-01 -0.314984D-01  0.175924D+00
     44  0.518793D-02  0.200606D-01  0.181057D-02 -0.151931D-01  0.104039D+00
     45 -0.189315D-01 -0.173206D-01 -0.150658D-01  0.223307D-02  0.412566D+00
     46  0.516922D-02  0.435577D-02  0.540954D-02 -0.409179D-02  0.639616D-01
     47  0.600013D-02  0.694512D-02  0.549580D-02 -0.661462D-02  0.181999D+00
     48  0.323240D-02  0.304282D-02  0.321812D-02 -0.506629D-02  0.747488D-01
               11            12            13            14            15
     11  0.143009D+02
     12 -0.243327D+01  0.187775D+02
     13  0.178894D+00 -0.408859D+00  0.481030D+01
     14 -0.436244D+01 -0.910198D+00 -0.312247D+00  0.430307D+01
     15 -0.113658D+01 -0.220622D+01  0.443629D+00  0.976350D+00  0.152898D+01
     16  0.200402D+01  0.148063D+01  0.781022D-01 -0.183524D-01 -0.624721D-01
     17 -0.346681D+01  0.226514D+01 -0.943234D-02  0.959963D-01  0.446770D-02
     18  0.234124D+01 -0.483899D+01 -0.679969D-01 -0.622574D-01  0.482133D-01
     19 -0.334521D-01 -0.311557D+00 -0.237300D-01  0.238215D-02  0.838375D-01
     20  0.302585D+00 -0.951613D-01 -0.190864D-02 -0.490201D-01 -0.468550D-02
     21 -0.105250D+00 -0.356781D+00  0.635298D-01  0.983754D-02  0.177645D+00
     22 -0.155735D+01  0.764287D-01  0.288702D-01  0.152688D-01 -0.518356D-02
     23 -0.136206D+01 -0.248536D+00  0.365660D-01 -0.455804D-01 -0.253401D-01
     24 -0.238120D+00 -0.583795D+01 -0.212022D-01 -0.821856D-02  0.130671D+00
     25  0.385099D-02 -0.230664D-01 -0.517547D-02  0.156362D-01  0.134789D-02
     26  0.131892D-01 -0.109393D-02  0.257197D-01 -0.185587D-01  0.153056D-01
     27  0.866508D-03  0.612503D-01 -0.112931D-01  0.138820D-01  0.380312D-02
     28  0.399087D-01  0.320801D-01  0.198347D-01 -0.180076D-02 -0.460888D-02
     29  0.239660D-01  0.758591D-02 -0.353624D-02 -0.505761D-01  0.853313D-02
     30  0.334620D-01  0.788213D-01  0.266730D-02  0.146174D-01  0.108511D-01
     31 -0.903869D-02 -0.700294D-01 -0.460838D-01 -0.225654D-01 -0.438666D-01
     32  0.176002D+00  0.410250D+00 -0.303490D-01 -0.161364D-01  0.103346D+00
     33  0.468327D+00  0.301532D-01 -0.362307D-01  0.455074D-01  0.735967D-01
     34  0.537074D-01  0.340697D-01 -0.140459D-01  0.104996D-02  0.581860D-02
     35  0.247295D+00  0.321243D+00  0.217950D-03 -0.632793D-02  0.258383D-01
     36  0.379365D+00  0.939335D-01 -0.536737D-03  0.137999D-01  0.347791D-01
     37 -0.131021D-01 -0.200024D-02 -0.630116D-03 -0.689977D-03 -0.522622D-02
     38  0.126575D-01  0.348819D-03 -0.155911D-02  0.122292D-02  0.112120D-01
     39 -0.107704D-01 -0.973633D-02 -0.814505D-04  0.194733D-02 -0.479512D-03
     40  0.259760D-01 -0.294704D-01 -0.303584D-01 -0.440240D-02  0.693873D-02
     41  0.344253D-01  0.568579D-01 -0.337062D-02  0.464554D-01 -0.966638D-01
     42 -0.212284D-01  0.110320D+00  0.452537D-02 -0.817491D-01  0.674544D-01
     43  0.192900D+00  0.400545D+00 -0.206429D-01  0.115840D+00  0.849042D-01
     44 -0.131491D+00  0.270389D+00  0.128290D+00  0.360641D-01  0.117539D+00
     45  0.326650D+00 -0.668284D-01  0.117874D-01  0.329464D-01 -0.106183D+00
     46  0.181376D+00  0.693282D-01 -0.305988D-02 -0.375172D-02  0.381538D-02
     47  0.170948D+00  0.865019D-01 -0.274696D-02 -0.455208D-02  0.848704D-02
     48  0.965529D-01 -0.423762D-01 -0.141959D-02 -0.284937D-02  0.790632D-02
               16            17            18            19            20
     16  0.157601D+02
     17 -0.193893D+01  0.183686D+02
     18  0.333356D+01 -0.597459D+00  0.207898D+02
     19 -0.455826D+01 -0.763737D+00  0.130445D+01  0.455349D+01
     20 -0.712660D+00 -0.427416D+01 -0.156362D+01  0.780808D+00  0.377068D+01
     21  0.120557D+01 -0.155747D+01 -0.249288D+01 -0.155250D+01  0.145960D+01
     22  0.177684D-01  0.129106D+00  0.520308D-01 -0.428219D-01  0.833585D-02
     23  0.350048D-01  0.216059D+00  0.490846D-01  0.258606D-01 -0.881095D-03
     24  0.217261D-01  0.124145D+00 -0.265674D-02  0.287130D-01  0.476948D-01
     25 -0.725681D-03 -0.294779D-01 -0.639181D-02 -0.606357D-02 -0.100245D-02
     26  0.587988D-02 -0.238821D-02  0.617676D-02  0.844106D-03 -0.260006D-02
     27 -0.429511D-02  0.212305D-01 -0.957422D-02  0.150167D-02  0.158905D-02
     28 -0.406953D-01  0.576583D-01  0.247940D-01  0.128151D-02 -0.596248D-04
     29  0.486883D-01  0.152266D+00  0.993089D-01  0.441182D-02 -0.171399D-02
     30  0.210143D-01  0.108501D+00 -0.828937D-03  0.458133D-02 -0.488936D-04
     31 -0.150434D+01 -0.391677D+01 -0.202125D+01 -0.268223D+00  0.299170D+00
     32 -0.401842D+01 -0.499824D+01  0.219347D+01  0.289449D+00  0.163949D+00
     33 -0.204097D+01  0.216972D+01 -0.712229D+01  0.567329D-01 -0.849155D-01
     34 -0.191848D+00 -0.148121D+00 -0.156248D+00 -0.373183D-01 -0.449835D-01
     35 -0.102836D+00 -0.176494D+00  0.217380D+00 -0.485837D-01  0.587362D-01
     36 -0.117645D+00  0.163751D+00  0.328511D-01 -0.335993D-01  0.804258D-01
     37 -0.226480D-01 -0.264241D-01 -0.846458D-02  0.217115D-02 -0.982830D-02
     38 -0.114510D-01  0.695876D-01  0.273734D-01 -0.124251D-01  0.159084D-01
     39 -0.121515D-02  0.105618D-01 -0.213224D-01  0.101210D-02 -0.153832D-02
     40 -0.440994D-02  0.846068D-02 -0.729333D-03 -0.113891D-01  0.129198D-01
     41 -0.125682D-01 -0.168133D-01  0.116720D-01  0.227139D-01  0.245124D-01
     42  0.573502D-02 -0.180114D-01  0.229714D-02 -0.139127D-02  0.665039D-02
     43 -0.452655D+01  0.464733D+01 -0.399645D+01  0.689594D-01 -0.233379D+00
     44  0.461468D+01 -0.651187D+01 -0.272134D+01 -0.221741D+00  0.124065D+00
     45 -0.404919D+01 -0.281990D+01 -0.694125D+01  0.300288D+00  0.113469D+00
     46  0.118097D+00 -0.677750D-01 -0.792832D-01  0.923381D-02 -0.444040D-01
     47  0.164494D-01  0.959621D-01 -0.715356D-01 -0.437903D-01 -0.546495D-01
     48  0.191231D-01  0.426724D-01  0.161223D+00  0.173432D-01  0.538562D-01
               21            22            23            24            25
     21  0.219411D+01
     22  0.283325D-01  0.145681D+02
     23  0.863488D-01  0.906586D+00  0.113937D+02
     24  0.319849D-01  0.901546D-02 -0.231037D+00  0.149155D+02
     25 -0.138999D-01 -0.150986D+01 -0.985995D-01 -0.550658D+00  0.135373D+01
     26  0.645023D-02 -0.331257D+00 -0.416259D+01  0.624751D-01  0.395471D+00
     27  0.538770D-02 -0.594397D+00  0.153913D-01 -0.401403D+01  0.611846D+00
     28  0.585533D-02 -0.342259D+01  0.744199D+00  0.758836D+00 -0.408005D-01
     29  0.872366D-02  0.855379D+00 -0.299348D+01  0.106774D+01 -0.408690D-01
     30  0.752329D-02  0.805394D+00  0.985096D+00 -0.300212D+01 -0.190358D-01
     31  0.484030D-01 -0.151220D+00 -0.145634D+00 -0.529479D-01  0.100005D-01
     32 -0.960393D-01 -0.142152D+00  0.299553D+00  0.171751D+00 -0.490293D-01
     33  0.389880D+00 -0.435726D-01  0.146157D+00 -0.143744D+00 -0.228953D-01
     34 -0.506271D-02 -0.657366D-01 -0.467468D-02 -0.877849D-03 -0.256864D-02
     35  0.128695D-01  0.552347D-02  0.560166D-01  0.757716D-01 -0.132590D-01
     36 -0.548704D-01  0.500658D-02  0.657194D-01 -0.289208D-01 -0.114431D-01
     37  0.624570D-02 -0.460117D-02 -0.533965D-02 -0.335510D-02  0.310092D-02
     38 -0.103290D-01 -0.939500D-03  0.107513D-01  0.802141D-02 -0.597172D-02
     39 -0.201059D-02 -0.505499D-03  0.855568D-03 -0.513391D-02  0.137889D-02
     40  0.857578D-02 -0.418199D+01  0.107857D+00 -0.276455D+00  0.526851D-02
     41  0.277309D-01  0.156869D+00 -0.384561D+01 -0.112859D+01 -0.311526D-01
     42 -0.225335D-01 -0.319465D+00 -0.872372D+00 -0.182131D+01  0.721249D-01
     43  0.308079D+00 -0.122270D+00  0.154369D+00  0.533927D-02 -0.453768D-01
     44  0.122083D+00  0.202012D+00  0.265972D+00  0.831830D-02 -0.330667D-01
     45  0.115021D+00 -0.444396D-02 -0.331212D-02 -0.202492D+00  0.304044D-02
     46  0.205591D-01 -0.286964D-02  0.596027D-02  0.208920D-02 -0.381918D-02
     47  0.373409D-01  0.155486D-01  0.134204D-01  0.543019D-02 -0.836066D-02
     48 -0.125739D-02  0.928613D-02  0.114460D-01 -0.394080D-02 -0.529421D-02
               26            27            28            29            30
     26  0.390033D+01
     27 -0.154247D+00  0.399172D+01
     28 -0.470171D-01 -0.507695D-01  0.336567D+01
     29  0.554085D-01 -0.843946D-02 -0.822636D+00  0.263942D+01
     30  0.169533D-02  0.621441D-01 -0.753787D+00 -0.121360D+01  0.294356D+01
     31 -0.210939D-01 -0.127897D-01 -0.111790D-01 -0.659966D-02 -0.205642D-02
     32  0.231484D-01  0.215337D-01  0.100588D-01  0.250364D-01  0.280879D-01
     33  0.172412D-01 -0.673558D-02  0.635971D-02  0.177162D-01  0.289344D-02
     34 -0.532269D-02 -0.326335D-02 -0.487558D-02  0.442085D-02  0.279124D-02
     35  0.628534D-02  0.108167D-01  0.436018D-02  0.111520D-01  0.117540D-01
     36  0.902690D-02 -0.514406D-03  0.444776D-02  0.136024D-01  0.435018D-02
     37 -0.142060D-02 -0.115782D-02 -0.157705D-02 -0.240288D-02 -0.190639D-02
     38  0.213884D-02  0.200736D-02  0.229408D-02  0.457230D-02  0.395530D-02
     39 -0.205087D-03 -0.827192D-03 -0.518442D-03 -0.857751D-03 -0.114002D-02
     40 -0.232125D-01  0.111224D+00  0.755590D-01 -0.113501D-02 -0.565955D-01
     41  0.772474D-01  0.285193D-01  0.299385D-02  0.911505D-01 -0.316332D-01
     42  0.968489D-02 -0.540439D-02 -0.236789D-01 -0.261237D-01 -0.841497D-01
     43  0.213085D-01  0.288148D-02 -0.145284D-02  0.182207D-01  0.104732D-01
     44  0.112454D+00  0.253786D-01  0.213141D-01  0.237434D-01  0.179970D-01
     45  0.761767D-02 -0.448917D-01  0.237602D-02  0.293912D-02 -0.116783D-01
     46  0.845783D-03  0.911674D-03  0.148613D-02  0.385705D-02  0.255340D-02
     47  0.140808D-02  0.251298D-02  0.540900D-02  0.808309D-02  0.570959D-02
     48  0.238101D-02  0.930347D-03  0.316691D-02  0.519010D-02  0.274045D-02
               31            32            33            34            35
     31  0.464747D+01
     32  0.189511D+01  0.515666D+01
     33  0.123322D+01 -0.519171D+01  0.893606D+01
     34 -0.202409D+01  0.130145D+01  0.926790D+00  0.762618D+01
     35  0.117414D+01 -0.653346D+00  0.149584D+01  0.801212D+00  0.390332D+01
     36  0.885938D+00  0.160132D+01 -0.106625D+01 -0.123602D+01 -0.188176D+01
     37 -0.490879D-01 -0.949810D-01 -0.223644D-01 -0.487075D+01 -0.181886D+01
     38 -0.831025D-02  0.110412D+00  0.303065D-01 -0.194007D+01 -0.318089D+01
     39  0.184327D-02 -0.608068D-01 -0.732456D-01  0.848475D+00 -0.989038D+00
     40 -0.205864D-01 -0.840477D-02  0.208621D-03 -0.989036D-02  0.197622D-02
     41 -0.170905D-01  0.593132D-01  0.324547D-02  0.511166D-03  0.193241D-01
     42  0.748628D-02 -0.354656D-01 -0.247193D-01 -0.168651D-02 -0.813013D-02
     43  0.660083D+00 -0.768831D-01 -0.458801D+00 -0.210850D+00 -0.184187D+00
     44 -0.143818D+00 -0.320019D+00  0.626048D-01 -0.289512D+00 -0.207336D+00
     45 -0.473754D+00  0.304461D-01 -0.351820D-02 -0.452239D+00  0.369767D+00
     46  0.438542D-01 -0.128078D-02 -0.228857D-01  0.200320D-01 -0.120919D+00
     47  0.665005D-01 -0.352299D-01 -0.184043D-01 -0.228728D-01 -0.211634D+00
     48  0.494902D-01  0.938649D-02 -0.505964D-01 -0.157484D+00  0.929915D-01
               36            37            38            39            40
     36  0.650434D+01
     37  0.922179D+00  0.494317D+01
     38 -0.118295D+01  0.204385D+01  0.290090D+01
     39 -0.564293D+01 -0.823628D+00  0.103251D+01  0.577518D+01
     40  0.385745D-03 -0.847693D-03  0.348155D-03 -0.174427D-03  0.410043D+01
     41  0.825161D-02 -0.229467D-02  0.473401D-02 -0.997707D-03 -0.111296D+00
     42 -0.131640D-01  0.262034D-02 -0.469978D-02  0.930912D-03  0.260691D+00
     43 -0.355901D+00  0.202792D-01 -0.728351D-01 -0.344773D-01 -0.105397D-01
     44  0.458729D+00 -0.699795D-01  0.368052D-01  0.306223D-01  0.187275D-01
     45  0.260375D+00 -0.690115D-01  0.815339D-01 -0.488810D-02 -0.779435D-02
     46 -0.269672D+00 -0.259376D-02 -0.631792D-03  0.869216D-02  0.155310D-03
     47  0.218571D-01  0.133593D-01 -0.950319D-02 -0.401533D-02  0.294393D-02
     48 -0.711413D-01  0.104306D-01 -0.108900D-01 -0.185899D-02  0.120189D-02
               41            42            43            44            45
     41  0.345601D+01
     42  0.112334D+01  0.182314D+01
     43  0.192807D-01 -0.157914D-01  0.100113D+02
     44  0.325166D-01 -0.362029D-01 -0.615173D+01  0.103499D+02
     45 -0.201327D-01  0.146140D-03  0.330528D+01 -0.681704D+00  0.122895D+02
     46  0.337007D-02 -0.316511D-02 -0.647026D+01  0.150172D+01  0.112734D+01
     47  0.717677D-02 -0.741160D-02  0.122305D+01 -0.370114D+01  0.261423D+01
     48  0.328327D-02 -0.507085D-02  0.823319D+00  0.236746D+01 -0.503679D+01
               46            47            48
     46  0.623005D+01
     47 -0.145902D+01  0.371979D+01
     48 -0.859335D+00 -0.267994D+01  0.504459D+01
 ReadGW:  IGet=0 IStart=         114 Next=        7255 LGW=        7141.
 ICntrl=12127.
 Symmetry not used in FoFDir.
 MinBra= 0 MaxBra= 2 Meth= 1.
 IRaf=       0 NMat=   1 IRICut=       1 DoRegI=T DoRafI=F ISym2E= 0 JSym2E=0.
 PrsmSu:  NPrtUS=   8 ThrOK=T
 PRISM was handed    16288378 working-precision words and  2437 shell-pairs
 PRISM was handed    16288378 working-precision words and  2437 shell-pairs
 PRISM was handed    16288378 working-precision words and  2437 shell-pairs
 PRISM was handed    16288378 working-precision words and  2437 shell-pairs
 PRISM was handed    16288378 working-precision words and  2437 shell-pairs
 PRISM was handed    16288378 working-precision words and  2437 shell-pairs
 PRISM was handed    16288378 working-precision words and  2437 shell-pairs
 PRISM was handed    16288378 working-precision words and  2437 shell-pairs
 Pruned (  75, 302) grid will be used in CalDFT.
 CkSvGd:  ISavGI=        -1 IRadAn=       4 IRASav=       4 ISavGd=        -1.
 CalDSu:  NPrtUS=   8 ThrOK=T
 IPart= 0 IRanGd=          0 ScrnBf=T ScrnGd=T RCrit=4.00D+00 DoMicB=T.
 IPart= 6 IRanGd=          0 ScrnBf=T ScrnGd=T RCrit=4.00D+00 DoMicB=T.
 IPart= 4 IRanGd=          0 ScrnBf=T ScrnGd=T RCrit=4.00D+00 DoMicB=T.
 CutRad = 1000.00    CtRdIn =    0.00    XCrit =  15.00   ICut = 0
 IPart= 5 IRanGd=          0 ScrnBf=T ScrnGd=T RCrit=4.00D+00 DoMicB=T.
 CutRad = 1000.00    CtRdIn =    0.00    XCrit =  15.00   ICut = 0
 IPart= 1 IRanGd=          0 ScrnBf=T ScrnGd=T RCrit=4.00D+00 DoMicB=T.
 IPart= 3 IRanGd=          0 ScrnBf=T ScrnGd=T RCrit=4.00D+00 DoMicB=T.
 CutRad = 1000.00    CtRdIn =    0.00    XCrit =  15.00   ICut = 0
 CutRad = 1000.00    CtRdIn =    0.00    XCrit =  15.00   ICut = 0
 IPart= 2 IRanGd=          0 ScrnBf=T ScrnGd=T RCrit=4.00D+00 DoMicB=T.
 IPart= 7 IRanGd=          0 ScrnBf=T ScrnGd=T RCrit=4.00D+00 DoMicB=T.
 CutRad = 1000.00    CtRdIn =    0.00    XCrit =  15.00   ICut = 0
 CutRad = 1000.00    CtRdIn =    0.00    XCrit =  15.00   ICut = 0
 CutRad = 1000.00    CtRdIn =    0.00    XCrit =  15.00   ICut = 0
 CutRad = 1000.00    CtRdIn =    0.00    XCrit =  15.00   ICut = 0
 IPart= 1        13761 of        15240 points in      32 batches and       97 microbatches, Max-NSigAt=      16 Max-NSgAt2=      16
 IPart= 4        14712 of        16420 points in      32 batches and      116 microbatches, Max-NSigAt=      16 Max-NSgAt2=      16
 IPart= 0        12461 of        14146 points in      29 batches and       97 microbatches, Max-NSigAt=      16 Max-NSgAt2=      16
 IPart= 5        14750 of        16518 points in      34 batches and       99 microbatches, Max-NSigAt=      16 Max-NSgAt2=      16
 IPart= 7        14514 of        17472 points in      37 batches and       80 microbatches, Max-NSigAt=      16 Max-NSgAt2=      16
 IPart= 3        13306 of        15454 points in      32 batches and       98 microbatches, Max-NSigAt=      16 Max-NSgAt2=      16
 IPart= 2        13792 of        15490 points in      32 batches and       86 microbatches, Max-NSigAt=      16 Max-NSgAt2=      16
 IPart= 6        15314 of        17488 points in      37 batches and      119 microbatches, Max-NSigAt=      16 Max-NSgAt2=      16
 Polarizability after L703:
                1             2             3
      1  0.643588D+02
      2  0.122701D+02  0.859850D+02
      3  0.727213D+01  0.197834D+02  0.597093D+02
 Dipole Derivatives after L703:
               1            2            3            4            5
      1-0.114511D+00-0.336269D+00-0.204617D+00-0.252414D-01 0.340952D-01
      2-0.388042D+00-0.497375D+00-0.400612D+00 0.499342D-01 0.687094D-01
      3-0.229382D+00-0.401514D+00-0.435130D-01-0.124500D-01 0.324437D-01
               6            7            8            9           10
      1-0.496633D-01 0.161422D-01-0.367441D-01 0.380971D-01-0.102542D+00
      2 0.521134D-01 0.547927D-02 0.380798D-01 0.549535D-01-0.199685D+00
      3 0.264806D-01 0.152881D-01 0.755542D-01-0.123608D-01-0.104539D+00
              11           12           13           14           15
      1-0.252657D-01-0.121575D-01 0.346167D-01 0.247660D-01 0.268727D-01
      2 0.164452D+00 0.736894D-01 0.312999D-01-0.136080D-01 0.330364D-01
      3 0.339359D-01 0.967901D-01 0.458349D-01 0.620027D-01-0.724199D-01
              16           17           18           19           20
      1 0.116540D+01 0.530275D-01-0.232825D+00-0.709358D-01 0.213658D-01
      2 0.165733D+00 0.628438D+00-0.169455D+00 0.235324D-01-0.562931D-01
      3-0.191006D+00-0.201243D+00 0.595227D+00-0.301569D-01 0.698431D-01
              21           22           23           24           25
      1-0.552380D-01 0.959862D-01 0.457817D-01 0.204531D-01-0.112897D+00
      2 0.110926D+00 0.853519D-01 0.923448D-01-0.279688D-01 0.715543D-01
      3-0.129752D+00 0.247491D-01 0.301260D-01 0.108180D+00 0.587624D-01
              26           27           28           29           30
      1-0.758853D-02 0.400856D-01 0.733286D-02-0.147731D-01-0.622927D-01
      2 0.102594D-01 0.798239D-02-0.840768D-01-0.380234D-01-0.851371D-01
      3-0.102208D-01 0.675291D-01-0.855210D-01-0.630635D-01-0.986193D-02
              31           32           33           34           35
      1-0.197829D-01 0.100712D+01 0.668506D+00-0.669941D+00-0.554992D+00
      2 0.918869D+00 0.765717D+00 0.842608D+00-0.540712D+00-0.117759D+01
      3 0.585792D+00 0.669276D+00 0.205335D+00-0.184558D+00-0.602242D+00
              36           37           38           39           40
      1-0.281243D+00 0.199678D+00 0.727324D-01-0.823986D-01 0.515979D-01
      2-0.701524D+00-0.289628D-01 0.307507D+00 0.167987D-01-0.131076D-01
      3-0.702527D+00-0.123319D+00 0.860753D-01 0.237229D+00 0.381877D-01
              41           42           43           44           45
      1 0.698108D-02 0.196385D-01-0.874794D+00-0.224013D+00 0.236563D+00
      2 0.159988D-01 0.899767D-01-0.162446D+00-0.563058D+00 0.205423D+00
      3 0.220300D-01-0.122328D+00 0.163668D+00 0.223961D+00-0.439301D+00
              46           47           48
      1 0.419896D+00-0.662215D-01-0.697822D-01
      2 0.652774D-01 0.254445D+00-0.102811D+00
      3 0.286485D-01-0.269645D-01 0.195293D+00
 Hessian after L703:
                1             2             3             4             5
      1  0.511725D+00
      2 -0.100038D+00  0.218308D+00
      3 -0.328686D-01 -0.264683D+00  0.463928D+00
      4 -0.176688D+00  0.936400D-01 -0.114793D+00  0.181684D+00
      5  0.915578D-01 -0.862915D-01  0.943786D-01 -0.975314D-01  0.867506D-01
      6 -0.115284D+00  0.985332D-01 -0.159580D+00  0.121044D+00 -0.101092D+00
      7 -0.907403D-01 -0.432186D-01  0.858560D-01  0.976202D-02  0.104762D-01
      8 -0.432314D-01 -0.101587D+00  0.131976D+00 -0.517677D-02 -0.809068D-03
      9  0.853995D-01  0.127916D+00 -0.226449D+00  0.860204D-02  0.802242D-02
     10 -0.196017D+00  0.134385D-01  0.320352D-01 -0.911703D-02  0.766490D-03
     11  0.345301D-01 -0.524146D-01  0.176880D-01  0.990583D-02  0.361293D-02
     12  0.491722D-01  0.167777D-01 -0.866195D-01 -0.153731D-01  0.444027D-02
     13 -0.779470D-02 -0.115967D-01  0.326797D-01  0.145800D-02 -0.358093D-03
     14  0.428199D-03  0.170318D-02 -0.243654D-02 -0.524272D-04  0.263715D-03
     15  0.182200D-02  0.219925D-02 -0.511029D-02  0.210930D-03  0.328291D-04
     16 -0.397316D-01 -0.114888D-01 -0.138575D-01 -0.282636D-02 -0.240503D-03
     17 -0.135187D-01  0.551019D-02  0.312885D-02  0.190927D-02 -0.192165D-02
     18 -0.406011D-02  0.490149D-02  0.100097D-01  0.173656D-02 -0.400428D-03
     19 -0.136209D-03 -0.108389D-02 -0.260997D-03  0.959078D-04  0.856154D-04
     20  0.168555D-02 -0.926883D-03 -0.126893D-03 -0.114313D-03  0.497284D-03
     21 -0.329233D-03 -0.731544D-03 -0.101860D-02 -0.303423D-03  0.218535D-04
     22 -0.150741D-01  0.322077D-01 -0.398142D-02 -0.334340D-02  0.443597D-03
     23  0.102419D-01 -0.286396D-02 -0.232121D-02 -0.169271D-02 -0.117746D-02
     24  0.337868D-02 -0.441744D-02  0.237909D-02  0.520982D-03 -0.816482D-04
     25  0.821694D-03  0.247256D-02 -0.729882D-03 -0.222044D-03  0.137188D-03
     26  0.934009D-03 -0.540470D-02  0.204687D-02  0.111767D-02 -0.605585D-04
     27  0.475654D-03  0.462396D-03  0.901351D-03 -0.359454D-04 -0.328395D-03
     28  0.472231D-03 -0.101550D-02 -0.147028D-04  0.187614D-03  0.954546D-04
     29 -0.886921D-04  0.256835D-02  0.903017D-03  0.983912D-04 -0.243086D-03
     30  0.151716D-03 -0.171851D-04  0.247239D-03  0.342067D-04 -0.677276D-04
     31  0.352155D-01  0.628488D-01  0.405100D-01 -0.150787D-02 -0.543462D-02
     32  0.484956D-01  0.755213D-01  0.568000D-01 -0.187921D-02 -0.166350D-02
     33  0.403215D-01  0.702341D-01  0.320153D-01 -0.182072D-02 -0.548576D-02
     34 -0.217463D-01 -0.343384D-01 -0.226570D-01  0.830879D-03  0.178222D-03
     35 -0.297609D-01 -0.534407D-01 -0.354146D-01  0.704132D-03  0.774088D-03
     36 -0.262696D-01 -0.479642D-01 -0.283144D-01  0.822068D-03  0.938397D-03
     37 -0.489971D-03 -0.127922D-02 -0.355534D-03 -0.238474D-04 -0.154274D-04
     38  0.865541D-03  0.156169D-03  0.585618D-04 -0.827580D-04  0.159821D-03
     39 -0.141935D-03 -0.733673D-03 -0.634109D-03 -0.840844D-04 -0.379059D-04
     40  0.101155D-02 -0.778889D-04 -0.169846D-02  0.415607D-04 -0.868444D-04
     41 -0.184304D-02  0.105026D-02  0.261612D-03  0.649169D-04  0.207850D-03
     42  0.223679D-03 -0.427136D-03  0.520808D-03 -0.130967D-03 -0.186949D-03
     43 -0.165926D-02 -0.127015D-02  0.956964D-04 -0.113978D-03 -0.686822D-04
     44  0.864645D-03 -0.121962D-02 -0.163675D-02 -0.840505D-03  0.494185D-05
     45 -0.155225D-02 -0.117797D-02 -0.240001D-02 -0.594851D-03 -0.386942D-04
     46  0.831841D-03  0.799947D-03  0.407619D-04 -0.217254D-03 -0.501401D-05
     47 -0.112206D-02 -0.668263D-03 -0.622092D-03 -0.700601D-04 -0.104445D-03
     48 -0.438962D-03 -0.872334D-03  0.124667D-03  0.165594D-03 -0.114974D-03
                6             7             8             9            10
      6  0.158707D+00
      7 -0.149360D-01  0.900854D-01
      8  0.881161D-02  0.483422D-01  0.100452D+00
      9 -0.811884D-02 -0.924500D-01 -0.134386D+00  0.235841D+00
     10  0.902610D-02 -0.405808D-02  0.354320D-02  0.709848D-03  0.440204D+00
     11 -0.343385D-02 -0.137510D-01  0.442104D-02  0.352696D-02 -0.170318D-01
     12  0.945642D-02  0.210103D-01 -0.508369D-02 -0.433650D-02 -0.463626D-01
     13 -0.759363D-03 -0.470849D-02  0.176224D-02  0.164663D-02 -0.508609D-01
     14 -0.567895D-03  0.472273D-03  0.599837D-03 -0.691622D-04 -0.985344D-02
     15  0.115787D-02  0.267227D-03 -0.112735D-02  0.748482D-03  0.328939D-01
     16  0.835323D-03  0.131669D-03  0.927112D-03  0.124289D-02 -0.741148D-01
     17 -0.987817D-03  0.505492D-03 -0.104170D-02 -0.116106D-02 -0.264172D-01
     18 -0.249916D-03  0.164545D-02 -0.863571D-03 -0.155672D-02 -0.303425D-01
     19  0.308235D-03 -0.375157D-03 -0.203214D-03 -0.474286D-04 -0.163642D-02
     20  0.356303D-03 -0.184870D-03 -0.292507D-04  0.984605D-04 -0.813653D-02
     21  0.232544D-03 -0.421081D-03 -0.100094D-03  0.561262D-04 -0.774980D-02
     22  0.114776D-02  0.198996D-02 -0.775591D-03 -0.857534D-03 -0.841046D-01
     23 -0.477008D-03 -0.109418D-02  0.182400D-02  0.849290D-03  0.275321D-01
     24 -0.235940D-03  0.445805D-03 -0.848707D-03  0.923218D-03 -0.244377D-02
     25  0.261842D-03  0.175193D-03 -0.132331D-03 -0.163724D-03 -0.900124D-02
     26 -0.411913D-03 -0.413338D-04 -0.499948D-04 -0.176338D-03  0.322287D-01
     27 -0.227977D-04 -0.366427D-03  0.304974D-04  0.114279D-03 -0.337624D-02
     28 -0.533813D-04 -0.296239D-05 -0.245078D-04  0.105445D-03  0.538732D-02
     29 -0.129867D-03  0.266823D-03 -0.905203D-04 -0.130697D-03 -0.153086D-01
     30 -0.566199D-04 -0.701392D-05 -0.101183D-03 -0.170945D-03  0.286447D-02
     31 -0.233873D-02 -0.200703D-02 -0.560447D-02 -0.460089D-02  0.123239D-01
     32 -0.110012D-02 -0.250300D-02 -0.536817D-02 -0.468163D-02  0.445258D-01
     33 -0.204561D-02  0.276332D-04  0.577096D-03  0.184324D-02  0.340608D-01
     34  0.474169D-03  0.593883D-03  0.862202D-03  0.230654D-03 -0.103878D-01
     35  0.514675D-03  0.410638D-03  0.776394D-03  0.288236D-03 -0.139774D-01
     36  0.736053D-03  0.102833D-03  0.246492D-03  0.281038D-03 -0.131944D-01
     37 -0.671712D-04 -0.414650D-04 -0.155478D-03 -0.912442D-04  0.506760D-03
     38  0.372375D-05 -0.162913D-04  0.660512D-05  0.465960D-04  0.202268D-03
     39 -0.818247D-05 -0.145789D-04  0.135612D-03  0.114631D-04  0.567747D-03
     40  0.175651D-03 -0.348530D-03 -0.163237D-03  0.410610D-03  0.241879D-03
     41 -0.163235D-03  0.797545D-03  0.268408D-03 -0.647506D-03 -0.440859D-02
     42  0.120759D-03 -0.620985D-03  0.277638D-03  0.215225D-03  0.861787D-04
     43  0.173645D-03 -0.328424D-03 -0.141339D-03 -0.325460D-03 -0.173219D-01
     44  0.135042D-03 -0.403858D-03  0.688301D-03  0.553380D-03 -0.258164D-01
     45 -0.449046D-04 -0.510608D-03  0.442316D-03  0.670468D-03 -0.110074D-01
     46 -0.788785D-05 -0.127631D-03  0.171346D-03  0.188704D-03 -0.204399D-02
     47  0.901216D-05 -0.581953D-04 -0.603978D-04 -0.495046D-04 -0.128702D-02
     48 -0.479312D-04 -0.284800D-04  0.136090D-04 -0.726442D-04  0.223260D-02
               11            12            13            14            15
     11  0.481773D+00
     12 -0.446526D-01  0.578716D+00
     13 -0.938038D-02  0.331801D-01  0.609335D-01
     14 -0.770206D-01  0.820212D-01  0.104702D-01  0.861736D-01
     15  0.794044D-01 -0.275039D+00 -0.351530D-01 -0.863653D-01  0.297975D+00
     16 -0.331057D-01 -0.377712D-01  0.344364D-03  0.223664D-02  0.908481D-03
     17 -0.103351D+00 -0.402838D-01  0.506971D-02  0.520074D-02  0.679484D-02
     18 -0.294275D-01 -0.122845D+00 -0.197519D-01 -0.205444D-01 -0.253652D-01
     19  0.391537D-02 -0.987874D-02 -0.114755D-02 -0.115276D-02 -0.865180D-03
     20  0.618473D-02 -0.177493D-01 -0.230097D-02 -0.172637D-02 -0.256919D-02
     21  0.565719D-02 -0.139998D-01 -0.151126D-02 -0.103047D-02 -0.110932D-02
     22  0.334580D-01 -0.151858D-02  0.134920D-02 -0.350046D-02 -0.648614D-03
     23 -0.170313D+00  0.113953D-01  0.387665D-02 -0.116610D-01  0.692515D-03
     24  0.118830D-01 -0.812881D-01 -0.108776D-01  0.294482D-01  0.241188D-03
     25  0.278850D-03  0.225728D-02  0.225549D-03  0.166387D-03 -0.382398D-03
     26 -0.276202D-02 -0.836507D-02 -0.361233D-03  0.121477D-02  0.322511D-03
     27  0.283834D-03 -0.957053D-04 -0.378256D-03 -0.309617D-03  0.179137D-03
     28  0.758054D-02  0.861178D-02  0.263644D-03 -0.770252D-03  0.229415D-04
     29 -0.192216D-01 -0.205584D-01 -0.538525D-03  0.970287D-03  0.437922D-03
     30  0.320717D-02  0.226323D-02  0.472785D-03 -0.346659D-03  0.578477D-03
     31 -0.793067D-02 -0.748175D-02 -0.146499D-02 -0.200732D-02 -0.153654D-02
     32 -0.456108D-01 -0.284353D-01 -0.607230D-03 -0.783638D-03 -0.821789D-03
     33 -0.413196D-01 -0.207796D-01 -0.429622D-03 -0.515527D-03  0.399540D-03
     34  0.725267D-02  0.640495D-02  0.674379D-03  0.532850D-03  0.328762D-03
     35  0.607390D-02  0.483752D-02  0.458765D-03 -0.289822D-03 -0.223668D-03
     36  0.592249D-02  0.729803D-02  0.649375D-03  0.829404D-03  0.536812D-03
     37 -0.371083D-03 -0.374371D-04  0.932463D-04 -0.119816D-03 -0.955622D-04
     38 -0.171016D-03 -0.112788D-02 -0.141901D-03 -0.221907D-03 -0.121382D-03
     39 -0.565125D-03 -0.575004D-03 -0.486462D-04 -0.241168D-03 -0.204159D-03
     40  0.406534D-02 -0.109167D-01 -0.163074D-03  0.236752D-02 -0.105275D-03
     41 -0.131012D-01  0.306497D-01  0.247152D-02 -0.553419D-02 -0.519247D-03
     42  0.143408D-02 -0.251062D-02 -0.290529D-03  0.130502D-03  0.145027D-02
     43 -0.158550D-01  0.632614D-02  0.769552D-03  0.595372D-03  0.174927D-02
     44 -0.183704D-01  0.125807D-01  0.119008D-02  0.119663D-02  0.190605D-02
     45 -0.101437D-01  0.119425D-01  0.471878D-03  0.225220D-03  0.313018D-02
     46 -0.356110D-02  0.237738D-02  0.283006D-04  0.187000D-03  0.583068D-03
     47  0.270994D-03  0.355363D-02 -0.141979D-04 -0.851994D-04 -0.424039D-04
     48  0.535234D-03 -0.158704D-02  0.996659D-04 -0.227858D-03  0.431150D-03
               16            17            18            19            20
     16  0.459996D+00
     17  0.500747D-01  0.503776D+00
     18  0.855144D-01 -0.561144D-01  0.558367D+00
     19 -0.801235D-01  0.336007D-01 -0.831931D-01  0.103171D+00
     20  0.269898D-01 -0.863732D-01  0.720261D-01 -0.389749D-01  0.100681D+00
     21 -0.833229D-01  0.779773D-01 -0.217430D+00  0.791619D-01 -0.901096D-01
     22  0.757515D-02 -0.127625D-01  0.522228D-02  0.786874D-03 -0.187299D-03
     23  0.484979D-02 -0.251287D-01  0.108488D-04  0.102408D-02  0.186526D-02
     24  0.679817D-02 -0.182338D-01  0.180230D-02  0.432981D-04 -0.565034D-03
     25 -0.910753D-03 -0.354572D-03 -0.277765D-04  0.161499D-03  0.228595D-03
     26  0.152642D-02  0.135098D-02 -0.689512D-03 -0.359669D-03  0.119522D-04
     27  0.791956D-03 -0.194726D-03  0.409246D-03 -0.126519D-04 -0.153377D-05
     28 -0.854511D-03  0.228366D-02 -0.543529D-03 -0.394979D-04  0.564193D-04
     29  0.334004D-02 -0.311529D-02  0.301909D-02  0.716625D-04  0.152805D-03
     30 -0.120898D-02  0.118352D-02  0.172193D-03  0.291948D-03  0.437886D-04
     31 -0.142338D+00  0.477825D-01 -0.798831D-02 -0.244883D-01  0.238367D-01
     32  0.419035D-01 -0.106434D+00  0.535568D-04  0.264251D-01 -0.137609D-01
     33 -0.426688D-02 -0.101152D-01 -0.650577D-01 -0.146332D-01  0.102356D-01
     34  0.118307D-01  0.550300D-02  0.105223D-01  0.385358D-03  0.828303D-03
     35 -0.147209D-03 -0.152308D-01 -0.147018D-01 -0.296030D-02  0.239372D-02
     36  0.121222D-01 -0.558696D-02 -0.104376D-01 -0.578755D-03  0.132634D-02
     37 -0.306806D-02 -0.570981D-03 -0.248321D-02  0.555905D-05 -0.425333D-04
     38  0.917067D-04 -0.318471D-02 -0.209803D-02 -0.932562D-03  0.519094D-03
     39 -0.314677D-02 -0.336830D-02 -0.181209D-02 -0.194901D-03  0.730651D-04
     40  0.374769D-03 -0.833130D-03  0.752301D-03 -0.105293D-03 -0.149556D-03
     41  0.703771D-03  0.929812D-03  0.303723D-02 -0.505126D-03 -0.107065D-03
     42 -0.394553D-03 -0.498336D-03  0.193876D-03  0.290061D-03  0.269696D-03
     43 -0.120885D+00 -0.619124D-01  0.608749D-01  0.288780D-02 -0.397188D-02
     44 -0.696600D-01 -0.146352D+00  0.568881D-01 -0.203483D-01 -0.108005D-01
     45  0.323095D-01  0.284442D-01 -0.141499D+00  0.284534D-01  0.255027D-01
     46 -0.154005D-01 -0.303593D-01 -0.178777D-01  0.557658D-03  0.437513D-03
     47 -0.180013D-01 -0.246339D-01 -0.150968D-01  0.139824D-02  0.141870D-02
     48  0.344594D-02  0.190156D-01  0.152985D-01  0.111624D-02  0.118952D-02
               21            22            23            24            25
     21  0.235553D+00
     22  0.412674D-03  0.553317D+00
     23  0.191552D-02  0.362110D-01  0.469579D+00
     24  0.784110D-03 -0.274781D-02  0.979470D-02  0.565264D+00
     25  0.284332D-03 -0.295525D+00  0.103475D-01  0.563890D-01  0.320679D+00
     26 -0.340675D-03  0.884521D-02 -0.467287D-01 -0.213933D-02 -0.132105D-01
     27 -0.295697D-03  0.562147D-01 -0.251437D-02 -0.605116D-01 -0.618937D-01
     28  0.185739D-03 -0.112421D+00 -0.776824D-01 -0.832515D-01 -0.144719D-01
     29  0.217635D-05 -0.770188D-01 -0.137226D+00 -0.976652D-01  0.583807D-03
     30  0.519395D-03 -0.830156D-01 -0.983968D-01 -0.153164D+00  0.367130D-02
     31  0.602607D-02 -0.289205D-02 -0.210215D-02 -0.315744D-02 -0.628425D-03
     32 -0.810683D-02 -0.607381D-02 -0.328930D-02 -0.674620D-02 -0.148261D-02
     33  0.108767D-01 -0.433517D-02 -0.238266D-02 -0.507619D-02 -0.817701D-03
     34  0.326202D-03  0.283445D-02  0.135225D-02  0.157259D-02  0.763792D-03
[...]
    Z6        1.20490   0.00000   0.00000   0.00054   0.00059   1.20549
    X7       -4.03666   0.00001   0.00000  -0.00186  -0.00201  -4.03868
    Y7        1.77113   0.00000   0.00000  -0.00022  -0.00026   1.77087
    Z7       -0.51040   0.00000   0.00000   0.00118   0.00129  -0.50911
    X8       -2.85953   0.00000   0.00000   0.00040   0.00033  -2.85920
    Y8        5.51521   0.00000   0.00000   0.00025   0.00025   5.51546
    Z8        2.72099   0.00000   0.00000  -0.00110  -0.00107   2.71992
    X9       -4.87277   0.00000   0.00000   0.00037   0.00032  -4.87245
    Y9        5.62413   0.00001   0.00000   0.00115   0.00108   5.62521
    Z9        3.17130  -0.00001   0.00000  -0.00149  -0.00133   3.16997
   X10       -1.84205   0.00000   0.00000   0.00061   0.00058  -1.84147
   Y10        6.75582   0.00000   0.00000   0.00057   0.00061   6.75643
   Z10        4.02138  -0.00001   0.00000  -0.00157  -0.00161   4.01977
   X11       -1.08731  -0.00002   0.00000  -0.00034  -0.00035  -1.08766
   Y11       -0.57924  -0.00002   0.00000   0.00079   0.00085  -0.57840
   Z11        0.45650  -0.00002   0.00000  -0.00105  -0.00114   0.45535
   X12       -2.50893   0.00003   0.00000  -0.00011  -0.00016  -2.50909
   Y12       -2.73113  -0.00001   0.00000   0.00106   0.00107  -2.73006
   Z12       -1.40624   0.00003   0.00000  -0.00098  -0.00097  -1.40721
   X13       -1.49907  -0.00002   0.00000   0.00026   0.00029  -1.49878
   Y13       -4.12901   0.00002   0.00000   0.00115   0.00120  -4.12781
   Z13       -0.80478   0.00000   0.00000  -0.00154  -0.00160  -0.80638
   X14       -2.58833   0.00001   0.00000   0.00094   0.00071  -2.58761
   Y14        6.23790   0.00000   0.00000  -0.00075  -0.00074   6.23716
   Z14        0.80337  -0.00001   0.00000  -0.00140  -0.00139   0.80198
   X15       -5.05250  -0.00003   0.00000   0.00088   0.00101  -5.05149
   Y15       -0.50926  -0.00003   0.00000  -0.00133  -0.00140  -0.51067
   Z15        2.47990  -0.00004   0.00000   0.00131   0.00148   2.48138
   X16       -5.52204   0.00001   0.00000   0.00130   0.00140  -5.52064
   Y16       -1.84252   0.00003   0.00000  -0.00160  -0.00169  -1.84421
   Z16        1.32088   0.00004   0.00000   0.00160   0.00180   1.32268
         Item               Value     Threshold  Converged?
 Maximum Force            0.000038     0.000450     YES
 RMS     Force            0.000014     0.000300     YES
 Maximum Displacement     0.002010     0.001800     NO 
 RMS     Displacement     0.000998     0.001200     YES
 Predicted change in Energy=-1.183646D-08
 GradGradGradGradGradGradGradGradGradGradGradGradGradGradGradGradGradGrad


 Test job not archived.
 1\1\GINC-NODE39\Freq\UB3LYP\CBSB7\C4H9O3(2)\NYEE\10-Jul-2014\0\\# freq
  nosymm b3lyp/cbsb7 iop(7/33=1)\\Title Card Required\\0,2\C,0.408529,1
 .242425,1.135921\H,1.121689,0.765529,1.794471\H,0.807089,1.773316,0.27
 9698\C,-1.017558,1.475886,1.559836\H,-1.164672,1.107186,2.577707\C,-1.
 719595,0.478266,0.637604\H,-2.136111,0.937243,-0.270092\C,-1.513199,2.
 918524,1.439886\H,-2.578558,2.976162,1.678179\H,-0.974773,3.575028,2.1
 28021\O,-0.575379,-0.306523,0.241567\O,-1.327667,-1.44525,-0.74415\H,-
 0.793276,-2.184976,-0.42587\H,-1.369683,3.300957,0.425126\O,-2.673667,
 -0.269491,1.312307\H,-2.922136,-0.975018,0.698977\\Version=AM64L-G03Re
 vD.01\HF=-383.4459218\S2=0.786358\S2-1=0.\S2A=0.75021\RMSD=2.986e-09\R
 MSF=1.420e-05\ZeroPoint=0.128792\Thermal=0.1372259\Dipole=0.4037385,0.
 3235558,0.2747245\DipoleDeriv=-0.1145107,-0.3880418,-0.2293821,-0.3362
 693,-0.4973753,-0.4015142,-0.2046165,-0.4006115,-0.043513,-0.0252414,0
 .0499342,-0.01245,0.0340952,0.0687094,0.0324437,-0.0496633,0.0521134,0
 .0264806,0.0161422,0.0054793,0.0152881,-0.0367441,0.0380798,0.0755542,
 0.0380971,0.0549535,-0.0123608,-0.1025417,-0.1996848,-0.1045388,-0.025
 2657,0.164452,0.0339359,-0.0121575,0.0736894,0.0967901,0.0346167,0.031
 2999,0.0458349,0.024766,-0.013608,0.0620027,0.0268727,0.0330364,-0.072
 4199,1.1653958,0.1657331,-0.1910058,0.0530275,0.6284383,-0.201243,-0.2
 328251,-0.1694551,0.595227,-0.0709358,0.0235324,-0.0301569,0.0213658,-
 0.0562931,0.0698431,-0.055238,0.1109259,-0.1297518,0.0959862,0.0853519
 ,0.0247491,0.0457817,0.0923448,0.030126,0.0204531,-0.0279688,0.1081797
 ,-0.1128972,0.0715543,0.0587624,-0.0075885,0.0102594,-0.0102208,0.0400
 856,0.0079824,0.0675291,0.0073329,-0.0840768,-0.085521,-0.0147731,-0.0
 380234,-0.0630635,-0.0622927,-0.0851371,-0.0098619,-0.0197829,0.918869
 1,0.5857922,1.0071179,0.7657165,0.6692762,0.6685063,0.8426081,0.205335
 1,-0.669941,-0.5407118,-0.1845579,-0.5549925,-1.1775925,-0.6022423,-0.
 281243,-0.7015238,-0.7025274,0.1996775,-0.0289628,-0.1233189,0.0727324
 ,0.3075068,0.0860753,-0.0823986,0.0167987,0.2372289,0.0515979,-0.01310
 76,0.0381877,0.0069811,0.0159988,0.02203,0.0196385,0.0899767,-0.122327
 5,-0.8747942,-0.1624462,0.1636684,-0.224013,-0.5630585,0.2239612,0.236
 5634,0.2054229,-0.4393015,0.4198959,0.0652774,0.0286485,-0.0662215,0.2
 544449,-0.0269645,-0.0697822,-0.1028109,0.1952934\Polar=64.3588397,12.
 2701427,85.9850339,7.2721263,19.7833583,59.7092705\PG=C01 [X(C4H9O3)]\
 NImag=1\\0.51172522,-0.10003844,0.21830775,-0.03286862,-0.26468300,0.4
 6392799,-0.17668813,0.09363999,-0.11479323,0.18168392,0.09155782,-0.08
 629145,0.09437860,-0.09753145,0.08675058,-0.11528413,0.09853324,-0.159
 58029,0.12104392,-0.10109190,0.15870738,-0.09074032,-0.04321858,0.0858
 5597,0.00976202,0.01047624,-0.01493598,0.09008536,-0.04323141,-0.10158
 702,0.13197556,-0.00517677,-0.00080907,0.00881161,0.04834225,0.1004515
 4,0.08539950,0.12791638,-0.22644896,0.00860204,0.00802242,-0.00811884,
 -0.09245003,-0.13438583,0.23584107,-0.19601742,0.01343855,0.03203520,-
 0.00911703,0.00076649,0.00902610,-0.00405808,0.00354320,0.00070985,0.4
 4020427,0.03453009,-0.05241461,0.01768799,0.00990583,0.00361293,-0.003
 43385,-0.01375096,0.00442104,0.00352696,-0.01703181,0.48177338,0.04917
 218,0.01677768,-0.08661949,-0.01537308,0.00444027,0.00945642,0.0210102
 8,-0.00508369,-0.00433650,-0.04636263,-0.04465258,0.57871552,-0.007794
 70,-0.01159667,0.03267975,0.00145800,-0.00035809,-0.00075936,-0.004708
 49,0.00176224,0.00164663,-0.05086090,-0.00938038,0.03318014,0.06093346
 ,0.00042820,0.00170318,-0.00243654,-0.00005243,0.00026371,-0.00056789,
 0.00047227,0.00059984,-0.00006916,-0.00985344,-0.07702056,0.08202122,0
 .01047023,0.08617355,0.00182200,0.00219925,-0.00511029,0.00021093,0.00
 003283,0.00115787,0.00026723,-0.00112735,0.00074848,0.03289386,0.07940
 439,-0.27503894,-0.03515297,-0.08636529,0.29797484,-0.03973156,-0.0114
 8880,-0.01385754,-0.00282636,-0.00024050,0.00083532,0.00013167,0.00092
 711,0.00124289,-0.07411475,-0.03310569,-0.03777118,0.00034436,0.002236
 64,0.00090848,0.45999600,-0.01351871,0.00551019,0.00312885,0.00190927,
 -0.00192165,-0.00098782,0.00050549,-0.00104170,-0.00116106,-0.02641724
 ,-0.10335142,-0.04028377,0.00506971,0.00520074,0.00679484,0.05007469,0
 .50377597,-0.00406011,0.00490149,0.01000970,0.00173656,-0.00040043,-0.
 00024992,0.00164545,-0.00086357,-0.00155672,-0.03034249,-0.02942747,-0
 .12284485,-0.01975194,-0.02054437,-0.02536523,0.08551444,-0.05611439,0
 .55836726,-0.00013621,-0.00108389,-0.00026100,0.00009591,0.00008562,0.
 00030823,-0.00037516,-0.00020321,-0.00004743,-0.00163642,0.00391537,-0
 .00987874,-0.00114755,-0.00115276,-0.00086518,-0.08012354,0.03360065,-
 0.08319309,0.10317131,0.00168555,-0.00092688,-0.00012689,-0.00011431,0
 .00049728,0.00035630,-0.00018487,-0.00002925,0.00009846,-0.00813653,0.
 00618473,-0.01774934,-0.00230097,-0.00172637,-0.00256919,0.02698979,-0
 .08637319,0.07202605,-0.03897492,0.10068061,-0.00032923,-0.00073154,-0
 .00101860,-0.00030342,0.00002185,0.00023254,-0.00042108,-0.00010009,0.
 00005613,-0.00774980,0.00565719,-0.01399978,-0.00151126,-0.00103047,-0
 .00110932,-0.08332294,0.07797727,-0.21742964,0.07916185,-0.09010962,0.
 23555293,-0.01507415,0.03220767,-0.00398142,-0.00334340,0.00044360,0.0
 0114776,0.00198996,-0.00077559,-0.00085753,-0.08410462,0.03345804,-0.0
 0151858,0.00134920,-0.00350046,-0.00064861,0.00757515,-0.01276254,0.00
 522228,0.00078687,-0.00018730,0.00041267,0.55331720,0.01024187,-0.0028
 6396,-0.00232121,-0.00169271,-0.00117746,-0.00047701,-0.00109418,0.001
 82400,0.00084929,0.02753210,-0.17031339,0.01139530,0.00387665,-0.01166
 102,0.00069251,0.00484979,-0.02512872,0.00001085,0.00102408,0.00186526
 ,0.00191552,0.03621101,0.46957922,0.00337868,-0.00441744,0.00237909,0.
 00052098,-0.00008165,-0.00023594,0.00044581,-0.00084871,0.00092322,-0.
 00244377,0.01188301,-0.08128809,-0.01087764,0.02944820,0.00024119,0.00
 679817,-0.01823380,0.00180230,0.00004330,-0.00056503,0.00078411,-0.002
 74781,0.00979470,0.56526425,0.00082169,0.00247256,-0.00072988,-0.00022
 204,0.00013719,0.00026184,0.00017519,-0.00013233,-0.00016372,-0.009001
 24,0.00027885,0.00225728,0.00022555,0.00016639,-0.00038240,-0.00091075
 ,-0.00035457,-0.00002778,0.00016150,0.00022860,0.00028433,-0.29552537,
 0.01034750,0.05638903,0.32067911,0.00093401,-0.00540470,0.00204687,0.0
 0111767,-0.00006056,-0.00041191,-0.00004133,-0.00004999,-0.00017634,0.
 03222869,-0.00276202,-0.00836507,-0.00036123,0.00121477,0.00032251,0.0
 0152642,0.00135098,-0.00068951,-0.00035967,0.00001195,-0.00034068,0.00
 884521,-0.04672867,-0.00213933,-0.01321048,0.05114304,0.00047565,0.000
 46240,0.00090135,-0.00003595,-0.00032840,-0.00002280,-0.00036643,0.000
 03050,0.00011428,-0.00337624,0.00028383,-0.00009571,-0.00037826,-0.000
 30962,0.00017914,0.00079196,-0.00019473,0.00040925,-0.00001265,-0.0000
 0153,-0.00029570,0.05621470,-0.00251437,-0.06051155,-0.06189367,0.0022
 0444,0.06033637,0.00047223,-0.00101550,-0.00001470,0.00018761,0.000095
 45,-0.00005338,-0.00000296,-0.00002451,0.00010544,0.00538732,0.0075805
 4,0.00861178,0.00026364,-0.00077025,0.00002294,-0.00085451,0.00228366,
 -0.00054353,-0.00003950,0.00005642,0.00018574,-0.11242148,-0.07768242,
 -0.08325149,-0.01447192,-0.01859120,-0.02086281,0.11829563,-0.00008869
 ,0.00256835,0.00090302,0.00009839,-0.00024309,-0.00012987,0.00026682,-
 0.00009052,-0.00013070,-0.01530861,-0.01922163,-0.02055840,-0.00053853
 ,0.00097029,0.00043792,0.00334004,-0.00311529,0.00301909,0.00007166,0.
 00015281,0.00000218,-0.07701879,-0.13722572,-0.09766524,0.00058381,0.0
 0084530,0.00190256,0.08343636,0.15144204,0.00015172,-0.00001719,0.0002
 4724,0.00003421,-0.00006773,-0.00005662,-0.00000701,-0.00010118,-0.000
 17094,0.00286447,0.00320717,0.00226323,0.00047279,-0.00034666,0.000578
 48,-0.00120898,0.00118352,0.00017219,0.00029195,0.00004379,0.00051939,
 -0.08301558,-0.09839680,-0.15316421,0.00367130,0.00565504,0.00495214,0
 .09172573,0.10756185,0.16259241,0.03521552,0.06284884,0.04050998,-0.00
 150787,-0.00543462,-0.00233873,-0.00200703,-0.00560447,-0.00460089,0.0
 1232388,-0.00793067,-0.00748175,-0.00146499,-0.00200732,-0.00153654,-0
 .14233793,0.04778247,-0.00798831,-0.02448829,0.02383669,0.00602607,-0.
 00289205,-0.00210215,-0.00315744,-0.00062843,0.00021645,-0.00031529,0.
 00143441,-0.00205506,0.00024307,0.18317350,0.04849555,0.07552129,0.056
 80000,-0.00187921,-0.00166350,-0.00110012,-0.00250300,-0.00536817,-0.0
 0468163,0.04452581,-0.04561079,-0.02843533,-0.00060723,-0.00078364,-0.
 00082179,0.04190347,-0.10643397,0.00005356,0.02642509,-0.01376087,-0.0
 0810683,-0.00607381,-0.00328930,-0.00674620,-0.00148261,0.00145191,0.0
 0015191,0.00061321,-0.00362972,-0.00070828,-0.16853604,0.06690589,0.04
 032148,0.07023407,0.03201531,-0.00182072,-0.00548576,-0.00204561,0.000
 02763,0.00057710,0.00184324,0.03406077,-0.04131964,-0.02077962,-0.0004
 2962,-0.00051553,0.00039954,-0.00426688,-0.01011518,-0.06505766,-0.014
 63324,0.01023564,0.01087668,-0.00433517,-0.00238266,-0.00507619,-0.000
 81770,0.00071137,-0.00014906,0.00074652,-0.00280493,-0.00023491,-0.090
 31673,-0.04332265,0.03280709,-0.02174634,-0.03433842,-0.02265698,0.000
 83088,0.00017822,0.00047417,0.00059388,0.00086220,0.00023065,-0.010387
 81,0.00725267,0.00640495,0.00067438,0.00053285,0.00032876,0.01183069,0
 .00550300,0.01052226,0.00038536,0.00082830,0.00032620,0.00283445,0.001
 35225,0.00157259,0.00076379,-0.00083009,0.00004831,-0.00057558,0.00139
 776,0.00019491,-0.00827816,0.04311986,0.01200473,0.19448365,-0.0297609
 2,-0.05344070,-0.03541457,0.00070413,0.00077409,0.00051467,0.00041064,
 0.00077639,0.00028824,-0.01397741,0.00607390,0.00483752,0.00045876,-0.
 00028982,-0.00022367,-0.00014721,-0.01523085,-0.01470184,-0.00296030,0
 .00239372,0.00112648,0.00258509,0.00138661,0.00080316,0.00108783,-0.00
 094718,0.00008811,-0.00029997,0.00120057,0.00046791,0.05247913,0.03215
 423,0.03281461,-0.23577684,0.32639006,-0.02626964,-0.04796422,-0.02831
 440,0.00082207,0.00093840,0.00073605,0.00010283,0.00024649,0.00028104,
 -0.01319443,0.00592249,0.00729803,0.00064937,0.00082940,0.00053681,0.0
 1212217,-0.00558696,-0.01043760,-0.00057876,0.00132634,0.00120285,0.00
 190979,0.00110367,0.00126794,0.00076030,-0.00055674,0.00009939,-0.0002
 8104,0.00113888,0.00036619,0.03002830,0.05840840,0.01838853,0.09990204
 ,-0.12726372,0.08416063,-0.00048997,-0.00127922,-0.00035553,-0.0000238
 5,-0.00001543,-0.00006717,-0.00004146,-0.00015548,-0.00009124,0.000506
 76,-0.00037108,-0.00003744,0.00009325,-0.00011982,-0.00009556,-0.00306
 806,-0.00057098,-0.00248321,0.00000556,-0.00004253,0.00061228,-0.00007
 393,0.00006291,-0.00027791,0.00004952,-0.00004203,-0.00000430,0.000025
 30,-0.00008292,0.00002332,0.00575160,-0.01406384,0.00027329,-0.1749553
 8,0.22365816,-0.10385402,0.17225241,0.00086554,0.00015617,0.00005856,-
 0.00008276,0.00015982,0.00000372,-0.00001629,0.00000661,0.00004660,0.0
 0020227,-0.00017102,-0.00112788,-0.00014190,-0.00022191,-0.00012138,0.
 00009171,-0.00318471,-0.00209803,-0.00093256,0.00051909,-0.00033343,-0
 .00016331,-0.00016144,0.00001885,-0.00007285,0.00007384,-0.00001588,0.
 00008218,-0.00001717,0.00002091,0.00715978,-0.01324296,0.00310634,0.20
 179722,-0.30062722,0.11602147,-0.20818873,0.31675455,-0.00014194,-0.00
 073367,-0.00063411,-0.00008408,-0.00003791,-0.00000818,-0.00001458,0.0
 0013561,0.00001146,0.00056775,-0.00056513,-0.00057500,-0.00004865,-0.0
 0024117,-0.00020416,-0.00314677,-0.00336830,-0.00181209,-0.00019490,0.
 00007307,-0.00000232,-0.00009495,-0.00005659,-0.00027701,0.00002404,-0
 .00003488,-0.00000981,0.00004979,-0.00007835,0.00004373,0.00886926,-0.
 01594707,0.00202618,-0.11296137,0.13744891,-0.07193059,0.10636790,-0.1
 1649305,0.07341923,0.00101155,-0.00007789,-0.00169846,0.00004156,-0.00
 008684,0.00017565,-0.00034853,-0.00016324,0.00041061,0.00024188,0.0040
 6534,-0.01091673,-0.00016307,0.00236752,-0.00010527,0.00037477,-0.0008
 3313,0.00075230,-0.00010529,-0.00014956,-0.00015714,-0.05229108,-0.012
 51272,0.03366867,-0.00276290,-0.01085342,0.02985708,0.00190054,0.00652
 401,-0.01542548,0.00016335,0.00057121,0.00034467,-0.00032279,-0.000395
 27,-0.00029724,-0.00001827,0.00002789,-0.00001787,0.05221029,-0.001843
 04,0.00105026,0.00026161,0.00006492,0.00020785,-0.00016324,0.00079755,
 0.00026841,-0.00064751,-0.00440859,-0.01310119,0.03064973,0.00247152,-
 0.00553419,-0.00051925,0.00070377,0.00092981,0.00303723,-0.00050513,-0
 .00010706,-0.00093499,-0.01212487,-0.07539743,0.07958445,-0.00030362,-
 0.00031843,-0.00180762,0.00392539,0.00710376,-0.01812306,-0.00001579,0
 .00070402,-0.00015347,-0.00006696,-0.00013479,-0.00022834,-0.00000933,
 -0.00000615,0.00001569,0.01162983,0.08415915,0.00022368,-0.00042714,0.
 00052081,-0.00013097,-0.00018695,0.00012076,-0.00062099,0.00027764,0.0
 0021523,0.00008618,0.00143408,-0.00251062,-0.00029053,0.00013050,0.001
 45027,-0.00039455,-0.00049834,0.00019388,0.00029006,0.00026970,0.00057
 770,0.03317945,0.08106730,-0.27197388,0.00053479,0.00140532,-0.0057397
 6,0.00345453,0.00677759,-0.01824861,0.00037455,0.00012666,0.00039762,-
 0.00015820,-0.00000345,-0.00006677,0.00003762,0.00000713,0.00001243,-0
 .03642371,-0.09013449,0.29477454,-0.00165926,-0.00127015,0.00009570,-0
 .00011398,-0.00006868,0.00017364,-0.00032842,-0.00014134,-0.00032546,-
 0.01732186,-0.01585505,0.00632614,0.00076955,0.00059537,0.00174927,-0.
 12088465,-0.06191242,0.06087488,0.00288780,-0.00397188,0.00615656,-0.0
 0152501,0.00011142,0.00006074,0.00072200,-0.00052847,-0.00018035,0.000
 32362,-0.00041260,0.00000990,-0.05203856,-0.00624628,0.03289546,-0.000
 52638,-0.00094088,-0.00073465,0.00047362,-0.00129740,0.00002482,-0.000
 01096,-0.00029153,-0.00013954,0.23922005,0.00086465,-0.00121962,-0.001
 63675,-0.00084050,0.00000494,0.00013504,-0.00040386,0.00068830,0.00055
 338,-0.02581645,-0.01837036,0.01258070,0.00119008,0.00119663,0.0019060
 5,-0.06965996,-0.14635231,0.05688815,-0.02034827,-0.01080052,0.0157642
 4,-0.00111784,-0.00077832,-0.00045047,0.00012751,0.00033612,0.00010480
 ,0.00018448,-0.00069749,-0.00040980,-0.00397180,0.01673705,-0.01060865
 ,0.00908432,0.00259303,-0.00509062,-0.00025559,-0.00007542,0.00062539,
 -0.00001118,0.00020186,-0.00027789,0.19490150,0.41932871,-0.00155225,-
 0.00117797,-0.00240001,-0.00059485,-0.00003869,-0.00004490,-0.00051061
 ,0.00044232,0.00067047,-0.01100741,-0.01014368,0.01194246,0.00047188,0
 .00022522,0.00313018,0.03230948,0.02844421,-0.14149938,0.02845335,0.02
 550274,-0.01567150,-0.00089338,-0.00071314,-0.00018272,-0.00021038,0.0
 0046375,-0.00014412,0.00015544,-0.00046172,0.00008652,0.02625014,-0.00
 626103,-0.00512417,0.00611573,-0.00041731,-0.00111333,0.00130981,0.001
 06174,-0.00106406,-0.00018468,-0.00083460,0.00025731,-0.03011203,0.161
 52025,0.38267707,0.00083184,0.00079995,0.00004076,-0.00021725,-0.00000
 501,-0.00000789,-0.00012763,0.00017135,0.00018870,-0.00204399,-0.00356
 110,0.00237738,0.00002830,0.00018700,0.00058307,-0.01540053,-0.0303593
 3,-0.01787773,0.00055766,0.00043751,0.00062918,-0.00060174,-0.00052539
 ,-0.00012189,-0.00007569,-0.00005053,0.00003823,0.00007565,-0.00021365
 ,-0.00002631,-0.00241896,-0.00426218,-0.00405449,0.00439535,0.00287507
 ,-0.00108709,-0.00048711,0.00066924,0.00080155,0.00007896,-0.00002413,
 -0.00002237,-0.04998754,-0.08392708,-0.05000025,0.06539269,-0.00112206
 ,-0.00066826,-0.00062209,-0.00007006,-0.00010445,0.00000901,-0.0000582
 0,-0.00006040,-0.00004950,-0.00128702,0.00027099,0.00355363,-0.0000142
 0,-0.00008520,-0.00004240,-0.01800127,-0.02463388,-0.01509680,0.001398
 24,0.00141870,-0.00077707,-0.00002610,0.00007034,-0.00038450,0.0001262
 5,-0.00015636,-0.00005641,0.00012615,-0.00004250,0.00003052,0.00333456
 ,0.00030851,-0.00097068,-0.00089633,-0.00307205,0.00075506,0.00147591,
 0.00003792,-0.00074256,-0.00010257,-0.00002588,0.00003234,-0.10267159,
 -0.26279259,-0.19761207,0.11778829,0.28953510,-0.00043896,-0.00087233,
 0.00012467,0.00016559,-0.00011497,-0.00004793,-0.00002848,0.00001361,-
 0.00007264,0.00223260,0.00053523,-0.00158704,0.00009967,-0.00022786,0.
 00043115,0.00344594,0.01901563,0.01529853,0.00111624,0.00118952,-0.000
 27546,0.00000638,0.00003264,0.00004750,0.00004261,-0.00009484,-0.00002
 339,-0.00005096,0.00008612,0.00005376,0.00543431,0.00059041,-0.0002869
 5,-0.00234877,-0.00036505,-0.00247477,-0.00135784,-0.00015566,0.001004
 30,0.00001760,-0.00000217,0.00001911,-0.07687507,-0.23160380,-0.231519
 81,0.06853915,0.21197352,0.21930898\\-0.00000035,0.00000206,-0.0000094
 6,0.00000275,0.00000095,-0.00000665,-0.00000274,0.00000771,-0.00000507
 ,-0.00000312,-0.00000355,0.00000478,0.00000328,-0.00000213,0.00000192,
 -0.00000402,0.00000390,-0.00000387,-0.00000508,-0.00000356,0.00000060,
 -0.00000357,-0.00000238,0.00000450,-0.00000415,-0.00000565,0.00000875,
 -0.00000284,-0.00000206,0.00000678,0.00001597,0.00001661,0.00001674,-0
 .00002688,0.00001433,-0.00002711,0.00001959,-0.00001946,0.00000109,-0.
 00000628,0.00000078,0.00000534,0.00003078,0.00002648,0.00003810,-0.000
 01335,-0.00003403,-0.00003643\\\@


 SIC AS THE CAWSE OF EWERY THING IS, SIC WILBE THE EFFECT.
 -- PROVERBS AND REASONS OF THE YEAR 1585
           AS REPRINTED IN PAISLEY MAGAZINE 1828.
 Job cpu time:  0 days  1 hours  6 minutes 30.4 seconds.
 File lengths (MBytes):  RWF=    125 Int=      0 D2E=      0 Chk=      8 Scr=      1
 Normal termination of Gaussian 03 at Thu Jul 10 12:45:12 2014.
