 Entering Gaussian System, Link 0=g03
 Input=ts6-freq.gjf
 Output=ts6-freq.log
 Initial command:
 /opt/g03/l1.exe /scratch/shamel/Gau-28779.inp -scrdir=/scratch/shamel/
 Entering Link 1 = /opt/g03/l1.exe PID=     28781.
  
 Copyright (c) 1988,1990,1992,1993,1995,1998,2003,2004, Gaussian, Inc.
                  All Rights Reserved.
  
 This is the Gaussian(R) 03 program.  It is based on the
 the Gaussian(R) 98 system (copyright 1998, Gaussian, Inc.),
 the Gaussian(R) 94 system (copyright 1995, Gaussian, Inc.),
 the Gaussian 92(TM) system (copyright 1992, Gaussian, Inc.),
 the Gaussian 90(TM) system (copyright 1990, Gaussian, Inc.),
 the Gaussian 88(TM) system (copyright 1988, Gaussian, Inc.),
 the Gaussian 86(TM) system (copyright 1986, Carnegie Mellon
 University), and the Gaussian 82(TM) system (copyright 1983,
 Carnegie Mellon University). Gaussian is a federally registered
 trademark of Gaussian, Inc.
  
 This software contains proprietary and confidential information,
 including trade secrets, belonging to Gaussian, Inc.
  
 This software is provided under written license and may be
 used, copied, transmitted, or stored only in accord with that
 written license.
  
 The following legend is applicable only to US Government
 contracts under FAR:
  
                    RESTRICTED RIGHTS LEGEND
  
 Use, reproduction and disclosure by the US Government is
 subject to restrictions as set forth in subparagraphs (a)
 and (c) of the Commercial Computer Software - Restricted
 Rights clause in FAR 52.227-19.
  
 Gaussian, Inc.
 340 Quinnipiac St., Bldg. 40, Wallingford CT 06492
  
  
 ---------------------------------------------------------------
 Warning -- This program may not be used in any manner that
 competes with the business of Gaussian, Inc. or will provide
 assistance to any competitor of Gaussian, Inc.  The licensee
 of this program is prohibited from giving any competitor of
 Gaussian, Inc. access to this program.  By using this program,
 the user acknowledges that Gaussian, Inc. is engaged in the
 business of creating and licensing software in the field of
 computational chemistry and represents and warrants to the
 licensee that it is not a competitor of Gaussian, Inc. and that
 it will not use this program in any manner prohibited above.
 ---------------------------------------------------------------
  

 Cite this work as:
 Gaussian 03, Revision D.01,
 M. J. Frisch, G. W. Trucks, H. B. Schlegel, G. E. Scuseria, 
 M. A. Robb, J. R. Cheeseman, J. A. Montgomery, Jr., T. Vreven, 
 K. N. Kudin, J. C. Burant, J. M. Millam, S. S. Iyengar, J. Tomasi, 
 V. Barone, B. Mennucci, M. Cossi, G. Scalmani, N. Rega, 
 G. A. Petersson, H. Nakatsuji, M. Hada, M. Ehara, K. Toyota, 
 R. Fukuda, J. Hasegawa, M. Ishida, T. Nakajima, Y. Honda, O. Kitao, 
 H. Nakai, M. Klene, X. Li, J. E. Knox, H. P. Hratchian, J. B. Cross, 
 V. Bakken, C. Adamo, J. Jaramillo, R. Gomperts, R. E. Stratmann, 
 O. Yazyev, A. J. Austin, R. Cammi, C. Pomelli, J. W. Ochterski, 
 P. Y. Ayala, K. Morokuma, G. A. Voth, P. Salvador, J. J. Dannenberg, 
 V. G. Zakrzewski, S. Dapprich, A. D. Daniels, M. C. Strain, 
 O. Farkas, D. K. Malick, A. D. Rabuck, K. Raghavachari, 
 J. B. Foresman, J. V. Ortiz, Q. Cui, A. G. Baboul, S. Clifford, 
 J. Cioslowski, B. B. Stefanov, G. Liu, A. Liashenko, P. Piskorz, 
 I. Komaromi, R. L. Martin, D. J. Fox, T. Keith, M. A. Al-Laham, 
 C. Y. Peng, A. Nanayakkara, M. Challacombe, P. M. W. Gill, 
 B. Johnson, W. Chen, M. W. Wong, C. Gonzalez, and J. A. Pople, 
 Gaussian, Inc., Wallingford CT, 2004.
 
 ******************************************
 Gaussian 03:  AM64L-G03RevD.01 13-Oct-2005
                18-Jun-2013 
 ******************************************
 %chk=ts6-freq.chk
 %mem=1000mb
 %nproc=8
 Will use up to    8 processors via shared memory.
 -------------------------------------
 # freq nosymm b3lyp/cbsb7 iop(7/33=1)
 -------------------------------------
 1/10=4,30=1,38=1/1,3;
 2/15=1,17=6,18=5,40=1/2;
 3/5=4,6=6,7=700,11=2,16=1,25=1,30=1,74=-5/1,2,3;
 4//1;
 5/5=2,38=5/2;
 8/6=4,10=90,11=11/1;
 11/6=1,8=1,9=11,15=111,16=1,31=1/1,2,10;
 10/6=1,31=1/2;
 6/7=2,8=2,9=2,10=2,18=1,28=1/1;
 7/8=1,10=1,25=1,30=1,33=1/1,2,3,16;
 1/10=4,30=1/3;
 99//99;
 -------------------
 Title Card Required
 -------------------
 Symbolic Z-matrix:
 Charge =  0 Multiplicity = 2
 C                    -0.68025   0.35411   0.05873 
 H                    -1.68383   0.20334  -0.35745 
 H                    -0.0592   -0.51199  -0.18307 
 C                    -0.71464   0.70986   1.54983 
 H                     0.22855   0.39315   2.0048 
 C                    -1.89185   0.12779   2.33638 
 H                    -1.88723  -0.96372   2.27112 
 H                    -1.83711   0.40267   3.39314 
 H                    -2.84227   0.48994   1.94017 
 C                    -0.67378   2.21162   1.45572 
 H                     0.18854   2.79442   1.75875 
 O                    -1.86634   2.84272   1.38751 
 H                    -1.72807   3.7854    1.24719 
 O                    -0.09273   1.55434  -0.46418 
 O                     0.27157   1.06591  -2.04363 
 H                    -0.03264   1.8893   -2.44685 
 

 GradGradGradGradGradGradGradGradGradGradGradGradGradGradGradGradGradGrad
 Berny optimization.
 Initialization pass.
 Trust Radius=3.00D-01 FncErr=1.00D-07 GrdErr=1.00D-07
 Number of steps in this run=   2 maximum allowed number of steps=   2.
 GradGradGradGradGradGradGradGradGradGradGradGradGradGradGradGradGradGrad

                          Input orientation:                          
 ---------------------------------------------------------------------
 Center     Atomic     Atomic              Coordinates (Angstroms)
 Number     Number      Type              X           Y           Z
 ---------------------------------------------------------------------
    1          6             0       -0.680247    0.354105    0.058730
    2          1             0       -1.683827    0.203341   -0.357451
    3          1             0       -0.059201   -0.511985   -0.183066
    4          6             0       -0.714637    0.709857    1.549832
    5          1             0        0.228546    0.393148    2.004801
    6          6             0       -1.891851    0.127787    2.336383
    7          1             0       -1.887232   -0.963722    2.271123
    8          1             0       -1.837108    0.402668    3.393144
    9          1             0       -2.842272    0.489938    1.940174
   10          6             0       -0.673782    2.211622    1.455715
   11          1             0        0.188540    2.794418    1.758749
   12          8             0       -1.866335    2.842723    1.387505
   13          1             0       -1.728073    3.785402    1.247187
   14          8             0       -0.092728    1.554335   -0.464178
   15          8             0        0.271569    1.065913   -2.043626
   16          1             0       -0.032642    1.889297   -2.446852
 ---------------------------------------------------------------------
                    Distance matrix (angstroms):
                    1          2          3          4          5
     1  C    0.000000
     2  H    1.096863   0.000000
     3  H    1.092829   1.783679   0.000000
     4  C    1.533339   2.198549   2.219331   0.000000
     5  H    2.148167   3.045231   2.385126   1.094027   0.000000
     6  C    2.589770   2.702910   3.180493   1.530784   2.162509
     7  H    2.843970   2.883195   3.093349   2.167050   2.527556
     8  H    3.529731   3.759014   4.097172   2.179932   2.488878
     9  H    2.869257   2.589056   3.641083   2.174296   3.073023
    10  C    2.324216   2.888071   3.237491   1.505266   2.102983
    11  H    3.098384   3.833763   3.842437   2.281396   2.414175
    12  O    3.060338   3.169309   4.121467   2.429378   3.281768
    13  H    3.779440   3.925300   4.826830   3.252326   3.988700
    14  O    1.434979   2.090017   2.085624   2.270716   2.747259
    15  O    2.415062   2.722277   2.461880   3.743303   4.104172
    16  H    3.009011   3.151897   3.300241   4.222520   4.703605
                    6          7          8          9         10
     6  C    0.000000
     7  H    1.093468   0.000000
     8  H    1.093298   1.768747   0.000000
     9  H    1.091529   1.770524   1.768924   0.000000
    10  C    2.569365   3.495735   2.894697   2.810915   0.000000
    11  H    3.431124   4.323768   3.534822   3.811740   1.084011
    12  O    2.876091   3.907716   3.158688   2.606433   1.350971
    13  H    3.819858   4.860860   4.007482   3.547077   1.905727
    14  O    3.621467   4.128284   4.387269   3.804450   2.110838
    15  O    4.974429   5.234205   5.868976   5.089049   3.801542
    16  H    5.425764   5.817088   6.290605   5.394277   3.967995
                   11         12         13         14         15
    11  H    0.000000
    12  O    2.088700   0.000000
    13  H    2.217465   0.963042   0.000000
    14  O    2.560922   2.869557   3.252812   0.000000
    15  O    4.177640   4.415920   4.714195   1.692904   0.000000
    16  H    4.307580   4.355886   4.485045   2.011667   0.965969
                   16
    16  H    0.000000
 Symmetry turned off by external request.
 Stoichiometry    C4H9O3(2)
 Framework group  C1[X(C4H9O3)]
 Deg. of freedom    42
 Full point group                 C1
 Rotational constants (GHZ):      4.0847065      1.7048707      1.3397097
 Standard basis: CBSB7 (5D, 7F)
 Integral buffers will be    131072 words long.
 Raffenetti 2 integral format.
 Two-electron integral symmetry is turned off.
   180 basis functions,   296 primitive gaussians,   187 cartesian basis functions
    29 alpha electrons       28 beta electrons
       nuclear repulsion energy       324.6419334876 Hartrees.
 NAtoms=   16 NActive=   16 NUniq=   16 SFac= 7.50D-01 NAtFMM=   80 NAOKFM=F Big=F
 One-electron integrals computed using PRISM.
 NBasis=   180 RedAO= T  NBF=   180
 NBsUse=   180 1.00D-06 NBFU=   180
 Harris functional with IExCor=  402 diagonalized for initial guess.
 ExpMin= 1.03D-01 ExpMax= 8.59D+03 ExpMxC= 1.30D+03 IAcc=1 IRadAn=         1 AccDes= 1.00D-06
 HarFok:  IExCor= 402 AccDes= 1.00D-06 IRadAn=         1 IDoV=1
 ScaDFX=  1.000000  1.000000  1.000000  1.000000
 <S**2> of initial guess= 0.7500
 Requested convergence on RMS density matrix=1.00D-08 within 128 cycles.
 Requested convergence on MAX density matrix=1.00D-06.
 Requested convergence on             energy=1.00D-06.
 No special actions if energy rises.
 Integral accuracy reduced to 1.0D-05 until final iterations.
 EnCoef did     1 forward-backward iterations
 EnCoef did     3 forward-backward iterations
 Initial convergence to 1.0D-05 achieved.  Increase integral accuracy.
 SCF Done:  E(UB+HF-LYP) =  -383.441569476     A.U. after   23 cycles
             Convg  =    0.4157D-08             -V/T =  2.0033
             S**2   =   0.7811
 Annihilation of the first spin contaminant:
 S**2 before annihilation     0.7811,   after     0.7502
 Range of M.O.s used for correlation:     1   180
 NBasis=   180 NAE=    29 NBE=    28 NFC=     0 NFV=     0
 NROrb=    180 NOA=    29 NOB=    28 NVA=   151 NVB=   152
 Symmetrizing basis deriv contribution to polar:
 IMax=3 JMax=2 DiffMx= 0.00D+00
 G2DrvN: will do   17 centers at a time, making    1 passes doing MaxLOS=2.
 FoFDir/FoFCou used for L=0 through L=2.
 DoAtom=TTTTTTTTTTTTTTTT
          Differentiating once with respect to electric field.
                with respect to dipole field.
          Differentiating once with respect to nuclear coordinates.
 Symmetry not used in FoFDir.
 MinBra= 0 MaxBra= 2 Meth= 1.
 IRaf=       0 NMat=  51 IRICut=      51 DoRegI=T DoRafI=T ISym2E= 0 JSym2E=0.
          There are  51 degrees of freedom in the 1st order CPHF.
    48 vectors were produced by pass  0.
 AX will form  48 AO Fock derivatives at one time.
    48 vectors were produced by pass  1.
    48 vectors were produced by pass  2.
    48 vectors were produced by pass  3.
    48 vectors were produced by pass  4.
    48 vectors were produced by pass  5.
    34 vectors were produced by pass  6.
     3 vectors were produced by pass  7.
     3 vectors were produced by pass  8.
 Inv2:  IOpt= 1 Iter= 1 AM= 2.71D-15 Conv= 1.00D-12.
 Inverted reduced A of dimension  328 with in-core refinement.
 Isotropic polarizability for W=    0.000000       73.81 Bohr**3.
 End of Minotr Frequency-dependent properties file   721 does not exist.

 **********************************************************************

            Population analysis using the SCF density.

 **********************************************************************

 Alpha  occ. eigenvalues --  -19.17480 -19.13940 -19.10908 -10.25436 -10.20587
 Alpha  occ. eigenvalues --  -10.18982 -10.16720  -1.09005  -1.01806  -0.91253
 Alpha  occ. eigenvalues --   -0.79824  -0.69345  -0.66026  -0.58939  -0.55080
 Alpha  occ. eigenvalues --   -0.49793  -0.46220  -0.45263  -0.42448  -0.41829
 Alpha  occ. eigenvalues --   -0.40704  -0.39933  -0.36419  -0.35931  -0.35245
 Alpha  occ. eigenvalues --   -0.32812  -0.28937  -0.24109  -0.17103
 Alpha virt. eigenvalues --   -0.03553   0.01346   0.05444   0.06397   0.07470
 Alpha virt. eigenvalues --    0.10029   0.10493   0.11431   0.13261   0.14469
 Alpha virt. eigenvalues --    0.16384   0.20129   0.22202   0.23479   0.28726
 Alpha virt. eigenvalues --    0.30520   0.32505   0.33654   0.36095   0.38271
 Alpha virt. eigenvalues --    0.41598   0.42432   0.44111   0.46112   0.49031
 Alpha virt. eigenvalues --    0.52960   0.53168   0.55165   0.56561   0.57379
 Alpha virt. eigenvalues --    0.57661   0.58312   0.60501   0.62895   0.64960
 Alpha virt. eigenvalues --    0.65767   0.68028   0.76635   0.79926   0.80052
 Alpha virt. eigenvalues --    0.82057   0.86702   0.88443   0.89514   0.91834
 Alpha virt. eigenvalues --    0.94395   0.98795   1.04857   1.05288   1.09429
 Alpha virt. eigenvalues --    1.19072   1.21178   1.22265   1.28247   1.30166
 Alpha virt. eigenvalues --    1.31818   1.36026   1.39103   1.41941   1.43217
 Alpha virt. eigenvalues --    1.45128   1.46322   1.46897   1.51836   1.53033
 Alpha virt. eigenvalues --    1.53878   1.54112   1.57986   1.58379   1.61661
 Alpha virt. eigenvalues --    1.63322   1.66237   1.68990   1.70619   1.71990
 Alpha virt. eigenvalues --    1.74535   1.78360   1.86191   1.88188   1.88942
 Alpha virt. eigenvalues --    1.92244   1.95433   1.98256   2.01907   2.03162
 Alpha virt. eigenvalues --    2.06246   2.09367   2.13879   2.22090   2.23129
 Alpha virt. eigenvalues --    2.25750   2.36493   2.38408   2.39240   2.43291
 Alpha virt. eigenvalues --    2.45040   2.45701   2.47280   2.49330   2.55491
 Alpha virt. eigenvalues --    2.57919   2.59269   2.60409   2.61599   2.64691
 Alpha virt. eigenvalues --    2.69229   2.73196   2.75054   2.80568   2.81976
 Alpha virt. eigenvalues --    2.86120   2.91709   2.94033   2.99286   3.02076
 Alpha virt. eigenvalues --    3.06941   3.11525   3.15743   3.16869   3.17128
 Alpha virt. eigenvalues --    3.21487   3.26011   3.33916   3.41498   3.45835
 Alpha virt. eigenvalues --    3.72931   3.76795   3.78598   3.79284   3.81870
 Alpha virt. eigenvalues --    3.86320   3.94573   4.08876   4.12977   4.36085
 Alpha virt. eigenvalues --    4.80256   4.81431   4.86944   4.94665   5.23927
 Alpha virt. eigenvalues --    5.27963   5.40178   5.47187   5.64159  23.70628
 Alpha virt. eigenvalues --   23.80439  23.83608  23.92733  49.82060  49.85760
 Alpha virt. eigenvalues --   49.87770
  Beta  occ. eigenvalues --  -19.17114 -19.13980 -19.09832 -10.24452 -10.20505
  Beta  occ. eigenvalues --  -10.19037 -10.16669  -1.08158  -1.01138  -0.89561
  Beta  occ. eigenvalues --   -0.79367  -0.68289  -0.65523  -0.58704  -0.54314
  Beta  occ. eigenvalues --   -0.49057  -0.45546  -0.44600  -0.42095  -0.41057
  Beta  occ. eigenvalues --   -0.39697  -0.39006  -0.36012  -0.34932  -0.34821
  Beta  occ. eigenvalues --   -0.31336  -0.28328  -0.23556
  Beta virt. eigenvalues --   -0.06291   0.00761   0.01584   0.05518   0.06687
  Beta virt. eigenvalues --    0.07873   0.10131   0.10805   0.11531   0.13320
  Beta virt. eigenvalues --    0.14536   0.16650   0.20525   0.22672   0.24292
  Beta virt. eigenvalues --    0.29076   0.30597   0.32738   0.33870   0.36341
  Beta virt. eigenvalues --    0.38607   0.42485   0.42893   0.44604   0.47287
  Beta virt. eigenvalues --    0.49567   0.53137   0.53639   0.55384   0.56857
  Beta virt. eigenvalues --    0.57463   0.57823   0.58491   0.60745   0.63211
  Beta virt. eigenvalues --    0.65141   0.66026   0.68439   0.77121   0.80537
  Beta virt. eigenvalues --    0.81400   0.82502   0.87526   0.89209   0.89967
  Beta virt. eigenvalues --    0.92290   0.95320   0.99125   1.05237   1.05727
  Beta virt. eigenvalues --    1.09719   1.19264   1.22058   1.23036   1.28890
  Beta virt. eigenvalues --    1.30586   1.32433   1.36396   1.39338   1.42248
  Beta virt. eigenvalues --    1.43873   1.45408   1.46458   1.47199   1.52097
  Beta virt. eigenvalues --    1.53374   1.53956   1.54574   1.58256   1.58538
  Beta virt. eigenvalues --    1.61912   1.63451   1.66535   1.69223   1.71354
  Beta virt. eigenvalues --    1.72858   1.74978   1.78672   1.86740   1.88836
  Beta virt. eigenvalues --    1.89681   1.92485   1.96013   1.98772   2.02263
  Beta virt. eigenvalues --    2.03469   2.06507   2.09509   2.14070   2.22291
  Beta virt. eigenvalues --    2.23459   2.25920   2.36581   2.38575   2.39319
  Beta virt. eigenvalues --    2.43388   2.45164   2.45804   2.47518   2.49536
  Beta virt. eigenvalues --    2.55591   2.58048   2.59753   2.61773   2.62600
  Beta virt. eigenvalues --    2.64815   2.69580   2.73404   2.75233   2.80888
  Beta virt. eigenvalues --    2.83163   2.87126   2.92342   2.94695   3.00007
  Beta virt. eigenvalues --    3.02794   3.07839   3.12859   3.16327   3.18049
  Beta virt. eigenvalues --    3.18564   3.22212   3.26617   3.34345   3.41945
  Beta virt. eigenvalues --    3.47021   3.73181   3.77068   3.79255   3.79698
  Beta virt. eigenvalues --    3.82226   3.86843   3.94840   4.09102   4.13450
  Beta virt. eigenvalues --    4.36267   4.81774   4.82969   4.90011   4.95175
  Beta virt. eigenvalues --    5.23144   5.28258   5.40591   5.47886   5.64624
  Beta virt. eigenvalues --   23.71615  23.80588  23.83605  23.92802  49.83139
  Beta virt. eigenvalues --   49.85933  49.87963
          Condensed to atoms (all electrons):
              1          2          3          4          5          6
     1  C    4.802141   0.386290   0.397666   0.314251  -0.035464  -0.069551
     2  H    0.386290   0.640763  -0.054327  -0.044048   0.009436   0.003840
     3  H    0.397666  -0.054327   0.601778  -0.031659  -0.014044  -0.000114
     4  C    0.314251  -0.044048  -0.031659   5.280479   0.387166   0.310822
     5  H   -0.035464   0.009436  -0.014044   0.387166   0.585840  -0.021457
     6  C   -0.069551   0.003840  -0.000114   0.310822  -0.021457   4.894048
     7  H   -0.002921  -0.001330   0.001811  -0.032267  -0.006616   0.400372
     8  H    0.008036   0.000149  -0.000503  -0.029846  -0.006592   0.393500
     9  H   -0.004178   0.004682  -0.000561  -0.038812   0.008344   0.411125
    10  C   -0.137360  -0.006147   0.015065   0.314163  -0.039559  -0.069443
    11  H    0.008299  -0.000555  -0.000301  -0.048409  -0.006598   0.003129
    12  O    0.010004   0.003379  -0.000513  -0.067295   0.003674   0.005074
    13  H   -0.000864  -0.000340   0.000110   0.010025  -0.000695  -0.000595
    14  O    0.206353  -0.039216  -0.031189  -0.038132   0.005426   0.004348
    15  O   -0.026688   0.007669   0.003912   0.007647   0.000000  -0.000032
    16  H   -0.001317   0.000039  -0.000332  -0.000847  -0.000034  -0.000006
              7          8          9         10         11         12
     1  C   -0.002921   0.008036  -0.004178  -0.137360   0.008299   0.010004
     2  H   -0.001330   0.000149   0.004682  -0.006147  -0.000555   0.003379
     3  H    0.001811  -0.000503  -0.000561   0.015065  -0.000301  -0.000513
     4  C   -0.032267  -0.029846  -0.038812   0.314163  -0.048409  -0.067295
     5  H   -0.006616  -0.006592   0.008344  -0.039559  -0.006598   0.003674
     6  C    0.400372   0.393500   0.411125  -0.069443   0.003129   0.005074
     7  H    0.578292  -0.027673  -0.029630   0.008840  -0.000267  -0.000099
     8  H   -0.027673   0.584809  -0.028440  -0.000663   0.000860   0.000063
     9  H   -0.029630  -0.028440   0.557001  -0.011524   0.000435   0.010710
    10  C    0.008840  -0.000663  -0.011524   5.111619   0.398714   0.274189
    11  H   -0.000267   0.000860   0.000435   0.398714   0.571512  -0.032161
    12  O   -0.000099   0.000063   0.010710   0.274189  -0.032161   7.792019
    13  H    0.000049  -0.000100  -0.000810  -0.032106  -0.010051   0.313245
    14  O   -0.000043  -0.000217   0.000034   0.054202  -0.003283  -0.011178
    15  O   -0.000015   0.000001  -0.000009   0.007622  -0.000321  -0.000089
    16  H    0.000005   0.000000  -0.000009  -0.001872   0.000085   0.000167
             13         14         15         16
     1  C   -0.000864   0.206353  -0.026688  -0.001317
     2  H   -0.000340  -0.039216   0.007669   0.000039
     3  H    0.000110  -0.031189   0.003912  -0.000332
     4  C    0.010025  -0.038132   0.007647  -0.000847
     5  H   -0.000695   0.005426   0.000000  -0.000034
     6  C   -0.000595   0.004348  -0.000032  -0.000006
     7  H    0.000049  -0.000043  -0.000015   0.000005
     8  H   -0.000100  -0.000217   0.000001   0.000000
     9  H   -0.000810   0.000034  -0.000009  -0.000009
    10  C   -0.032106   0.054202   0.007622  -0.001872
    11  H   -0.010051  -0.003283  -0.000321   0.000085
    12  O    0.313245  -0.011178  -0.000089   0.000167
    13  H    0.458867   0.001577  -0.000042   0.000052
    14  O    0.001577   8.183877   0.017978  -0.002256
    15  O   -0.000042   0.017978   8.063284   0.266110
    16  H    0.000052  -0.002256   0.266110   0.499402
 Mulliken atomic charges:
              1
     1  C    0.145302
     2  H    0.089714
     3  H    0.113200
     4  C   -0.293238
     5  H    0.131172
     6  C   -0.265059
     7  H    0.111493
     8  H    0.106615
     9  H    0.121642
    10  C    0.114257
    11  H    0.118912
    12  O   -0.301191
    13  H    0.261678
    14  O   -0.348282
    15  O   -0.347029
    16  H    0.240813
 Sum of Mulliken charges=   0.00000
 Atomic charges with hydrogens summed into heavy atoms:
              1
     1  C    0.348217
     2  H    0.000000
     3  H    0.000000
     4  C   -0.162065
     5  H    0.000000
     6  C    0.074690
     7  H    0.000000
     8  H    0.000000
     9  H    0.000000
    10  C    0.233169
    11  H    0.000000
    12  O   -0.039512
    13  H    0.000000
    14  O   -0.348282
    15  O   -0.106216
    16  H    0.000000
 Sum of Mulliken charges=   0.00000
          Atomic-Atomic Spin Densities.
              1          2          3          4          5          6
     1  C    0.108503  -0.004012  -0.006520   0.010263  -0.009323  -0.023774
     2  H   -0.004012  -0.000030   0.000962   0.000918   0.000119   0.000706
     3  H   -0.006520   0.000962  -0.000305   0.002094   0.000894   0.000955
     4  C    0.010263   0.000918   0.002094  -0.052210   0.001506  -0.003392
     5  H   -0.009323   0.000119   0.000894   0.001506   0.007347   0.007299
     6  C   -0.023774   0.000706   0.000955  -0.003392   0.007299   0.065605
     7  H    0.002231  -0.000112  -0.000256   0.001169  -0.000496  -0.004047
     8  H    0.001639  -0.000046  -0.000057   0.001969  -0.001006  -0.009890
     9  H   -0.002256   0.000211   0.000104   0.000096   0.000275   0.002901
    10  C   -0.051417   0.001819   0.002515   0.001384  -0.001528  -0.018316
    11  H    0.004124  -0.000036  -0.000192  -0.000474  -0.001045  -0.002415
    12  O    0.004530  -0.000324  -0.000101   0.000112   0.000086   0.002674
    13  H    0.000338  -0.000013  -0.000010  -0.000050  -0.000043  -0.000264
    14  O   -0.000599  -0.000888  -0.000553   0.003121   0.000086   0.000495
    15  O   -0.000969   0.000460   0.000602   0.001305   0.000258   0.000085
    16  H    0.000243  -0.000186  -0.000133  -0.000120  -0.000039  -0.000033
              7          8          9         10         11         12
     1  C    0.002231   0.001639  -0.002256  -0.051417   0.004124   0.004530
     2  H   -0.000112  -0.000046   0.000211   0.001819  -0.000036  -0.000324
     3  H   -0.000256  -0.000057   0.000104   0.002515  -0.000192  -0.000101
     4  C    0.001169   0.001969   0.000096   0.001384  -0.000474   0.000112
     5  H   -0.000496  -0.001006   0.000275  -0.001528  -0.001045   0.000086
     6  C   -0.004047  -0.009890   0.002901  -0.018316  -0.002415   0.002674
     7  H    0.001036   0.001642  -0.000591   0.000399   0.000066  -0.000045
     8  H    0.001642   0.004603  -0.001187   0.004631   0.000370  -0.000958
     9  H   -0.000591  -0.001187  -0.000053  -0.001096  -0.000177   0.000373
    10  C    0.000399   0.004631  -0.001096   0.771722  -0.004676  -0.109039
    11  H    0.000066   0.000370  -0.000177  -0.004676  -0.022349   0.000147
    12  O   -0.000045  -0.000958   0.000373  -0.109039   0.000147   0.195751
    13  H    0.000005   0.000053  -0.000063  -0.003165   0.001106   0.000794
    14  O   -0.000024  -0.000030   0.000031   0.008856  -0.000041  -0.000927
    15  O   -0.000010  -0.000004   0.000021   0.008019  -0.000420  -0.000122
    16  H    0.000003   0.000002  -0.000008  -0.001868   0.000113   0.000185
             13         14         15         16
     1  C    0.000338  -0.000599  -0.000969   0.000243
     2  H   -0.000013  -0.000888   0.000460  -0.000186
     3  H   -0.000010  -0.000553   0.000602  -0.000133
     4  C   -0.000050   0.003121   0.001305  -0.000120
     5  H   -0.000043   0.000086   0.000258  -0.000039
     6  C   -0.000264   0.000495   0.000085  -0.000033
     7  H    0.000005  -0.000024  -0.000010   0.000003
     8  H    0.000053  -0.000030  -0.000004   0.000002
     9  H   -0.000063   0.000031   0.000021  -0.000008
    10  C   -0.003165   0.008856   0.008019  -0.001868
    11  H    0.001106  -0.000041  -0.000420   0.000113
    12  O    0.000794  -0.000927  -0.000122   0.000185
    13  H   -0.000829  -0.000030  -0.000033   0.000028
    14  O   -0.000030   0.009039  -0.095885   0.006585
    15  O   -0.000033  -0.095885   0.466495  -0.000646
    16  H    0.000028   0.006585  -0.000646  -0.010321
 Mulliken atomic spin densities:
              1
     1  C    0.033001
     2  H   -0.000453
     3  H   -0.000001
     4  C   -0.032307
     5  H    0.004389
     6  C    0.018588
     7  H    0.000970
     8  H    0.001731
     9  H   -0.001418
    10  C    0.608240
    11  H   -0.025899
    12  O    0.093136
    13  H   -0.002175
    14  O   -0.070763
    15  O    0.379156
    16  H   -0.006197
 Sum of Mulliken spin densities=   1.00000
 APT atomic charges:
              1
     1  C    0.431513
     2  H   -0.061502
     3  H   -0.039168
     4  C    0.068597
     5  H   -0.031909
     6  C    0.087630
     7  H   -0.019952
     8  H   -0.018709
     9  H   -0.000014
    10  C    0.277521
    11  H   -0.032220
    12  O   -0.684884
    13  H    0.311852
    14  O    0.434773
    15  O   -0.946907
    16  H    0.223381
 Sum of APT charges=   0.00000
 APT Atomic charges with hydrogens summed into heavy atoms:
              1
     1  C    0.330842
     2  H    0.000000
     3  H    0.000000
     4  C    0.036688
     5  H    0.000000
     6  C    0.048954
     7  H    0.000000
     8  H    0.000000
     9  H    0.000000
    10  C    0.245301
    11  H    0.000000
    12  O   -0.373032
    13  H    0.000000
    14  O    0.434773
    15  O   -0.723526
    16  H    0.000000
 Sum of APT charges=   0.00000
 Electronic spatial extent (au):  <R**2>=  1438.1429
 Charge=     0.0000 electrons
 Dipole moment (field-independent basis, Debye):
    X=    -1.0667    Y=     2.1755    Z=     2.4833  Tot=     3.4695
 Quadrupole moment (field-independent basis, Debye-Ang):
   XX=   -44.6200   YY=   -28.1669   ZZ=   -41.3249
   XY=    -2.7775   XZ=     2.1322   YZ=     2.1158
 Traceless Quadrupole moment (field-independent basis, Debye-Ang):
   XX=    -6.5827   YY=     9.8704   ZZ=    -3.2876
   XY=    -2.7775   XZ=     2.1322   YZ=     2.1158
 Octapole moment (field-independent basis, Debye-Ang**2):
  XXX=   112.5679  YYY=   -86.0983  ZZZ=   -89.6351  XYY=    20.4454
  XXY=   -52.5383  XXZ=   -30.4604  XZZ=    35.6441  YZZ=   -38.5995
  YYZ=   -18.9763  XYZ=     1.6479
 Hexadecapole moment (field-independent basis, Debye-Ang**3):
 XXXX=  -414.1552 YYYY=  -379.1058 ZZZZ=  -682.5438 XXXY=   135.1284
 XXXZ=   200.6384 YYYX=    43.8363 YYYZ=   -39.9341 ZZZX=   199.7347
 ZZZY=  -123.0459 XXYY=  -164.0834 XXZZ=  -194.8565 YYZZ=  -187.8770
 XXYZ=   -34.5188 YYXZ=    52.7466 ZZXY=    42.6332
 N-N= 3.246419334876D+02 E-N=-1.549729290603D+03  KE= 3.821951501420D+02
  Exact polarizability:  55.418  -3.487  64.739 -17.386  10.188 101.272
 Approx polarizability:  81.453 -10.412  90.566 -29.273  26.655 159.386
                          Isotropic Fermi Contact Couplings
        Atom                 a.u.       MegaHertz       Gauss      10(-4) cm-1
     1  C(13)              0.01684      18.92897       6.75433       6.31403
     2  H(1)              -0.00005      -0.23415      -0.08355      -0.07810
     3  H(1)               0.00002       0.06806       0.02429       0.02270
     4  C(13)             -0.01788     -20.10465      -7.17384      -6.70619
     5  H(1)               0.00193       8.61360       3.07355       2.87319
     6  C(13)              0.02032      22.84050       8.15006       7.61877
     7  H(1)               0.00017       0.76505       0.27299       0.25519
     8  H(1)              -0.00040      -1.77736      -0.63421      -0.59286
     9  H(1)              -0.00039      -1.76335      -0.62921      -0.58819
    10  C(13)              0.07197      80.90760      28.86984      26.98787
    11  H(1)              -0.00704     -31.46466     -11.22737     -10.49548
    12  O(17)              0.01696     -10.27838      -3.66758      -3.42850
    13  H(1)              -0.00091      -4.06771      -1.45146      -1.35684
    14  O(17)              0.41221    -249.88279     -89.16439     -83.35193
    15  O(17)              0.03732     -22.62263      -8.07232      -7.54610
    16  H(1)              -0.00589     -26.31670      -9.39045      -8.77831
 --------------------------------------------------------
       Center         ----  Spin Dipole Couplings  ----
                      3XX-RR        3YY-RR        3ZZ-RR
 --------------------------------------------------------
     1   Atom       -0.035430     -0.027225      0.062655
     2   Atom        0.001167     -0.002574      0.001407
     3   Atom       -0.005093      0.003157      0.001936
     4   Atom       -0.011760      0.004951      0.006809
     5   Atom       -0.003599      0.007418     -0.003819
     6   Atom        0.011845     -0.002283     -0.009562
     7   Atom       -0.001908      0.004159     -0.002250
     8   Atom       -0.002739     -0.000112      0.002852
     9   Atom        0.003809      0.000094     -0.003903
    10   Atom       -0.351017     -0.388968      0.739984
    11   Atom        0.016394     -0.018820      0.002426
    12   Atom       -0.302091     -0.292663      0.594754
    13   Atom       -0.017086      0.029927     -0.012842
    14   Atom        0.152770     -0.043717     -0.109053
    15   Atom       -0.762891     -0.413933      1.176824
    16   Atom       -0.040398      0.036025      0.004373
 --------------------------------------------------------
                        XY            XZ            YZ
 --------------------------------------------------------
     1   Atom       -0.000925     -0.010603      0.006454
     2   Atom        0.003580      0.000565      0.003139
     3   Atom       -0.003539     -0.002342     -0.000936
     4   Atom        0.003247      0.000648     -0.006925
     5   Atom       -0.006111      0.000885     -0.004355
     6   Atom        0.018463     -0.015406     -0.010464
     7   Atom        0.002287     -0.001376     -0.001482
     8   Atom        0.002880     -0.003500     -0.003652
     9   Atom        0.004319     -0.001323     -0.001594
    10   Atom        0.010737     -0.219904     -0.040406
    11   Atom        0.043978      0.010392      0.011382
    12   Atom       -0.012268     -0.131087      0.087176
    13   Atom       -0.004143     -0.001068     -0.001798
    14   Atom        0.113766      0.106471     -0.447653
    15   Atom       -0.157967     -0.319223      0.893960
    16   Atom       -0.033566      0.013486     -0.036714
 --------------------------------------------------------


 ---------------------------------------------------------------------------------
              Anisotropic Spin Dipole Couplings in Principal Axis System
 ---------------------------------------------------------------------------------

       Atom             a.u.   MegaHertz   Gauss  10(-4) cm-1        Axes

              Baa    -0.0366    -4.907    -1.751    -1.637  0.9942  0.0262  0.1045
     1 C(13)  Bbb    -0.0277    -3.715    -1.326    -1.239 -0.0185  0.9971 -0.0734
              Bcc     0.0643     8.622     3.077     2.876 -0.1062  0.0711  0.9918
 
              Baa    -0.0056    -2.998    -1.070    -1.000 -0.4158  0.8423 -0.3429
     2 H(1)   Bbb     0.0007     0.393     0.140     0.131 -0.6769 -0.0349  0.7352
              Bcc     0.0049     2.605     0.929     0.869  0.6073  0.5378  0.5847
 
              Baa    -0.0071    -3.792    -1.353    -1.265  0.9028  0.3358  0.2686
     3 H(1)   Bbb     0.0026     1.407     0.502     0.469 -0.2637 -0.0613  0.9627
              Bcc     0.0045     2.385     0.851     0.795 -0.3397  0.9399 -0.0332
 
              Baa    -0.0126    -1.689    -0.603    -0.563  0.9682 -0.2236 -0.1122
     4 C(13)  Bbb    -0.0004    -0.053    -0.019    -0.018  0.2407  0.7105  0.6613
              Bcc     0.0130     1.742     0.621     0.581 -0.0682 -0.6673  0.7417
 
              Baa    -0.0068    -3.634    -1.297    -1.212  0.7608  0.4653  0.4524
     5 H(1)   Bbb    -0.0046    -2.438    -0.870    -0.813 -0.5282  0.0389  0.8483
              Bcc     0.0114     6.072     2.166     2.025 -0.3771  0.8843 -0.2754
 
              Baa    -0.0178    -2.384    -0.851    -0.795  0.3527  0.1976  0.9146
     6 C(13)  Bbb    -0.0150    -2.011    -0.717    -0.671 -0.5534  0.8322  0.0336
              Bcc     0.0327     4.394     1.568     1.466  0.7545  0.5180 -0.4029
 
              Baa    -0.0035    -1.866    -0.666    -0.623  0.7151 -0.0791  0.6946
     7 H(1)   Bbb    -0.0019    -1.001    -0.357    -0.334 -0.6155  0.3999  0.6792
              Bcc     0.0054     2.867     1.023     0.956  0.3315  0.9131 -0.2373
 
              Baa    -0.0048    -2.577    -0.920    -0.860  0.8999 -0.3672  0.2354
     8 H(1)   Bbb    -0.0025    -1.337    -0.477    -0.446  0.1507  0.7682  0.6222
              Bcc     0.0073     3.914     1.396     1.305 -0.4093 -0.5244  0.7466
 
              Baa    -0.0045    -2.384    -0.851    -0.795 -0.0414  0.3642  0.9304
     9 H(1)   Bbb    -0.0025    -1.358    -0.485    -0.453 -0.5772  0.7514 -0.3198
              Bcc     0.0070     3.742     1.335     1.248  0.8155  0.5503 -0.1792
 
              Baa    -0.3953   -53.050   -18.929   -17.695  0.8515 -0.5032  0.1470
    10 C(13)  Bbb    -0.3888   -52.172   -18.616   -17.403  0.4885  0.8634  0.1261
              Bcc     0.7841   105.222    37.546    35.098 -0.1904 -0.0355  0.9811
 
              Baa    -0.0488   -26.064    -9.300    -8.694 -0.5494  0.8324 -0.0734
    11 H(1)   Bbb    -0.0020    -1.047    -0.374    -0.349 -0.2868 -0.1053  0.9522
              Bcc     0.0508    27.111     9.674     9.043  0.7848  0.5442  0.2966
 
              Baa    -0.3209    23.217     8.285     7.744  0.9897 -0.0106  0.1427
    12 O(17)  Bbb    -0.3011    21.790     7.775     7.268  0.0241  0.9953 -0.0933
              Bcc     0.6220   -45.007   -16.060   -15.013 -0.1411  0.0958  0.9854
 
              Baa    -0.0178    -9.473    -3.380    -3.160  0.9653  0.0931  0.2440
    13 H(1)   Bbb    -0.0126    -6.723    -2.399    -2.243 -0.2465  0.0170  0.9690
              Bcc     0.0304    16.197     5.779     5.403 -0.0861  0.9955 -0.0393
 
              Baa    -0.5592    40.461    14.438    13.496 -0.2133  0.6670  0.7138
    14 O(17)  Bbb     0.1861   -13.467    -4.805    -4.492  0.9754  0.1036  0.1947
              Bcc     0.3731   -26.995    -9.632    -9.004  0.0559  0.7378 -0.6727
 
              Baa    -0.8287    59.967    21.398    20.003  0.7084  0.6797 -0.1902
    15 O(17)  Bbb    -0.8022    58.046    20.712    19.362  0.6903 -0.6110  0.3874
              Bcc     1.6309  -118.014   -42.110   -39.365 -0.1471  0.4057  0.9021
 
              Baa    -0.0530   -28.305   -10.100    -9.441  0.9347  0.3554  0.0077
    16 H(1)   Bbb    -0.0184    -9.829    -3.507    -3.279 -0.1852  0.4684  0.8639
              Bcc     0.0715    38.134    13.607    12.720 -0.3034  0.8089 -0.5036
 

 ---------------------------------------------------------------------------------

 Use density number 0.
 Entering OneElI...
 Calculate overlap and kinetic energy integrals
    NBasis = 187  MinDer = 2  MaxDer = 2
 Requested accuracy = 0.1000D-12
 PrsmSu:  NPrtUS=   1 ThrOK=F
 PRISM was handed   130760910 working-precision words and  2537 shell-pairs
 Entering OneElI...
 Calculate potential energy integrals
    NBasis = 187  MinDer = 2  MaxDer = 2
 Requested accuracy = 0.1000D-12
 PrsmSu:  NPrtUS=   8 ThrOK=T
 PRISM was handed    16302958 working-precision words and  2337 shell-pairs
 PRISM was handed    16302958 working-precision words and  2337 shell-pairs
 PRISM was handed    16302958 working-precision words and  2337 shell-pairs
 PRISM was handed    16302958 working-precision words and  2337 shell-pairs
 PRISM was handed    16302958 working-precision words and  2337 shell-pairs
 PRISM was handed    16302958 working-precision words and  2337 shell-pairs
 PRISM was handed    16302958 working-precision words and  2337 shell-pairs
 PRISM was handed    16302958 working-precision words and  2337 shell-pairs
 Polarizability after L701:
                1             2             3
      1  0.554178D+02
      2 -0.348685D+01  0.647395D+02
      3 -0.173856D+02  0.101877D+02  0.101272D+03
 Dipole Derivatives after L701:
               1            2            3            4            5
      1 0.394212D+00-0.529213D-02-0.103553D-01-0.163250D+00-0.156923D-01
      2 0.129217D+00 0.630558D+00-0.579526D-01-0.898934D-01-0.262506D-01
      3 0.920103D-01 0.187940D+00 0.269768D+00-0.736339D-01-0.550061D-02
               6            7            8            9           10
      1-0.657259D-01-0.207718D-01 0.576272D-01 0.853382D-02 0.131280D+00
      2-0.186920D-01 0.990541D-01-0.128857D+00-0.381196D-01-0.631571D-01
      3 0.499351D-02 0.302003D-01-0.287378D-01 0.321238D-01-0.595232D-01
              11           12           13           14           15
      1 0.116921D+00-0.385787D-01-0.115468D+00 0.120824D-01-0.469828D-01
      2-0.736959D-01-0.515913D-01 0.274668D-01 0.258695D-01 0.315901D-01
      3-0.329427D+00 0.148205D+00-0.542336D-01 0.460105D-01-0.612722D-02
              16           17           18           19           20
      1 0.375169D-01-0.513861D-01 0.178190D-01 0.431265D-01-0.309795D-01
      2-0.393824D-02 0.879978D-01 0.487403D-01 0.445415D-02-0.150877D+00
      3-0.699227D-02 0.822662D-01 0.137374D+00 0.518715D-01 0.451298D-01
              21           22           23           24           25
      1 0.193822D-01 0.473595D-01-0.882018D-02 0.221545D-01-0.735822D-01
      2-0.266121D-01-0.364613D-01 0.435750D-01-0.157692D-01 0.268920D-01
      3 0.478935D-01-0.192019D-01-0.822026D-01-0.147061D+00-0.293476D-01
              26           27           28           29           30
      1 0.696770D-01-0.727285D-01 0.870194D+00-0.255988D+00 0.289651D+00
      2 0.538175D-01 0.255884D-01-0.620172D+00 0.607879D+00-0.158387D+00
      3 0.115327D-01 0.197214D-01-0.560804D+00 0.646862D-01-0.645510D+00
              31           32           33           34           35
      1-0.393880D-01-0.677035D-01-0.363691D-01-0.965684D+00 0.438885D+00
      2-0.140725D-01-0.625432D-01-0.921703D-01 0.803525D+00-0.781565D+00
      3-0.317748D-01 0.120844D-01 0.527193D-02 0.750443D+00-0.436780D+00
              36           37           38           39           40
      1-0.571994D-01 0.272537D+00-0.784575D-01-0.342127D-02-0.223069D+00
      2-0.365694D-01-0.935857D-01 0.305956D+00 0.501486D-01-0.277967D+00
      3-0.307402D+00 0.879670D-02 0.114359D+00 0.357062D+00-0.449166D+00
              41           42           43           44           45
      1-0.323708D+00-0.527496D+00-0.465784D+00 0.209955D-01 0.530402D+00
      2-0.249826D+00 0.912020D+00 0.201259D-01-0.387192D+00-0.612334D+00
      3 0.790186D+00 0.177721D+01 0.322105D+00-0.398507D+00-0.198774D+01
              46           47           48
      1 0.270771D+00 0.121839D+00-0.290848D-01
      2 0.885126D-01 0.105153D+00 0.401108D-01
      3 0.292497D-01-0.730384D-01 0.294220D+00
 Hessian after L701:
                1             2             3             4             5
      1  0.184224D+02
      2 -0.169408D+01  0.144365D+02
      3  0.165187D+01  0.682186D+00  0.150603D+02
      4 -0.187463D+01  0.581027D+00  0.109545D+01  0.161072D+01
      5  0.759741D+00 -0.465555D+01  0.259826D+00 -0.866290D+00  0.469365D+01
      6  0.118981D+01  0.214541D+00 -0.439741D+01 -0.110411D+01 -0.461253D+00
      7 -0.392004D+01 -0.137082D+01 -0.351656D+00 -0.249696D+00  0.184896D+00
      8 -0.147895D+01 -0.236031D+01  0.610616D+00  0.230003D+00  0.139998D+00
      9 -0.349040D+00  0.572278D+00 -0.461342D+01 -0.470227D-01  0.240217D-01
     10 -0.621955D+01 -0.151660D+00 -0.430330D+00  0.613531D-01 -0.490550D-02
     11 -0.921551D-01 -0.613043D+01  0.834021D+00  0.463371D-01  0.196278D+00
     12 -0.396819D+00  0.103974D+01 -0.913606D+00 -0.142097D+00  0.221179D-01
     13  0.152039D+00 -0.647524D-01  0.216263D-01  0.567599D-01  0.149408D-01
     14 -0.463738D-01  0.106123D+00 -0.732448D-01 -0.246724D-02 -0.383881D-01
     15 -0.184392D-01 -0.949569D-01 -0.618990D-01  0.107816D+00  0.180437D-01
     16  0.179373D-01  0.143571D-01  0.460572D-01 -0.490097D-01  0.315683D-02
     17 -0.475174D-01  0.471365D-01  0.112783D+00  0.365442D-02 -0.528227D-01
     18 -0.421972D-01 -0.267591D-01  0.772779D-01  0.407500D-01 -0.101379D-01
     19 -0.167363D-01  0.174319D-02 -0.113407D-01 -0.963206D-03 -0.265635D-03
     20  0.221512D-01  0.692746D-02 -0.289019D-01 -0.103057D-01 -0.671326D-03
     21 -0.159117D-01 -0.735273D-02  0.983839D-02  0.440251D-02  0.288204D-02
     22 -0.278204D-01 -0.352963D-02 -0.713757D-01 -0.226791D-02 -0.814314D-04
     23 -0.294342D-02 -0.516656D-01  0.251823D-02  0.162708D-02 -0.249844D-02
     24 -0.821068D-01 -0.372302D-02  0.185199D+00  0.100434D-01  0.319935D-02
     25  0.127717D-01  0.241826D-01 -0.166303D-01 -0.167808D-01 -0.808034D-02
     26 -0.937562D-02 -0.178743D-01  0.379891D-02  0.281119D-03 -0.195481D-01
     27  0.587870D-02 -0.100923D-01 -0.124302D-01 -0.180887D-01  0.870624D-02
     28  0.411955D+00 -0.158741D+00 -0.138848D+00  0.337833D-01  0.339601D-01
     29 -0.169891D+00  0.147158D+00  0.146173D+00  0.381403D-01 -0.175164D-01
     30 -0.144290D+00  0.105464D+00  0.683165D+00  0.296069D-01 -0.262037D-01
     31 -0.281258D-01  0.849512D-01  0.591741D-01  0.767281D-02  0.568613D-03
     32  0.618698D-01  0.908931D-01  0.100839D+00  0.419017D-02 -0.182994D-02
     33  0.416827D-01  0.968855D-01 -0.158837D-02  0.169838D-02 -0.225790D-02
     34 -0.103333D+00 -0.349482D+00 -0.158930D+00 -0.580710D-01 -0.130705D-01
     35 -0.373197D+00  0.296315D+00  0.267143D+00  0.289493D-01  0.789233D-01
     36 -0.173288D+00  0.264111D+00 -0.185805D+00  0.246373D-01  0.805194D-01
     37 -0.812462D-02  0.837460D-03 -0.711457D-03 -0.263069D-03  0.526304D-03
     38 -0.191466D-01  0.182981D-01  0.629250D-02  0.109086D-01  0.434730D-02
     39 -0.130165D-02  0.161651D-02 -0.809726D-02  0.231019D-03 -0.100339D-02
     40 -0.664722D+01  0.302935D+01 -0.141519D+01  0.447406D+00 -0.148184D+00
     41  0.298164D+01 -0.167366D+01 -0.268733D+01 -0.134212D+00 -0.268345D+00
     42 -0.144518D+01 -0.274354D+01 -0.574631D+01  0.146417D+00  0.145513D+00
     43 -0.151108D+00  0.557980D-01 -0.284663D+00  0.364280D-01  0.415985D-01
     44  0.107030D+00 -0.271039D+00 -0.170168D+00  0.519371D-01 -0.609259D-01
     45 -0.219690D+00 -0.492144D-01 -0.123716D+00 -0.137164D+00 -0.568449D-01
     46 -0.203924D-01  0.811526D-03  0.550512D-02 -0.243400D-02  0.148904D-02
     47  0.119295D-02  0.111987D-01 -0.665558D-01  0.162205D-01  0.490389D-02
     48 -0.969995D-03 -0.411902D-01  0.484746D-01 -0.125670D-01 -0.712851D-02
                6             7             8             9            10
      6  0.397035D+01
      7 -0.582655D-01  0.404332D+01
      8  0.341127D-01  0.167744D+01  0.187905D+01
      9  0.218406D+00  0.508823D+00 -0.589136D+00  0.429183D+01
     10 -0.194867D+00  0.687782D-01  0.384954D-01  0.422432D-01  0.186529D+02
     11  0.706539D-01  0.461831D-01 -0.406507D-01 -0.109246D+00 -0.671837D+00
     12 -0.142324D+00  0.143712D-01 -0.683942D-01  0.869820D-01  0.186774D+01
     13  0.105888D+00  0.389036D-01 -0.304228D-02 -0.189573D-01 -0.254008D+01
     14 -0.213703D-02 -0.438747D-02  0.165730D-01 -0.556634D-01 -0.805899D+00
     15  0.783682D-01 -0.170697D-01 -0.679210D-01 -0.101249D+00  0.107073D+01
     16  0.247798D-02  0.106352D-01 -0.261891D-01 -0.367856D-01 -0.273950D+01
     17 -0.198271D-01 -0.266241D-01 -0.721306D-02  0.279839D-01  0.155323D+01
     18  0.985387D-01 -0.450460D-01  0.372377D-01  0.179891D-01 -0.205005D+01
     19  0.133154D-02  0.752922D-02 -0.913483D-03 -0.204040D-01  0.311349D-01
     20 -0.601627D-02  0.142318D-01 -0.166897D-01 -0.137560D-01 -0.245345D-01
     21 -0.588331D-02 -0.220073D-01  0.938903D-03  0.177731D-01  0.145338D-01
     22  0.233686D-04 -0.722151D-03  0.173042D-03  0.245022D-02  0.180351D-01
     23  0.186044D-02 -0.140197D-02  0.152443D-02  0.956777D-03 -0.604134D-02
     24  0.152158D-01 -0.362105D-02  0.685555D-02 -0.571369D-03  0.172224D-01
     25 -0.430511D-01  0.666740D-02 -0.841855D-02 -0.353125D-02  0.504106D-01
     26  0.994921D-02 -0.325230D-02  0.250348D-02  0.164169D-02 -0.616094D-01
     27  0.320179D-01  0.240166D-02 -0.150608D-02 -0.271252D-02  0.777082D-01
     28  0.296922D-01 -0.521437D-01 -0.981209D-01 -0.495245D-01 -0.669256D+01
     29 -0.220070D-01 -0.101679D+00  0.219950D+00  0.158981D+00  0.109753D+00
     30 -0.346951D-01 -0.587426D-01  0.177004D+00 -0.364254D-02  0.799811D-01
     31  0.267897D-02 -0.516633D-02  0.979643D-02  0.346193D-02  0.116267D+00
     32 -0.538168D-03 -0.433256D-02  0.708621D-02  0.190264D-02 -0.147322D+00
     33 -0.662965D-03 -0.233056D-02  0.408168D-02 -0.128383D-03  0.462695D-02
     34 -0.115266D-01  0.568688D-02 -0.270021D-01 -0.977098D-02 -0.518458D+00
     35  0.950739D-01 -0.186308D-01  0.169690D-01  0.115620D-01  0.329319D+00
     36  0.127783D-01 -0.112074D-01  0.200785D-01 -0.603699D-02 -0.488500D-01
     37  0.424821D-03 -0.191252D-03 -0.214010D-02 -0.542897D-03 -0.388900D-01
     38  0.562369D-02 -0.832932D-02  0.150900D-01  0.472060D-02 -0.978574D-01
     39 -0.106950D-02 -0.305465D-03  0.126464D-02 -0.771328D-03  0.124474D-01
     40  0.153836D+00  0.112607D+00 -0.375039D+00  0.355945D-01 -0.101785D+00
     41  0.124234D+00 -0.386542D+00  0.112978D+00  0.196452D-01 -0.769747D-01
     42  0.136616D+00  0.564944D-01 -0.443622D-01  0.817755D-01 -0.252332D+00
     43 -0.711712D-01 -0.661069D-01  0.670436D-01 -0.573967D-01 -0.136993D+00
     44 -0.388249D-01  0.103838D-01  0.195169D-02 -0.563238D-01  0.797531D-02
     45  0.174929D-01 -0.163246D-01 -0.113171D+00  0.167993D-01 -0.205234D+00
     46 -0.316702D-02 -0.587637D-04 -0.313883D-02  0.403499D-03 -0.111054D-01
     47 -0.544517D-02 -0.713884D-02  0.111912D-01  0.432416D-03  0.987034D-02
     48  0.226082D-02  0.448550D-02 -0.769949D-02 -0.301453D-02 -0.557089D-02
               11            12            13            14            15
     11  0.154551D+02
     12  0.104738D+01  0.149518D+02
     13 -0.739776D+00  0.948492D+00  0.210198D+01
     14 -0.443078D+01 -0.330734D+00  0.936722D+00  0.440921D+01
     15 -0.349210D+00 -0.426514D+01 -0.131481D+01  0.639415D+00  0.404558D+01
     16  0.151499D+01 -0.200830D+01  0.663261D-01 -0.582862D-01  0.877383D-01
     17 -0.495811D+01 -0.102599D+01 -0.409200D-01  0.280859D-01  0.120973D-02
     18 -0.101031D+01 -0.430056D+01  0.705152D-01  0.361789D-03  0.244747D-01
     19 -0.628199D-01  0.132817D-03 -0.301599D-01 -0.303094D-01  0.465340D-02
     20  0.449508D-01 -0.496485D-02 -0.206066D-01 -0.537077D-02  0.764784D-02
     21  0.497901D-01  0.470723D-01  0.962170D-02  0.491140D-02  0.160705D-01
     22  0.137202D-01  0.474986D-01 -0.315583D-01  0.108752D-02  0.314923D-01
     23  0.493630D-01  0.331464D-01 -0.518312D-02  0.176928D-01  0.256590D-03
     24 -0.146302D-01  0.982827D-01  0.233364D-01  0.353089D-02 -0.769668D-02
     25  0.632760D-02  0.500024D-02  0.149849D+00 -0.182631D-01  0.202345D-01
     26  0.944778D-01 -0.299477D-02 -0.927589D-02 -0.317715D-01  0.572357D-03
     27 -0.862500D-02  0.852708D-01  0.787407D-02  0.529719D-03 -0.324370D-01
     28  0.117195D+00  0.793147D-01  0.449277D-01  0.127619D+00 -0.239829D-02
     29 -0.171963D+00 -0.600389D+00  0.960435D-01 -0.333925D-01 -0.127858D-01
     30 -0.374389D+00 -0.656330D+01  0.335056D-01 -0.359132D-01  0.143136D+00
     31 -0.129797D+00  0.228422D-01  0.106391D-01  0.673953D-02 -0.432199D-02
     32 -0.115969D+00  0.327847D-01 -0.519778D-02 -0.626894D-01  0.821812D-02
     33  0.114341D-02  0.169928D+00 -0.146290D-02  0.678045D-02  0.169202D-01
     34  0.188621D+00 -0.740893D-01  0.736310D-01 -0.115027D+00  0.464480D-01
     35  0.308791D+00 -0.327223D-01 -0.121534D+00  0.637180D-01 -0.441892D-01
     36 -0.819661D-01  0.516086D-01  0.333820D-01 -0.288379D-01 -0.357329D-01
     37 -0.104173D+00  0.150416D-01 -0.168442D-02  0.640062D-02 -0.973756D-03
     38  0.314206D+00 -0.521316D-01 -0.668575D-02 -0.174437D-02 -0.348566D-02
     39 -0.458307D-01 -0.596065D-01  0.501415D-03  0.627753D-03  0.975742D-03
     40 -0.157267D+00 -0.219215D+00 -0.750626D-01  0.305743D-02 -0.113389D-01
     41 -0.419217D+00  0.642262D-02 -0.252753D-01 -0.259532D-01 -0.937619D-01
     42  0.895825D-01  0.238239D+00  0.552597D-01 -0.110959D+00  0.136379D+00
     43  0.273975D-01 -0.168161D+00 -0.176317D-01  0.635038D-03 -0.153335D-02
     44 -0.196320D+00 -0.443819D-01 -0.171063D-03 -0.136954D-01 -0.406137D-02
     45 -0.950605D-01  0.506459D+00  0.212086D-01 -0.158775D-01  0.383384D-01
     46 -0.294692D-02  0.824285D-02  0.112378D-02 -0.124789D-02  0.177786D-02
     47  0.311703D-03 -0.188928D-01 -0.528633D-02  0.237700D-02 -0.499165D-02
     48 -0.330471D-02  0.885007D-02  0.401971D-02 -0.279042D-02  0.391172D-02
               16            17            18            19            20
     16  0.133054D+02
     17 -0.843750D+00  0.138202D+02
     18  0.132414D+01  0.110236D+01  0.137086D+02
     19 -0.410043D+01  0.126056D+00  0.221770D-01  0.405426D+01
     20  0.284476D-01 -0.138035D+01  0.197487D+00 -0.218033D+00  0.111826D+01
     21  0.125479D-01  0.425476D-01 -0.410856D+01  0.550669D-01  0.399669D-01
     22 -0.408266D+01  0.512670D-02  0.379347D-01  0.708429D-01  0.427278D-02
     23  0.218613D-01 -0.394207D+01  0.560631D+00 -0.940140D-02 -0.125231D-01
     24  0.123856D+00  0.725408D+00 -0.155578D+01 -0.816679D-02 -0.746969D-01
     25 -0.207687D+01 -0.952599D+00  0.102627D+01  0.382607D-01  0.813222D-01
     26 -0.722463D+00 -0.411300D+01 -0.295124D+00  0.958560D-01 -0.323580D-01
     27  0.797951D+00 -0.302649D+00 -0.405034D+01 -0.633532D-02  0.133070D-01
     28  0.272203D-01  0.668488D-01 -0.495194D-01 -0.252106D-01  0.860051D-01
     29  0.173186D-01  0.151555D+00 -0.809142D-01  0.820700D-01  0.176331D+00
     30 -0.933489D-01 -0.202997D+00  0.210008D+00 -0.153437D-01 -0.518908D-01
     31  0.218430D-01  0.836673D-01 -0.127177D-01  0.414087D-03  0.901125D-02
     32  0.638909D-01  0.543176D-01 -0.184123D-01 -0.108734D-02  0.492788D-02
     33 -0.734082D-02 -0.882658D-02 -0.329478D-01  0.603643D-03  0.246964D-02
     34 -0.328575D+00 -0.870602D-01  0.135661D-01 -0.170927D-01 -0.948084D-02
     35 -0.146667D+00  0.478230D+00 -0.233129D+00  0.900200D-03  0.549848D-01
     36  0.363632D-01 -0.239291D+00 -0.293331D+00 -0.808298D-03 -0.144016D-01
     37 -0.110888D-01  0.505995D-02 -0.182634D-02 -0.723812D-03  0.409376D-03
     38 -0.619680D-02  0.356171D-01 -0.585371D-02  0.619998D-03  0.149423D-01
     39  0.194565D-03 -0.871250D-02 -0.102270D-01 -0.205995D-03 -0.235188D-02
     40 -0.178870D-01  0.143399D+00 -0.261940D+00 -0.657197D-02  0.258338D-01
     41  0.125072D+00 -0.990795D-01 -0.186509D+00  0.112126D-01  0.214124D-01
     42 -0.232940D+00 -0.187040D+00  0.144343D+00 -0.150451D-01 -0.437020D-01
     43 -0.401880D-01  0.108036D-01 -0.715272D-01 -0.399236D-02  0.126044D-01
     44  0.144741D-01 -0.608904D-01 -0.194225D-01  0.358475D-02 -0.405774D-03
     45 -0.504161D-01 -0.126917D-01  0.624455D-01 -0.558073D-02 -0.159265D-01
     46 -0.317826D-02  0.628209D-03 -0.528782D-03 -0.559605D-03 -0.132898D-02
     47 -0.153515D-04 -0.165093D-02 -0.114991D-01  0.787839D-03  0.563030D-02
     48 -0.219789D-02 -0.425846D-02  0.802571D-02 -0.734673D-03 -0.426960D-02
               21            22            23            24            25
     21  0.397431D+01
     22  0.182442D-02  0.409189D+01
     23 -0.957490D-01 -0.331727D-01  0.384471D+01
     24  0.200610D-01  0.532311D-01 -0.470197D+00  0.117203D+01
     25 -0.240876D-01  0.329073D-01  0.112204D-01 -0.771965D-01  0.180490D+01
     26  0.455060D-01 -0.124534D-01  0.804255D-01 -0.865092D-02  0.695631D+00
     27  0.774155D-01 -0.897631D-01  0.265287D-01 -0.270039D-01 -0.760244D+00
     28 -0.170561D-01 -0.264327D-01  0.144802D-01 -0.136991D-01 -0.206547D-01
     29 -0.494768D-01  0.146264D-01  0.123793D-01 -0.391333D-01 -0.359337D-01
     30 -0.415494D-01 -0.806325D-03 -0.129827D-01  0.116728D-02 -0.141028D-01
     31  0.301502D-03  0.455524D-02  0.101842D-01 -0.197471D-01  0.192102D-01
     32  0.137395D-02  0.100535D-01  0.590457D-02 -0.171532D-01  0.155867D-01
     33 -0.113804D-02 -0.488219D-02 -0.580891D-02 -0.723388D-03  0.227463D-02
     34  0.358104D-03 -0.341721D-01 -0.204136D-02  0.870997D-02 -0.547821D-01
     35 -0.885993D-02 -0.374907D-02  0.120275D-01 -0.785958D-01  0.152409D+00
     36 -0.156451D-01  0.343904D-02 -0.411736D-01  0.409634D-01 -0.381685D-01
     37  0.141586D-03 -0.114434D-02  0.203258D-03 -0.635446D-03  0.170126D-02
     38 -0.104997D-02 -0.370372D-03  0.168167D-02 -0.146422D-01  0.980269D-02
     39 -0.841843D-03  0.194501D-03 -0.113596D-02  0.228059D-02 -0.122124D-02
     40 -0.122750D-01 -0.783588D-02  0.822814D-03 -0.202948D-01  0.397965D-01
     41 -0.175895D-01  0.446276D-02 -0.101585D-01 -0.143347D-01  0.220223D-01
     42  0.507035D-02 -0.540791D-02  0.787355D-03  0.338436D-01 -0.506833D-01
     43 -0.743536D-02 -0.316584D-02 -0.435741D-03 -0.123331D-01  0.140588D-01
     44 -0.620507D-02 -0.386202D-03 -0.580641D-02  0.224607D-02 -0.786043D-03
     45  0.495611D-02 -0.568446D-02 -0.223037D-04  0.186611D-01 -0.206170D-01
     46 -0.253800D-04 -0.450326D-03  0.221806D-03  0.140147D-02 -0.145049D-02
     47 -0.163394D-02  0.219964D-03 -0.979043D-03 -0.548242D-02  0.557640D-02
     48  0.105021D-02 -0.168604D-03  0.384158D-03  0.407371D-02 -0.424211D-02
               26            27            28            29            30
     26  0.398042D+01
     27  0.297904D+00  0.401916D+01
     28 -0.469641D-01  0.160942D-01  0.107107D+02
     29 -0.207214D-01  0.123517D-01  0.345355D+01  0.114571D+02
     30 -0.273790D-02  0.164744D-01 -0.200750D+00 -0.294499D+00  0.185759D+02
     31  0.705352D-02  0.296222D-02 -0.236585D+01  0.135423D+01  0.662706D+00
     32  0.160214D-02  0.180234D-02  0.146099D+01 -0.389992D+01  0.388785D+00
     33 -0.229463D-03 -0.302912D-02  0.803896D+00  0.445791D+00 -0.449866D+01
     34  0.678734D-01 -0.102821D-01 -0.624045D+00 -0.479703D+01  0.512983D+00
     35  0.113800D+00 -0.360318D-01 -0.484875D+01 -0.688082D+01 -0.323274D+00
     36 -0.525064D-01 -0.961014D-01  0.398633D+00 -0.269285D+00 -0.947389D+01
     37 -0.204684D-02  0.999010D-03  0.497731D-01  0.117463D+00 -0.895906D-02
     38 -0.823566D-02  0.608594D-02 -0.660513D-02  0.291023D-01 -0.300512D-02
     39  0.162267D-02 -0.844716D-03  0.967755D-02 -0.143311D-01  0.736618D-01
     40  0.321152D-02 -0.192969D-01 -0.133964D+01 -0.128646D+00 -0.646693D+00
     41 -0.197103D-01 -0.639857D-02 -0.130076D+00 -0.105845D+01  0.472178D+00
     42 -0.853491D-03 -0.611895D-02 -0.677112D+00  0.441281D+00  0.627160D+00
     43 -0.282588D-02 -0.738779D-02 -0.124975D+00 -0.487643D-01 -0.144459D+00
     44 -0.831855D-02 -0.191841D-02 -0.753500D-01 -0.111267D+00  0.204748D+00
     45  0.147794D-02  0.794352D-03 -0.185290D+00  0.187335D+00  0.289399D+00
     46  0.359981D-03 -0.471245D-03 -0.684027D-02 -0.124517D-02  0.871380D-02
     47 -0.169159D-02  0.613277D-05  0.395923D-02  0.511043D-03 -0.202862D-01
     48  0.624649D-03 -0.111583D-03 -0.310956D-02 -0.909169D-02 -0.433686D-02
               31            32            33            34            35
     31  0.234958D+01
     32 -0.169634D+01  0.378135D+01
     33 -0.889451D+00 -0.652972D+00  0.413420D+01
     34  0.253095D-02  0.156404D+00  0.621964D-01  0.821492D+01
     35  0.141412D+00  0.130885D+00  0.350562D-01  0.503906D+01  0.685868D+01
     36  0.766811D-01  0.355858D-01  0.133458D+00  0.191149D+00  0.715062D+00
     37 -0.911365D-01  0.623173D-01 -0.354751D-01 -0.650795D+01  0.692846D-01
     38  0.542449D-01 -0.103747D-02  0.137012D-01  0.280364D+00 -0.123843D+01
     39 -0.265616D-01  0.164888D-01  0.286562D-01 -0.238840D-01 -0.691562D+00
     40 -0.270343D-01  0.203732D-01  0.247393D-01 -0.918357D-02 -0.194713D+00
     41  0.527006D-01  0.467141D-02  0.468180D-01 -0.269009D+00 -0.199127D+00
     42  0.968146D-01  0.705197D-01  0.325473D-01 -0.437664D+00  0.254879D+00
     43 -0.163745D-01 -0.310897D-02 -0.282460D-02 -0.304533D-01 -0.511393D-01
     44  0.168103D-01  0.465568D-02  0.210503D-01 -0.749777D-01 -0.840051D-01
     45  0.195521D-01  0.261938D-01  0.162644D-01 -0.847027D-01  0.637530D-01
     46  0.971556D-03  0.170722D-02  0.204927D-02 -0.106590D-01 -0.294787D-02
     47 -0.523552D-02 -0.484163D-02 -0.368280D-02  0.118641D-01 -0.109456D-01
     48  0.562401D-02  0.458228D-02  0.691348D-02 -0.245604D-01  0.583530D-02
               36            37            38            39            40
     36  0.161790D+02
     37  0.390195D-02  0.662706D+01
     38 -0.772144D+00 -0.123337D+00  0.741446D+00
     39 -0.648822D+01  0.627951D-01  0.699802D+00  0.646164D+01
     40 -0.352108D+00 -0.123253D-01 -0.657422D-01 -0.253078D-01  0.979505D+01
     41  0.269024D+00 -0.259345D-01  0.549273D-01  0.343019D-01 -0.190568D+01
     42  0.780739D-01 -0.276172D-01  0.798808D-01  0.197544D-03  0.352110D+01
     43 -0.138163D+00 -0.444677D-02 -0.231788D-01 -0.675473D-02 -0.208998D+01
     44  0.130610D+00 -0.475029D-02  0.268853D-01  0.923492D-02 -0.245148D+00
     45  0.693877D-01 -0.547135D-02  0.283360D-01  0.768295D-03 -0.759412D+00
     46 -0.559324D-02 -0.570842D-03  0.150851D-02 -0.499055D-03 -0.603297D-01
     47 -0.153847D-01 -0.120097D-03 -0.709885D-02 -0.317348D-04 -0.563172D-02
     48  0.294663D-01 -0.109138D-02  0.786951D-02  0.149661D-02  0.780930D-02
               41            42            43            44            45
     41  0.594088D+01
     42  0.114791D+01  0.320336D+01
     43 -0.222458D+00 -0.789851D+00  0.823457D+01
     44 -0.235686D+01  0.105123D+01  0.141306D+01  0.593612D+01
     45  0.925585D+00  0.997228D+00  0.111388D+01  0.684964D+00  0.297536D+01
     46 -0.209507D-01  0.577522D-01 -0.559964D+01 -0.122368D+01  0.540946D+00
     47 -0.431492D-02 -0.151135D+00 -0.127703D+01 -0.280008D+01 -0.155884D+01
     48 -0.401997D-01  0.375972D-01  0.649781D+00 -0.176278D+01 -0.489064D+01
               46            47            48
     46  0.571558D+01
     47  0.125076D+01  0.279548D+01
     48 -0.616507D+00  0.186342D+01  0.474598D+01
 ReadGW:  IGet=0 IStart=         114 Next=        7248 LGW=        7134.
 ICntrl=12127.
 Symmetry not used in FoFDir.
 MinBra= 0 MaxBra= 2 Meth= 1.
 IRaf=       0 NMat=   1 IRICut=       1 DoRegI=T DoRafI=F ISym2E= 0 JSym2E=0.
 PrsmSu:  NPrtUS=   8 ThrOK=T
 PRISM was handed    16288736 working-precision words and  2428 shell-pairs
 PRISM was handed    16288736 working-precision words and  2428 shell-pairs
 PRISM was handed    16288736 working-precision words and  2428 shell-pairs
 PRISM was handed    16288736 working-precision words and  2428 shell-pairs
 PRISM was handed    16288736 working-precision words and  2428 shell-pairs
 PRISM was handed    16288736 working-precision words and  2428 shell-pairs
 PRISM was handed    16288736 working-precision words and  2428 shell-pairs
 PRISM was handed    16288736 working-precision words and  2428 shell-pairs
 Pruned (  75, 302) grid will be used in CalDFT.
 CkSvGd:  ISavGI=        -1 IRadAn=       4 IRASav=       4 ISavGd=        -1.
 CalDSu:  NPrtUS=   8 ThrOK=T
 IPart= 0 IRanGd=          0 ScrnBf=T ScrnGd=T RCrit=4.00D+00 DoMicB=T.
 IPart= 4 IRanGd=          0 ScrnBf=T ScrnGd=T RCrit=4.00D+00 DoMicB=T.
 CutRad = 1000.00    CtRdIn =    0.00    XCrit =  15.00   ICut = 0
 IPart= 1 IRanGd=          0 ScrnBf=T ScrnGd=T RCrit=4.00D+00 DoMicB=T.
 IPart= 5 IRanGd=          0 ScrnBf=T ScrnGd=T RCrit=4.00D+00 DoMicB=T.
 IPart= 3 IRanGd=          0 ScrnBf=T ScrnGd=T RCrit=4.00D+00 DoMicB=T.
 CutRad = 1000.00    CtRdIn =    0.00    XCrit =  15.00   ICut = 0
 IPart= 2 IRanGd=          0 ScrnBf=T ScrnGd=T RCrit=4.00D+00 DoMicB=T.
 IPart= 6 IRanGd=          0 ScrnBf=T ScrnGd=T RCrit=4.00D+00 DoMicB=T.
 CutRad = 1000.00    CtRdIn =    0.00    XCrit =  15.00   ICut = 0
 CutRad = 1000.00    CtRdIn =    0.00    XCrit =  15.00   ICut = 0
 IPart= 7 IRanGd=          0 ScrnBf=T ScrnGd=T RCrit=4.00D+00 DoMicB=T.
 CutRad = 1000.00    CtRdIn =    0.00    XCrit =  15.00   ICut = 0
 CutRad = 1000.00    CtRdIn =    0.00    XCrit =  15.00   ICut = 0
 CutRad = 1000.00    CtRdIn =    0.00    XCrit =  15.00   ICut = 0
 CutRad = 1000.00    CtRdIn =    0.00    XCrit =  15.00   ICut = 0
 IPart= 1        13619 of        16238 points in      36 batches and      109 microbatches, Max-NSigAt=      16 Max-NSgAt2=      16
 IPart= 6        15769 of        17898 points in      37 batches and      112 microbatches, Max-NSigAt=      16 Max-NSgAt2=      16
 IPart= 3        14830 of        16880 points in      34 batches and       98 microbatches, Max-NSigAt=      16 Max-NSgAt2=      16
 IPart= 7        12214 of        14204 points in      30 batches and       88 microbatches, Max-NSigAt=      16 Max-NSgAt2=      16
 IPart= 4        14772 of        16660 points in      34 batches and       96 microbatches, Max-NSigAt=      16 Max-NSgAt2=      16
 IPart= 5        12882 of        14608 points in      30 batches and       93 microbatches, Max-NSigAt=      16 Max-NSgAt2=      16
 IPart= 0        15217 of        16890 points in      34 batches and      112 microbatches, Max-NSigAt=      16 Max-NSgAt2=      16
 IPart= 2        13327 of        14850 points in      30 batches and       95 microbatches, Max-NSigAt=      16 Max-NSgAt2=      16
 Polarizability after L703:
                1             2             3
      1  0.554178D+02
      2 -0.348685D+01  0.647395D+02
      3 -0.173856D+02  0.101877D+02  0.101272D+03
 Dipole Derivatives after L703:
               1            2            3            4            5
      1 0.394212D+00-0.529213D-02-0.103553D-01-0.163250D+00-0.156923D-01
      2 0.129217D+00 0.630558D+00-0.579526D-01-0.898934D-01-0.262506D-01
      3 0.920103D-01 0.187940D+00 0.269768D+00-0.736339D-01-0.550061D-02
               6            7            8            9           10
      1-0.657259D-01-0.207718D-01 0.576272D-01 0.853382D-02 0.131280D+00
      2-0.186920D-01 0.990541D-01-0.128857D+00-0.381196D-01-0.631571D-01
      3 0.499351D-02 0.302003D-01-0.287378D-01 0.321238D-01-0.595232D-01
              11           12           13           14           15
      1 0.116921D+00-0.385787D-01-0.115468D+00 0.120824D-01-0.469828D-01
      2-0.736959D-01-0.515913D-01 0.274668D-01 0.258695D-01 0.315901D-01
      3-0.329427D+00 0.148205D+00-0.542336D-01 0.460105D-01-0.612722D-02
              16           17           18           19           20
      1 0.375169D-01-0.513861D-01 0.178190D-01 0.431265D-01-0.309795D-01
      2-0.393824D-02 0.879978D-01 0.487403D-01 0.445415D-02-0.150877D+00
      3-0.699227D-02 0.822662D-01 0.137374D+00 0.518715D-01 0.451298D-01
              21           22           23           24           25
      1 0.193822D-01 0.473595D-01-0.882018D-02 0.221545D-01-0.735822D-01
      2-0.266121D-01-0.364613D-01 0.435750D-01-0.157692D-01 0.268920D-01
      3 0.478935D-01-0.192019D-01-0.822026D-01-0.147061D+00-0.293476D-01
              26           27           28           29           30
      1 0.696770D-01-0.727285D-01 0.870194D+00-0.255988D+00 0.289651D+00
      2 0.538175D-01 0.255884D-01-0.620172D+00 0.607879D+00-0.158387D+00
      3 0.115327D-01 0.197214D-01-0.560804D+00 0.646862D-01-0.645510D+00
              31           32           33           34           35
      1-0.393880D-01-0.677035D-01-0.363691D-01-0.965684D+00 0.438885D+00
      2-0.140725D-01-0.625432D-01-0.921703D-01 0.803525D+00-0.781565D+00
      3-0.317748D-01 0.120844D-01 0.527193D-02 0.750443D+00-0.436780D+00
              36           37           38           39           40
      1-0.571994D-01 0.272537D+00-0.784575D-01-0.342127D-02-0.223069D+00
      2-0.365694D-01-0.935857D-01 0.305956D+00 0.501486D-01-0.277967D+00
      3-0.307402D+00 0.879670D-02 0.114359D+00 0.357062D+00-0.449166D+00
              41           42           43           44           45
      1-0.323708D+00-0.527496D+00-0.465784D+00 0.209955D-01 0.530402D+00
      2-0.249826D+00 0.912020D+00 0.201259D-01-0.387192D+00-0.612334D+00
      3 0.790186D+00 0.177721D+01 0.322105D+00-0.398507D+00-0.198774D+01
              46           47           48
      1 0.270771D+00 0.121839D+00-0.290848D-01
      2 0.885126D-01 0.105153D+00 0.401108D-01
      3 0.292497D-01-0.730384D-01 0.294220D+00
 Hessian after L703:
                1             2             3             4             5
      1  0.574547D+00
      2 -0.551148D-01  0.517429D+00
      3  0.339190D-01  0.686991D-01  0.448833D+00
      4 -0.255820D+00 -0.139714D-01 -0.891438D-01  0.278305D+00
      5 -0.133167D-01 -0.505976D-01 -0.112944D-01  0.302309D-01  0.610736D-01
      6 -0.907017D-01 -0.133318D-01 -0.878310D-01  0.951626D-01  0.978909D-02
      7 -0.148051D+00  0.122671D+00  0.347414D-01 -0.165145D-01  0.225518D-01
      8  0.117155D+00 -0.195450D+00 -0.446039D-01 -0.338326D-03  0.482956D-02
      9  0.343316D-01 -0.494510D-01 -0.612101D-01 -0.921205D-02  0.897623D-02
     10 -0.783300D-01  0.643923D-02 -0.810632D-02  0.139227D-02 -0.462692D-02
     11  0.978122D-02 -0.641063D-01 -0.283386D-01  0.915979D-03 -0.228133D-03
     12 -0.471677D-02 -0.295728D-01 -0.165530D+00  0.114918D-02 -0.225027D-02
     13 -0.100390D-02 -0.872787D-03 -0.111842D-03  0.103478D-02 -0.238488D-03
     14 -0.103126D-01  0.229325D-02 -0.661931D-02 -0.310033D-03  0.212530D-03
     15 -0.293879D-01  0.702781D-02 -0.177187D-01  0.889891D-03 -0.313024D-03
     16 -0.107169D-02  0.653621D-03  0.411725D-02  0.968049D-03 -0.173859D-03
     17  0.690354D-02  0.350584D-02  0.318504D-03 -0.936302D-04  0.850738D-03
     18  0.244958D-01  0.121063D-01 -0.165263D-01  0.718307D-03  0.640888D-03
     19  0.100041D-02 -0.144111D-03 -0.425502D-03  0.365966D-04  0.262077D-03
     20 -0.240237D-03 -0.279964D-03 -0.384236D-03  0.167772D-03  0.259512D-04
     21 -0.440269D-03  0.611049D-03  0.699107D-03 -0.287879D-03  0.000000D+00
     22 -0.368484D-02 -0.285604D-02 -0.565426D-04  0.328526D-03 -0.322541D-04
     23 -0.218457D-02 -0.145429D-03  0.769325D-03  0.569171D-05 -0.191469D-03
     24  0.229074D-02  0.857217D-03  0.115809D-02  0.154032D-03  0.219952D-03
     25  0.183688D-03 -0.246897D-03 -0.176369D-02  0.573160D-03  0.235480D-03
     26  0.879154D-03  0.361113D-03 -0.323821D-03  0.820903D-04  0.593502D-04
     27  0.140424D-02 -0.308464D-03  0.182403D-02 -0.475204D-03 -0.190009D-03
     28  0.868066D-02  0.420828D-02 -0.852676D-03 -0.187565D-02 -0.195535D-02
     29 -0.329951D-03 -0.347871D-01 -0.232329D-01 -0.126485D-04  0.315099D-03
     30  0.579247D-02 -0.285088D-01 -0.337036D-02 -0.739073D-03 -0.101273D-02
     31 -0.378183D-05 -0.493487D-03  0.622915D-03  0.147143D-03  0.156236D-03
     32 -0.797378D-03 -0.404216D-02  0.198686D-02  0.979963D-04  0.174151D-03
     33  0.937355D-03 -0.200759D-03 -0.702360D-03 -0.261567D-03  0.237942D-04
     34 -0.466487D-02 -0.868227D-02  0.134974D-03  0.161675D-02  0.214532D-02
     35  0.241450D-02  0.423626D-02  0.129985D-02 -0.614076D-03 -0.964154D-03
     36 -0.313945D-03 -0.623261D-03 -0.208428D-02  0.384373D-03  0.116177D-03
     37  0.261218D-04  0.978410D-04 -0.299571D-03 -0.176816D-04 -0.120591D-04
     38 -0.570893D-03 -0.120583D-02  0.209454D-03  0.113913D-03  0.211396D-03
     39 -0.798008D-03  0.369193D-03  0.504766D-03  0.125517D-03  0.453220D-04
     40 -0.887135D-01 -0.506194D-01  0.178515D-01 -0.119335D-01 -0.373133D-01
     41 -0.548287D-01 -0.187979D+00  0.243974D-01 -0.163181D-01 -0.148553D-01
     42  0.137652D-01  0.217323D-01 -0.779020D-01  0.390648D-02 -0.139231D-02
     43 -0.373202D-02 -0.156764D-02  0.725734D-02  0.215223D-02  0.247887D-02
     44  0.248935D-03  0.134125D-01  0.180285D-01  0.717576D-04 -0.915356D-03
     45  0.917751D-02  0.116763D-01 -0.151763D-01 -0.223187D-02 -0.337747D-02
     46  0.637263D-03  0.499210D-03  0.211559D-02 -0.392817D-03 -0.391828D-03
     47  0.313856D-03 -0.264481D-02 -0.911714D-03 -0.278867D-04  0.000000D+00
     48  0.244684D-03 -0.108239D-02 -0.496780D-02 -0.138878D-03  0.197322D-04
                6             7             8             9            10
      6  0.919129D-01
      7  0.663878D-02  0.149482D+00
      8 -0.457289D-03 -0.124843D+00  0.225768D+00
      9  0.464951D-02 -0.364329D-01  0.485322D-01  0.639160D-01
     10 -0.273577D-01  0.443644D-03  0.208826D-02  0.162226D-01  0.567258D+00
     11 -0.142207D-02 -0.195489D-02 -0.794788D-03 -0.231767D-01 -0.285956D-01
     12 -0.143205D-01 -0.349406D-02 -0.709892D-03 -0.514269D-02  0.415467D-01
     13 -0.396087D-04  0.118766D-02 -0.393283D-03  0.187239D-03 -0.236924D+00
     14 -0.253357D-02 -0.422674D-03  0.448620D-03  0.414955D-03  0.636549D-01
     15 -0.486514D-02  0.211452D-03 -0.166491D-03  0.161283D-02 -0.910521D-01
     16 -0.173248D-02 -0.133876D-03 -0.193657D-03 -0.633023D-03 -0.143146D+00
     17  0.129190D-04  0.255547D-03 -0.188867D-03 -0.615896D-03 -0.280015D-01
     18  0.205196D-02  0.435034D-03 -0.721574D-03 -0.796558D-03  0.398036D-01
     19  0.112381D-03 -0.125159D-03  0.207843D-03  0.257776D-03 -0.436298D-03
     20  0.347307D-03 -0.140063D-03  0.101827D-03  0.449534D-03  0.432315D-03
     21 -0.161744D-03  0.212079D-03 -0.109884D-03 -0.804126D-04 -0.646425D-03
     22  0.233709D-03  0.971092D-04  0.185380D-03  0.194384D-03  0.101315D-02
     23 -0.441422D-04 -0.220313D-03 -0.163805D-04  0.454123D-03  0.149838D-02
     24  0.491489D-03  0.220922D-03 -0.978509D-04 -0.372479D-03 -0.140925D-02
     25  0.105963D-02  0.346246D-03  0.496019D-05 -0.291572D-04 -0.241874D-01
     26 -0.183205D-03 -0.395220D-04  0.165414D-04 -0.789217D-04 -0.124579D-01
     27 -0.270370D-03 -0.104364D-03  0.866107D-04 -0.484344D-04  0.154287D-01
     28 -0.394119D-03  0.774285D-04 -0.173862D-02 -0.515486D-03 -0.863016D-01
     29  0.177838D-02 -0.381293D-03 -0.120137D-02 -0.137278D-02 -0.201575D-01
     30  0.179877D-03 -0.999901D-03  0.185480D-04 -0.463560D-02 -0.111887D-01
     31  0.856483D-04 -0.285575D-04  0.167219D-03 -0.781655D-04  0.423728D-02
     32 -0.380401D-03  0.466230D-04  0.672445D-04 -0.762742D-03 -0.175604D-01
     33  0.346927D-03  0.686735D-04 -0.406209D-03 -0.331251D-03  0.323494D-02
     34  0.878127D-03  0.678833D-03  0.149470D-02 -0.163098D-04  0.261330D-02
     35 -0.559528D-03 -0.486902D-03 -0.315282D-03 -0.481653D-03  0.373630D-01
     36 -0.228320D-03 -0.600434D-04 -0.371938D-03  0.458343D-03 -0.352502D-02
     37  0.982663D-04  0.393194D-04 -0.137394D-03  0.114215D-03 -0.576526D-02
     38 -0.435079D-05 -0.642402D-04  0.210281D-03 -0.594869D-04  0.462030D-02
     39  0.250885D-04  0.456162D-04  0.104982D-03  0.119763D-03 -0.405381D-03
     40  0.167783D-01  0.125457D-01  0.626717D-02 -0.416482D-02 -0.409240D-02
     41  0.637832D-02 -0.157071D-01 -0.346210D-01  0.155826D-01 -0.566496D-03
     42  0.507138D-02  0.348148D-03  0.276862D-02  0.961330D-03  0.304605D-01
     43 -0.944303D-03  0.277713D-03  0.942013D-04 -0.435363D-03  0.289083D-02
     44  0.297351D-03 -0.680609D-03  0.532302D-03  0.153168D-02 -0.444352D-02
     45  0.278126D-02 -0.187853D-02 -0.309486D-02  0.983795D-03 -0.419874D-02
     46  0.122437D-03 -0.323046D-03 -0.201120D-04  0.209453D-03 -0.665469D-03
     47  0.312973D-03 -0.584101D-03  0.613048D-03  0.578111D-04  0.313458D-03
     48  0.166687D-03  0.476846D-04 -0.771045D-03 -0.839864D-04  0.119265D-02
               11            12            13            14            15
     11  0.467872D+00
     12 -0.473448D-01  0.463923D+00
     13  0.662223D-01 -0.921922D-01  0.257721D+00
     14 -0.713685D-01  0.341712D-01 -0.699463D-01  0.813409D-01
     15  0.351496D-01 -0.898090D-01  0.976855D-01 -0.336850D-01  0.102158D+00
     16 -0.250283D-01  0.397722D-01 -0.222222D-01 -0.123468D-01  0.166253D-01
     17 -0.904381D-01  0.194324D-01  0.700271D-02  0.427929D-02 -0.599288D-02
     18  0.170638D-01 -0.103060D+00 -0.886904D-02 -0.585996D-02  0.702363D-02
     19 -0.280428D-01 -0.119128D-02  0.807160D-03  0.251964D-03 -0.895706D-03
     20 -0.114015D-01 -0.555542D-03 -0.395713D-03  0.449972D-03 -0.202327D-03
     21  0.183251D-01 -0.105555D-03 -0.379917D-03 -0.589620D-03  0.480638D-03
     22  0.771872D-02  0.269268D-01  0.863382D-03  0.757366D-03 -0.404829D-03
     23  0.242850D-02  0.137772D-01  0.432049D-03  0.322451D-03 -0.502157D-03
     24 -0.359678D-02 -0.154951D-01  0.385535D-03 -0.208020D-03  0.739300D-03
     25  0.734579D-02 -0.894692D-02 -0.261098D-02 -0.250492D-02  0.329794D-02
     26  0.437582D-02 -0.550202D-02 -0.244064D-02 -0.655377D-03  0.169410D-02
     27 -0.715684D-02  0.606312D-02  0.301878D-02  0.140296D-02 -0.133051D-02
     28 -0.133054D-01 -0.725144D-02 -0.160969D-02  0.319906D-01  0.101722D-02
     29 -0.205361D+00  0.153494D-01  0.359189D-04 -0.963235D-02 -0.154146D-02
     30 -0.964667D-02 -0.389024D-01  0.474459D-04  0.121575D-01  0.823056D-03
     31  0.408364D-02 -0.138111D-02  0.898444D-03 -0.233064D-03  0.928496D-04
     32 -0.525982D-02 -0.790518D-02  0.549577D-04  0.574020D-03  0.455778D-03
     33  0.277728D-02  0.382060D-02  0.615320D-03 -0.833426D-03  0.473306D-03
     34  0.129190D-01 -0.301047D-03  0.134389D-02 -0.157726D-02  0.262636D-03
     35 -0.203145D-01  0.351116D-02  0.811645D-04 -0.715235D-02 -0.482701D-03
     36  0.447244D-02 -0.317776D-02 -0.342668D-03  0.187868D-02  0.956126D-04
     37  0.640478D-03 -0.926459D-03 -0.402834D-04  0.151056D-02  0.544094D-04
     38  0.189130D-02  0.206767D-02 -0.129903D-03 -0.119063D-02 -0.339185D-03
     39  0.223479D-03  0.348714D-02 -0.142079D-03 -0.346164D-04  0.600122D-04
     40 -0.187542D-01  0.108014D-01  0.679887D-03 -0.353887D-03  0.123470D-02
     41  0.368183D-03  0.100400D-02  0.346912D-03 -0.320357D-03 -0.138773D-02
     42  0.671523D-01 -0.430340D-01 -0.440871D-04 -0.781445D-03 -0.577706D-03
     43  0.606454D-02 -0.513446D-03 -0.117487D-03 -0.136392D-03  0.474680D-03
     44 -0.802008D-02  0.465207D-02  0.247544D-03  0.360360D-03  0.351706D-03
     45 -0.249218D-01  0.216241D-02  0.247628D-03  0.119017D-02  0.751564D-03
     46 -0.104550D-04  0.718452D-03 -0.806663D-05 -0.214145D-04 -0.106010D-03
     47  0.356856D-03 -0.124674D-03 -0.642899D-05  0.381464D-04 -0.659511D-04
     48  0.440295D-03 -0.880240D-03 -0.660078D-04 -0.704364D-04  0.831627D-04
               16            17            18            19            20
     16  0.502990D+00
     17 -0.350623D-01  0.549012D+00
     18  0.449423D-01  0.216055D-01  0.539140D+00
     19 -0.463394D-01  0.449597D-02 -0.176229D-03  0.491322D-01
     20  0.425798D-02 -0.306282D+00 -0.170381D-01 -0.271919D-02  0.333137D+00
     21 -0.117740D-03 -0.177753D-01 -0.482907D-01 -0.262317D-02  0.178855D-01
     22 -0.483088D-01 -0.421548D-02 -0.168266D-01 -0.106175D-02  0.479517D-03
     23 -0.408569D-02 -0.643402D-01 -0.651469D-01 -0.226584D-02 -0.720293D-02
     24 -0.161224D-01 -0.645983D-01 -0.289157D+00 -0.320254D-03 -0.623282D-03
     25 -0.244085D+00  0.772266D-01 -0.846555D-01  0.897928D-03  0.220942D-04
     26  0.794688D-01 -0.772517D-01  0.334052D-01  0.281439D-01 -0.981075D-02
     27 -0.860607D-01  0.329792D-01 -0.845777D-01  0.323206D-02 -0.972077D-03
     28  0.225648D-02 -0.280780D-01 -0.132973D-02 -0.527527D-02 -0.147908D-02
     29 -0.985240D-02 -0.188131D-01  0.578627D-02 -0.734581D-04  0.664889D-03
     30  0.183067D-02  0.174232D-01  0.215980D-02  0.274632D-02  0.144948D-02
     31 -0.213007D-03  0.543231D-03  0.263731D-03  0.145536D-03  0.844849D-04
     32  0.119311D-02 -0.287089D-02 -0.175951D-02 -0.893261D-03 -0.381572D-03
     33  0.648847D-03  0.114416D-02 -0.485572D-03  0.172434D-03  0.258345D-03
     34 -0.162695D-02 -0.912212D-03 -0.907347D-03  0.862996D-03 -0.644725D-03
     35  0.913651D-03  0.155850D-02  0.523918D-03  0.475982D-03  0.543434D-03
     36 -0.492038D-03 -0.239461D-03  0.424593D-03 -0.343697D-03 -0.238287D-03
     37 -0.428733D-03 -0.874750D-03 -0.185070D-03  0.214952D-03 -0.166302D-03
     38  0.202487D-03  0.729246D-03 -0.401206D-03  0.776416D-04  0.681965D-04
     39 -0.174714D-03 -0.455416D-03  0.147779D-03 -0.112747D-03 -0.545015D-04
     40  0.146657D-02  0.175974D-02  0.323788D-02  0.454704D-03  0.752700D-03
     41 -0.390997D-03 -0.185835D-02 -0.267462D-02 -0.280771D-03 -0.220734D-03
     42 -0.230910D-02 -0.661874D-02 -0.121595D-01 -0.176437D-02 -0.207027D-02
     43 -0.230244D-03 -0.977940D-03 -0.112005D-02 -0.296148D-03 -0.380228D-03
     44  0.591974D-03  0.210357D-02  0.259689D-02  0.449866D-03  0.517916D-03
     45 -0.186339D-03  0.373640D-02  0.449661D-02  0.137695D-02  0.179879D-02
     46  0.125323D-03  0.284190D-04  0.172804D-03 -0.185208D-04 -0.313245D-04
     47 -0.147675D-03  0.437047D-05 -0.126932D-03  0.542011D-04  0.700361D-04
     48 -0.108096D-03 -0.356331D-03 -0.391477D-03 -0.449659D-04 -0.503932D-04
               21            22            23            24            25
     21  0.487621D-01
     22  0.719016D-03  0.505701D-01
     23 -0.317957D-01  0.633308D-02  0.655946D-01
     24 -0.773236D-03  0.151024D-01  0.705194D-01  0.314856D+00
     25  0.721288D-03 -0.617708D-03 -0.696499D-04 -0.556002D-03  0.268010D+00
     26  0.125784D-01 -0.877425D-02  0.254813D-02 -0.322219D-02 -0.842973D-01
     27  0.733224D-04 -0.269159D-01  0.114185D-01 -0.107622D-01  0.912813D-01
     28  0.313703D-02  0.642353D-03  0.281472D-03  0.814859D-03 -0.151258D-02
     29  0.756817D-03  0.510068D-03  0.967407D-03 -0.906925D-03  0.250185D-02
     30 -0.719129D-03 -0.182235D-02 -0.787327D-03  0.999575D-03 -0.611335D-03
     31 -0.455892D-04 -0.773582D-04 -0.575415D-04  0.182154D-04  0.171695D-03
     32  0.715812D-03 -0.734533D-05  0.106173D-03  0.248917D-03 -0.151533D-03
     33 -0.318326D-03  0.159406D-04  0.117453D-03 -0.104764D-03 -0.656906D-04
[...]
    Z6        4.41512   0.00000   0.00000   0.00004  -0.00002   4.41510
    X7       -3.56635   0.00000   0.00000   0.00001   0.00000  -3.56635
    Y7       -1.82117   0.00000   0.00000  -0.00004  -0.00003  -1.82120
    Z7        4.29180   0.00000   0.00000  -0.00010  -0.00017   4.29163
    X8       -3.47163   0.00000   0.00000   0.00020   0.00010  -3.47153
    Y8        0.76093   0.00000   0.00000  -0.00020  -0.00019   0.76074
    Z8        6.41211   0.00000   0.00000   0.00007   0.00001   6.41212
    X9       -5.37112   0.00000   0.00000  -0.00002  -0.00002  -5.37113
    Y9        0.92585   0.00000   0.00000   0.00002   0.00002   0.92587
    Z9        3.66640   0.00000   0.00000   0.00023   0.00010   3.66649
   X10       -1.27326   0.00000   0.00000  -0.00002   0.00000  -1.27326
   Y10        4.17936   0.00000   0.00000   0.00001   0.00003   4.17939
   Z10        2.75090   0.00000   0.00000   0.00000   0.00002   2.75092
   X11        0.35629   0.00000   0.00000  -0.00008  -0.00009   0.35620
   Y11        5.28068   0.00000   0.00000   0.00000   0.00003   5.28072
   Z11        3.32355   0.00000   0.00000   0.00020   0.00028   3.32383
   X12       -3.52686   0.00000   0.00000  -0.00001   0.00001  -3.52685
   Y12        5.37197   0.00000   0.00000   0.00001   0.00002   5.37199
   Z12        2.62200   0.00000   0.00000  -0.00018  -0.00024   2.62176
   X13       -3.26558   0.00000   0.00000   0.00001   0.00003  -3.26556
   Y13        7.15337   0.00000   0.00000   0.00004   0.00005   7.15342
   Z13        2.35684   0.00000   0.00000   0.00002  -0.00004   2.35681
   X14       -0.17523   0.00000   0.00000   0.00021   0.00037  -0.17486
   Y14        2.93727   0.00000   0.00000   0.00000   0.00002   2.93729
   Z14       -0.87717   0.00000   0.00000   0.00010   0.00016  -0.87701
   X15        0.51319   0.00000   0.00000   0.00052   0.00079   0.51398
   Y15        2.01428   0.00000   0.00000   0.00011   0.00014   2.01442
   Z15       -3.86189   0.00000   0.00000   0.00010   0.00019  -3.86170
   X16       -0.06168   0.00000   0.00000  -0.00128  -0.00099  -0.06267
   Y16        3.57025   0.00000   0.00000  -0.00064  -0.00061   3.56964
   Z16       -4.62388   0.00000   0.00000  -0.00007   0.00000  -4.62388
         Item               Value     Threshold  Converged?
 Maximum Force            0.000004     0.000450     YES
 RMS     Force            0.000002     0.000300     YES
 Maximum Displacement     0.000990     0.001800     YES
 RMS     Displacement     0.000237     0.001200     YES
 Predicted change in Energy=-1.689245D-09
 Optimization completed.
    -- Stationary point found.
 GradGradGradGradGradGradGradGradGradGradGradGradGradGradGradGradGradGrad


 Test job not archived.
 1\1\GINC-NODE48\Freq\UB3LYP\CBSB7\C4H9O3(2)\SHAMEL\18-Jun-2013\0\\# fr
 eq nosymm b3lyp/cbsb7 iop(7/33=1)\\Title Card Required\\0,2\C,-0.68024
 7,0.354105,0.05873\H,-1.683827,0.203341,-0.357451\H,-0.059201,-0.51198
 5,-0.183066\C,-0.714637,0.709857,1.549832\H,0.228546,0.393148,2.004801
 \C,-1.891851,0.127787,2.336383\H,-1.887232,-0.963722,2.271123\H,-1.837
 108,0.402668,3.393144\H,-2.842272,0.489938,1.940174\C,-0.673782,2.2116
 22,1.455715\H,0.18854,2.794418,1.758749\O,-1.866335,2.842723,1.387505\
 H,-1.728073,3.785402,1.247187\O,-0.092728,1.554335,-0.464178\O,0.27156
 9,1.065913,-2.043626\H,-0.032642,1.889297,-2.446852\\Version=AM64L-G03
 RevD.01\HF=-383.4415695\S2=0.781063\S2-1=0.\S2A=0.750158\RMSD=4.157e-0
 9\RMSF=1.585e-06\ZeroPoint=0.1290314\Thermal=0.1379774\Dipole=-0.41967
 23,0.8558884,0.9770221\DipoleDeriv=0.3942119,0.1292168,0.0920103,-0.00
 52921,0.6305584,0.1879401,-0.0103553,-0.0579526,0.269768,-0.1632501,-0
 .0898934,-0.0736339,-0.0156923,-0.0262506,-0.0055006,-0.0657259,-0.018
 692,0.0049935,-0.0207718,0.0990541,0.0302003,0.0576272,-0.1288575,-0.0
 287378,0.0085338,-0.0381196,0.0321238,0.1312804,-0.0631571,-0.0595232,
 0.116921,-0.0736959,-0.3294272,-0.0385787,-0.0515913,0.148205,-0.11546
 82,0.0274668,-0.0542336,0.0120824,0.0258695,0.0460105,-0.0469828,0.031
 5901,-0.0061272,0.0375169,-0.0039382,-0.0069923,-0.0513861,0.0879978,0
 .0822662,0.017819,0.0487403,0.137374,0.0431265,0.0044541,0.0518715,-0.
 0309795,-0.1508766,0.0451298,0.0193822,-0.0266121,0.0478935,0.0473595,
 -0.0364613,-0.0192019,-0.0088202,0.043575,-0.0822026,0.0221545,-0.0157
 692,-0.1470612,-0.0735822,0.026892,-0.0293476,0.069677,0.0538175,0.011
 5327,-0.0727285,0.0255884,0.0197214,0.8701944,-0.6201715,-0.5608039,-0
 .2559881,0.6078792,0.0646862,0.2896508,-0.1583874,-0.6455105,-0.039388
 ,-0.0140725,-0.0317748,-0.0677035,-0.0625432,0.0120844,-0.0363691,-0.0
 921703,0.0052719,-0.9656845,0.8035246,0.7504431,0.4388849,-0.7815651,-
 0.4367803,-0.0571994,-0.0365694,-0.3074024,0.2725375,-0.0935857,0.0087
 967,-0.0784575,0.3059559,0.1143588,-0.0034213,0.0501486,0.3570621,-0.2
 23069,-0.2779671,-0.4491656,-0.3237079,-0.2498256,0.7901857,-0.5274964
 ,0.91202,1.7772125,-0.4657844,0.0201259,0.3221053,0.0209955,-0.3871916
 ,-0.3985075,0.5304019,-0.6123341,-1.987745,0.2707713,0.0885126,0.02924
 97,0.1218392,0.1051527,-0.0730384,-0.0290848,0.0401108,0.2942205\Polar
 =55.4178037,-3.4868478,64.7394777,-17.3855942,10.1876717,101.2717108\P
 G=C01 [X(C4H9O3)]\NImag=1\\0.57454739,-0.05511483,0.51742911,0.0339190
 2,0.06869911,0.44883295,-0.25582030,-0.01397142,-0.08914385,0.27830499
 ,-0.01331668,-0.05059763,-0.01129438,0.03023094,0.06107358,-0.09070167
 ,-0.01333180,-0.08783105,0.09516259,0.00978909,0.09191292,-0.14805064,
 0.12267067,0.03474138,-0.01651450,0.02255183,0.00663878,0.14948216,0.1
 1715463,-0.19544997,-0.04460394,-0.00033833,0.00482956,-0.00045729,-0.
 12484297,0.22576821,0.03433158,-0.04945100,-0.06121013,-0.00921205,0.0
 0897623,0.00464951,-0.03643286,0.04853221,0.06391598,-0.07832997,0.006
 43923,-0.00810632,0.00139227,-0.00462692,-0.02735770,0.00044364,0.0020
 8826,0.01622259,0.56725789,0.00978122,-0.06410630,-0.02833862,0.000915
 98,-0.00022813,-0.00142207,-0.00195489,-0.00079479,-0.02317668,-0.0285
 9563,0.46787177,-0.00471677,-0.02957279,-0.16552979,0.00114918,-0.0022
 5027,-0.01432047,-0.00349406,-0.00070989,-0.00514269,0.04154669,-0.047
 34477,0.46392334,-0.00100390,-0.00087279,-0.00011184,0.00103478,-0.000
 23849,-0.00003961,0.00118766,-0.00039328,0.00018724,-0.23692390,0.0662
 2233,-0.09219220,0.25772128,-0.01031257,0.00229325,-0.00661931,-0.0003
 1003,0.00021253,-0.00253357,-0.00042267,0.00044862,0.00041496,0.063654
 89,-0.07136847,0.03417118,-0.06994633,0.08134090,-0.02938794,0.0070278
 1,-0.01771866,0.00088989,-0.00031302,-0.00486514,0.00021145,-0.0001664
 9,0.00161283,-0.09105211,0.03514955,-0.08980899,0.09768551,-0.03368504
 ,0.10215790,-0.00107169,0.00065362,0.00411725,0.00096805,-0.00017386,-
 0.00173248,-0.00013388,-0.00019366,-0.00063302,-0.14314612,-0.02502835
 ,0.03977222,-0.02222218,-0.01234679,0.01662530,0.50298987,0.00690354,0
 .00350584,0.00031850,-0.00009363,0.00085074,0.00001292,0.00025555,-0.0
 0018887,-0.00061590,-0.02800148,-0.09043807,0.01943242,0.00700271,0.00
 427929,-0.00599288,-0.03506226,0.54901159,0.02449580,0.01210631,-0.016
 52626,0.00071831,0.00064089,0.00205196,0.00043503,-0.00072157,-0.00079
 656,0.03980363,0.01706375,-0.10305961,-0.00886904,-0.00585996,0.007023
 63,0.04494234,0.02160555,0.53914016,0.00100041,-0.00014411,-0.00042550
 ,0.00003660,0.00026208,0.00011238,-0.00012516,0.00020784,0.00025778,-0
 .00043630,-0.02804278,-0.00119128,0.00080716,0.00025196,-0.00089571,-0
 .04633936,0.00449597,-0.00017623,0.04913222,-0.00024024,-0.00027996,-0
 .00038424,0.00016777,0.00002595,0.00034731,-0.00014006,0.00010183,0.00
 044953,0.00043232,-0.01140149,-0.00055554,-0.00039571,0.00044997,-0.00
 020233,0.00425798,-0.30628201,-0.01703806,-0.00271919,0.33313723,-0.00
 044027,0.00061105,0.00069911,-0.00028788,-0.00000100,-0.00016174,0.000
 21208,-0.00010988,-0.00008041,-0.00064642,0.01832510,-0.00010556,-0.00
 037992,-0.00058962,0.00048064,-0.00011774,-0.01777535,-0.04829070,-0.0
 0262317,0.01788551,0.04876209,-0.00368484,-0.00285604,-0.00005654,0.00
 032853,-0.00003225,0.00023371,0.00009711,0.00018538,0.00019438,0.00101
 315,0.00771872,0.02692683,0.00086338,0.00075737,-0.00040483,-0.0483088
 0,-0.00421548,-0.01682659,-0.00106175,0.00047952,0.00071902,0.05057010
 ,-0.00218457,-0.00014543,0.00076933,0.00000569,-0.00019147,-0.00004414
 ,-0.00022031,-0.00001638,0.00045412,0.00149838,0.00242850,0.01377725,0
 .00043205,0.00032245,-0.00050216,-0.00408569,-0.06434016,-0.06514689,-
 0.00226584,-0.00720293,-0.03179568,0.00633308,0.06559464,0.00229074,0.
 00085722,0.00115809,0.00015403,0.00021995,0.00049149,0.00022092,-0.000
 09785,-0.00037248,-0.00140925,-0.00359678,-0.01549506,0.00038553,-0.00
 020802,0.00073930,-0.01612242,-0.06459827,-0.28915712,-0.00032025,-0.0
 0062328,-0.00077324,0.01510240,0.07051944,0.31485642,0.00018369,-0.000
 24690,-0.00176369,0.00057316,0.00023548,0.00105963,0.00034625,0.000004
 96,-0.00002916,-0.02418737,0.00734579,-0.00894692,-0.00261098,-0.00250
 492,0.00329794,-0.24408533,0.07722664,-0.08465546,0.00089793,0.0000220
 9,0.00072129,-0.00061771,-0.00006965,-0.00055600,0.26801040,0.00087915
 ,0.00036111,-0.00032382,0.00008209,0.00005935,-0.00018320,-0.00003952,
 0.00001654,-0.00007892,-0.01245789,0.00437582,-0.00550202,-0.00244064,
 -0.00065538,0.00169410,0.07946884,-0.07725173,0.03340517,0.02814387,-0
 .00981075,0.01257843,-0.00877425,0.00254813,-0.00322219,-0.08429733,0.
 08104931,0.00140424,-0.00030846,0.00182403,-0.00047520,-0.00019001,-0.
 00027037,-0.00010436,0.00008661,-0.00004843,0.01542868,-0.00715684,0.0
 0606312,0.00301878,0.00140296,-0.00133051,-0.08606068,0.03297923,-0.08
 457772,0.00323206,-0.00097208,0.00007332,-0.02691590,0.01141853,-0.010
 76223,0.09128127,-0.03793278,0.08889705,0.00868066,0.00420828,-0.00085
 268,-0.00187565,-0.00195535,-0.00039412,0.00007743,-0.00173862,-0.0005
 1549,-0.08630157,-0.01330544,-0.00725144,-0.00160969,0.03199055,0.0010
 1722,0.00225648,-0.02807803,-0.00132973,-0.00527527,-0.00147908,0.0031
 3703,0.00064235,0.00028147,0.00081486,-0.00151258,-0.00125505,-0.00086
 362,0.62117785,-0.00032995,-0.03478710,-0.02323290,-0.00001265,0.00031
 510,0.00177838,-0.00038129,-0.00120137,-0.00137278,-0.02015751,-0.2053
 6075,0.01534939,0.00003592,-0.00963235,-0.00154146,-0.00985240,-0.0188
 1305,0.00578627,-0.00007346,0.00066489,0.00075682,0.00051007,0.0009674
 1,-0.00090692,0.00250185,0.00106711,0.00001016,0.03129738,0.59451614,0
 .00579247,-0.02850877,-0.00337036,-0.00073907,-0.00101273,0.00017988,-
 0.00099990,0.00001855,-0.00463560,-0.01118872,-0.00964667,-0.03890240,
 0.00004745,0.01215749,0.00082306,0.00183067,0.01742318,0.00215980,0.00
 274632,0.00144948,-0.00071913,-0.00182235,-0.00078733,0.00099958,-0.00
 061133,-0.00079039,0.00049527,0.09593248,0.02899400,0.07831950,-0.0000
 0378,-0.00049349,0.00062291,0.00014714,0.00015624,0.00008565,-0.000028
 56,0.00016722,-0.00007817,0.00423728,0.00408364,-0.00138111,0.00089844
 ,-0.00023306,0.00009285,-0.00021301,0.00054323,0.00026373,0.00014554,0
 .00008448,-0.00004559,-0.00007736,-0.00005754,0.00001822,0.00017169,0.
 00022766,-0.00000454,-0.22419775,-0.12123730,-0.06318802,0.24665980,-0
 .00079738,-0.00404216,0.00198686,0.00009800,0.00017415,-0.00038040,0.0
 0004662,0.00006724,-0.00076274,-0.01756037,-0.00525982,-0.00790518,0.0
 0005496,0.00057402,0.00045578,0.00119311,-0.00287089,-0.00175951,-0.00
 089326,-0.00038157,0.00071581,-0.00000735,0.00010617,0.00024892,-0.000
 15153,0.00000332,-0.00003443,-0.13040273,-0.14948144,-0.04282678,0.124
 23917,0.14588656,0.00093736,-0.00020076,-0.00070236,-0.00026157,0.0000
 2379,0.00034693,0.00006867,-0.00040621,-0.00033125,0.00323494,0.002777
 28,0.00382060,0.00061532,-0.00083343,0.00047331,0.00064885,0.00114416,
 -0.00048557,0.00017243,0.00025835,-0.00031833,0.00001594,0.00011745,-0
 .00010476,-0.00006569,-0.00011217,0.00005031,-0.07613458,-0.04659539,-
 0.04065193,0.07194076,0.04567560,0.03662126,-0.00466487,-0.00868227,0.
 00013497,0.00161675,0.00214532,0.00087813,0.00067883,0.00149470,-0.000
 01631,0.00261330,0.01291901,-0.00030105,0.00134389,-0.00157726,0.00026
 264,-0.00162695,-0.00091221,-0.00090735,0.00086300,-0.00064472,-0.0000
 6127,0.00053539,0.00052119,-0.00130958,0.00164204,0.00033084,0.0005331
 6,-0.29846127,0.07049144,-0.00888188,-0.02948440,0.02327798,0.00106077
 ,0.37736250,0.00241450,0.00423626,0.00129985,-0.00061408,-0.00096415,-
 0.00055953,-0.00048690,-0.00031528,-0.00048165,0.03736298,-0.02031450,
 0.00351116,0.00008116,-0.00715235,-0.00048270,0.00091365,0.00155850,0.
 00052392,0.00047598,0.00054343,-0.00019747,-0.00037200,-0.00048885,0.0
 0111667,-0.00016683,-0.00162145,0.00060382,0.11526225,-0.15510492,0.00
 218653,-0.00742817,0.01046517,0.00133387,-0.03989648,0.65646899,-0.000
 31395,-0.00062326,-0.00208428,0.00038437,0.00011618,-0.00022832,-0.000
 06004,-0.00037194,0.00045834,-0.00352502,0.00447244,-0.00317776,-0.000
 34267,0.00187868,0.00009561,-0.00049204,-0.00023946,0.00042459,-0.0003
 4370,-0.00023829,0.00019335,0.00026274,0.00012312,0.00029454,-0.000039
 35,0.00028123,-0.00041841,-0.01640836,0.00738228,-0.01968252,-0.011521
 81,0.00515091,0.00561029,0.01034303,-0.08257538,0.03646424,0.00002612,
 0.00009784,-0.00029957,-0.00001768,-0.00001206,0.00009827,0.00003932,-
 0.00013739,0.00011422,-0.00576526,0.00064048,-0.00092646,-0.00004028,0
 .00151056,0.00005441,-0.00042873,-0.00087475,-0.00018507,0.00021495,-0
 .00016630,0.00014658,0.00008578,0.00005300,-0.00000031,0.00063847,0.00
 023237,-0.00001146,-0.00078999,0.04847748,-0.00515946,0.00048898,0.000
 12009,-0.00044155,-0.05481245,-0.10832653,0.01512994,0.06059840,-0.000
 57089,-0.00120583,0.00020945,0.00011391,0.00021140,-0.00000435,-0.0000
 6424,0.00021028,-0.00005949,0.00462030,0.00189130,0.00206767,-0.000129
 90,-0.00119063,-0.00033918,0.00020249,0.00072925,-0.00040121,0.0000776
 4,0.00006820,-0.00000652,0.00006012,-0.00003411,-0.00002545,0.00004401
 ,0.00007065,-0.00001922,-0.00357075,-0.02410098,0.00307718,-0.00136664
 ,0.00364080,-0.00031492,-0.05841369,-0.48913460,0.07011147,0.05885293,
 0.50849905,-0.00079801,0.00036919,0.00050477,0.00012552,0.00004532,0.0
 0002509,0.00004562,0.00010498,0.00011976,-0.00040538,0.00022348,0.0034
 8714,-0.00014208,-0.00003462,0.00006001,-0.00017471,-0.00045542,0.0001
 4778,-0.00011275,-0.00005450,-0.00001303,0.00008268,-0.00001883,-0.000
 11940,0.00001626,0.00007533,-0.00008396,0.00053497,0.00159525,-0.00119
 149,0.00164499,0.00042107,-0.00132219,0.00813985,0.06988995,-0.0177768
 5,-0.00890456,-0.07289286,0.01659045,-0.08871353,-0.05061938,0.0178515
 2,-0.01193354,-0.03731331,0.01677832,0.01254567,0.00626717,-0.00416482
 ,-0.00409240,-0.01875416,0.01080135,0.00067989,-0.00035389,0.00123470,
 0.00146657,0.00175974,0.00323788,0.00045470,0.00075270,-0.00044148,-0.
 00068301,-0.00043615,0.00110087,0.00050992,-0.00025026,-0.00048845,-0.
 01916766,-0.00101756,-0.03291705,0.00121792,0.00118296,-0.00262542,0.0
 1006324,-0.00324006,0.00914106,-0.00024954,0.00107403,0.00000198,0.104
 87024,-0.05482872,-0.18797886,0.02439735,-0.01631813,-0.01485526,0.006
 37832,-0.01570710,-0.03462098,0.01558261,-0.00056650,0.00036818,0.0010
 0400,0.00034691,-0.00032036,-0.00138773,-0.00039100,-0.00185835,-0.002
 67462,-0.00028077,-0.00022073,-0.00009609,0.00110149,0.00110401,-0.000
 37624,0.00015241,0.00009704,0.00027632,0.00766702,0.00311646,0.0426340
 1,0.00107802,0.00006218,-0.00190757,-0.01407585,0.00834485,-0.00734211
 ,-0.00039963,-0.00129546,0.00053716,0.10500281,0.25111395,0.01376520,0
 .02173228,-0.07790196,0.00390648,-0.00139231,0.00507138,0.00034815,0.0
 0276862,0.00096133,0.03046050,0.06715230,-0.04303405,-0.00004409,-0.00
 078144,-0.00057771,-0.00230910,-0.00661874,-0.01215949,-0.00176437,-0.
 00207027,0.00082515,0.00367426,0.00204870,-0.00332237,0.00025800,0.000
 80955,0.00042731,0.02206526,0.01391916,0.10291663,0.00129310,-0.002981
 21,-0.00079260,-0.04769668,0.02378242,-0.00468519,0.00040715,-0.005697
 70,-0.00047529,-0.00203311,-0.13056232,-0.02560558,-0.00373202,-0.0015
 6764,0.00725734,0.00215223,0.00247887,-0.00094430,0.00027771,0.0000942
 0,-0.00043536,0.00289083,0.00606454,-0.00051345,-0.00011749,-0.0001363
 9,0.00047468,-0.00023024,-0.00097794,-0.00112005,-0.00029615,-0.000380
 23,0.00009363,0.00037859,0.00022202,-0.00039003,0.00008331,0.00013340,
 0.00000737,0.00554907,0.00009291,0.01853784,0.00009255,-0.00035741,0.0
 0087943,-0.00686510,0.00363407,-0.00189355,-0.00007659,-0.00092640,-0.
 00020583,-0.00781950,-0.00675602,-0.02630078,0.06242444,0.00024894,0.0
 1341247,0.01802846,0.00007176,-0.00091536,0.00029735,-0.00068061,0.000
 53230,0.00153168,-0.00444352,-0.00802008,0.00465207,0.00024754,0.00036
 036,0.00035171,0.00059197,0.00210357,0.00259689,0.00044987,0.00051792,
 -0.00027989,-0.00093281,-0.00065637,0.00072879,-0.00009612,-0.00028895
 ,-0.00017425,-0.00756630,-0.00244727,-0.02280551,0.00017974,0.00099277
 ,-0.00069844,0.01138706,-0.00553621,0.00169544,-0.00009300,0.00140952,
 0.00030586,-0.00247400,-0.03143186,0.02661523,-0.14649757,0.42120751,0
 .00917751,0.01167627,-0.01517629,-0.00223187,-0.00337747,0.00278126,-0
 .00187853,-0.00309486,0.00098380,-0.00419874,-0.02492176,0.00216241,0.
 00024763,0.00119017,0.00075156,-0.00018634,0.00373640,0.00449661,0.001
 37695,0.00179879,-0.00060894,-0.00132197,-0.00104718,0.00158671,-0.000
 00216,-0.00074315,-0.00034251,-0.02117723,-0.00213992,-0.07563364,0.00
 030197,0.00213430,-0.00244223,0.03868965,-0.02031112,0.00427787,-0.000
 13429,0.00454282,0.00030045,-0.01257951,0.03503743,0.07108947,0.060321
 08,-0.18616632,0.10573495,0.00063726,0.00049921,0.00211559,-0.00039282
 ,-0.00039183,0.00012244,-0.00032305,-0.00002011,0.00020945,-0.00066547
 ,-0.00001045,0.00071845,-0.00000807,-0.00002141,-0.00010601,0.00012532
 ,0.00002842,0.00017280,-0.00001852,-0.00003132,0.00001411,-0.00008091,
 -0.00002713,0.00002027,-0.00004289,0.00001673,0.00001867,0.00080758,-0
 .00034493,0.00062056,-0.00005450,-0.00004286,-0.00004566,-0.00080392,0
 .00038645,-0.00032066,0.00008851,-0.00000290,0.00015146,0.00085102,-0.
 00602496,0.00397002,-0.05471164,0.14960703,-0.06640413,0.05459207,0.00
 031386,-0.00264481,-0.00091171,-0.00002789,-0.00000036,0.00031297,-0.0
 0058410,0.00061305,0.00005781,0.00031346,0.00035686,-0.00012467,-0.000
 00643,0.00003815,-0.00006595,-0.00014767,0.00000437,-0.00012693,0.0000
 5420,0.00007004,-0.00002122,0.00004443,0.00000439,-0.00003598,0.000000
 04,-0.00002013,0.00001043,-0.00135562,0.00028214,-0.00156223,0.0000567
 9,0.00006350,-0.00026162,0.00163495,-0.00098488,0.00017870,0.00002493,
 0.00023118,-0.00011137,-0.00158062,0.00837519,-0.00872427,0.14487960,-
 0.39124031,0.18168560,-0.14361993,0.38485163,0.00024468,-0.00108239,-0
 .00496780,-0.00013888,0.00001973,0.00016669,0.00004768,-0.00077105,-0.
 00008399,0.00119265,0.00044029,-0.00088024,-0.00006601,-0.00007044,0.0
 0008316,-0.00010810,-0.00035633,-0.00039148,-0.00004497,-0.00005039,0.
 00003743,0.00013623,0.00011426,-0.00001946,0.00003538,0.00004481,0.000
 00373,0.00142543,0.00021765,-0.00110663,-0.00004495,-0.00013901,0.0002
 2852,-0.00086808,0.00035969,0.00023449,0.00011216,-0.00024770,-0.00025
 323,-0.00489785,0.01849948,-0.01273704,-0.05576803,0.15332094,-0.09996
 147,0.05874263,-0.17029955,0.11964731\\-0.00000076,-0.00000082,0.00000
 034,0.00000077,0.,-0.00000024,-0.00000025,-0.00000144,0.00000166,-0.00
 000044,0.00000015,0.00000001,-0.00000161,-0.00000024,0.00000139,-0.000
 00262,0.00000139,-0.00000135,-0.00000284,0.00000166,0.00000028,-0.0000
 0271,0.00000210,0.00000010,-0.00000087,0.00000180,-0.00000106,0.000000
 69,-0.00000039,0.00000155,0.00000044,-0.00000046,-0.00000041,0.0000003
 7,-0.00000038,-0.00000168,0.00000198,0.00000273,-0.00000231,0.00000200
 ,-0.00000114,-0.00000100,0.00000302,-0.00000372,0.00000287,0.00000283,
 -0.00000123,-0.00000015\\\@


 MANHOOD BEGINS BY TRYING TO SHAVE FACE,
 AND ENDS BY TRYING TO SAVE FACE.
 Job cpu time:  0 days  1 hours  5 minutes 55.8 seconds.
 File lengths (MBytes):  RWF=    125 Int=      0 D2E=      0 Chk=      8 Scr=      1
 Normal termination of Gaussian 03 at Tue Jun 18 10:21:05 2013.
