
 Primary working directories    : /scratch/goldmanm/molpro_scratch
 Secondary working directories  : /scratch/goldmanm/molpro_scratch
 Wavefunction directory         : /home/goldmanm/wfu/
 Main file repository           : /scratch/goldmanm/molpro_scratch/

 SHA1      : 5e3d8ac6839c721e2824de82269b4736200146bd
 NAME      : 2015.1.37
 ARCHNAME  : linux/x86_64
 FC        : /opt/intel/composer_xe_2015.1.133/bin/intel64/ifort
 BLASLIB   : -Wl,-_start-group /opt/intel/mkl/lib/intel64/libmkl_intel_ilp64.a /opt/intel/mkl/lib/intel64/libmkl_intel_thread.a /opt/intel/mkl/lib/intel64/libmkl_core.a -Wl,-_end-group
 id        : phalgunlolur

 Nodes     nprocs
 node02       1

 Using customized tuning parameters: mindgm=1; mindgv=20; mindgc=4; mindgr=1; noblas=0; minvec=7
 default implementation of scratch files=df  

 geomtyp=xyz
 geometry={
 16
 C          1.05231       -0.80734       -0.37565
 H          1.13803       -0.62786       -1.46168
 H          2.00801       -0.55095        0.08762
 C          0.71504       -2.29676       -0.09793
 H          0.58421       -2.36178        0.99458
 C          1.83447       -3.24550       -0.53145
 H          2.75439       -3.03387        0.01813
 H          1.56513       -4.28687       -0.33772
 H          2.04689       -3.14538       -1.60016
 C         -0.58583       -2.59810       -0.75641
 H         -0.78468       -3.47987       -1.35582
 O         -1.56973       -1.73027       -0.67032
 H         -1.19220       -0.89711       -0.23850
 O          0.03683        0.04849        0.08244
 O          0.33915        0.15967        1.79007
 H          0.09563        1.09473        1.83604
 }
 
 memory,1900,M
 basis = vtz-f12
 hf
 uccsd(t)-f12,scale_trip=1

 Variables initialized (889), CPU time= 0.01 sec
 Commands  initialized (702), CPU time= 0.01 sec, 572 directives.
 Default parameters read. Elapsed time= 0.11 sec

 Checking input...
 Passed
1


                                         ***  PROGRAM SYSTEM MOLPRO  ***
                                       Copyright, TTI GmbH Stuttgart, 2015
                                    Version 2015.1 linked Aug 10 2018 15:00:15


 **********************************************************************************************************************************
 LABEL *                                                                                 
  64 bit serial version                                                                  DATE: 24-Sep-19          TIME: 09:49:26  
 **********************************************************************************************************************************

 SHA1:             5e3d8ac6839c721e2824de82269b4736200146bd
 **********************************************************************************************************************************
 SETTING GEOMTYP        =    XYZ

 Variable memory set to 1900000000 words,  buffer space   230000 words

 SETTING BASIS          =    VTZ-F12


 Recomputing integrals since basis changed


 Using spherical harmonics

 Library entry C      S cc-pVTZ-F12          selected for orbital group  1
 Library entry C      P cc-pVTZ-F12          selected for orbital group  1
 Library entry C      D cc-pVTZ-F12          selected for orbital group  1
 Library entry C      F cc-pVTZ-F12          selected for orbital group  1
 Library entry H      S cc-pVTZ-F12          selected for orbital group  2
 Library entry H      P cc-pVTZ-F12          selected for orbital group  2
 Library entry H      D cc-pVTZ-F12          selected for orbital group  2
 Library entry O      S cc-pVTZ-F12          selected for orbital group  9
 Library entry O      P cc-pVTZ-F12          selected for orbital group  9
 Library entry O      D cc-pVTZ-F12          selected for orbital group  9
 Library entry O      F cc-pVTZ-F12          selected for orbital group  9


 PROGRAM * SEWARD (Integral evaluation for generally contracted gaussian basis sets)     Author: Roland Lindh, 1990

 Geometry written to block  1 of record 700


 Point group  C1  



 ATOMIC COORDINATES

 NR  ATOM    CHARGE       X              Y              Z

   1  C       6.00    1.988577698   -1.525651489   -0.709875619
   2  H       1.00    2.150565022   -1.186483445   -2.762174882
   3  H       1.00    3.794588955   -1.041144608    0.165577803
   4  C       6.00    1.351229768   -4.340247374   -0.185060879
   5  H       1.00    1.103996899   -4.463117366    1.879483809
   6  C       6.00    3.466645884   -6.133106137   -1.004294949
   7  H       1.00    5.205042740   -5.733183398    0.034260735
   8  H       1.00    2.957667049   -8.101010232   -0.638198307
   9  H       1.00    3.868061507   -5.943906758   -3.023864155
  10  C       6.00   -1.107058256   -4.909697444   -1.429407738
  11  H       1.00   -1.482830295   -6.576001249   -2.562128474
  12  O       8.00   -2.966359790   -3.269736422   -1.266721216
  13  H       1.00   -2.252931486   -1.695292204   -0.450699681
  14  O       8.00    0.069598613    0.091632820    0.155789022
  15  O       8.00    0.640900615    0.301732570    3.382742044
  16  H       1.00    0.180714509    2.068739880    3.469612754

 Bond lengths in Bohr (Angstrom)

  1- 2  2.086434068   1- 3  2.064665172   1- 4  2.933188178   1-14  2.654706111   4- 5  2.082922441
       ( 1.104093361)       ( 1.092573757)       ( 1.552176339)       ( 1.404809976)       ( 1.102235088)

  4- 6  2.891448140   4-10  2.813512483   6- 7  2.064112336   6- 8  2.065365035   6- 9  2.067750151
       ( 1.530088462)       ( 1.488846689)       ( 1.092281209)       ( 1.092944109)       ( 1.094206258)

 10-11  2.049592463  10-12  2.484540451  12-13  1.911477357  14-15  3.283862617  15-16  1.828013295
       ( 1.084597623)       ( 1.314762186)       ( 1.011510256)       ( 1.737745261)       ( 0.967342977)

 Bond angles

  1- 4- 5  105.05461393   1- 4- 6  112.66367760   1- 4-10  107.75432759   1-14-15  103.51236418

  2- 1- 3  108.12076832   2- 1- 4  110.41710949   2- 1-14  106.13135930   3- 1- 4  109.83905455

  3- 1-14  110.55300828   4- 1-14  111.66440173   4- 6- 7  110.69972186   4- 6- 8  111.11737816

  4- 6- 9  111.22441424   4-10-11  124.69213419   4-10-12  119.42659914   5- 4- 6  109.33508819

  5- 4-10  108.82777399   6- 4-10  112.85700085   7- 6- 8  107.63607413   7- 6- 9  108.07121898

  8- 6- 9  107.94766714  10-12-13  106.99734486  11-10-12  115.82440756  14-15-16   93.71230378

 NUCLEAR CHARGE:                   57
 NUMBER OF PRIMITIVE AOS:         693
 NUMBER OF SYMMETRY AOS:          621
 NUMBER OF CONTRACTIONS:          533   ( 533A   )
 NUMBER OF CORE ORBITALS:           7   (   7A   )
 NUMBER OF VALENCE ORBITALS:       37   (  37A   )


 NUCLEAR REPULSION ENERGY  326.81854099


 Eigenvalues of metric

         1 0.195E-04 0.324E-04 0.412E-04 0.648E-04 0.887E-04 0.101E-03 0.109E-03 0.120E-03


 Contracted 2-electron integrals neglected if value below      1.0D-12
 AO integral compression algorithm  1   Integral accuracy      1.0D-12

     36703.306 MB (compressed) written to integral file ( 42.2%)


 NUMBER OF SORTED TWO-ELECTRON INTEGRALS:10126281516.     BUFFER LENGTH:  32768
 NUMBER OF SEGMENTS: 159  SEGMENT LENGTH:   63999810      RECORD LENGTH: 262144

 Memory used in sort:      64.29 MW

 SORT1 READ 10882289679. AND WROTE  8655711249. INTEGRALS IN  49612 RECORDS. CPU TIME:   192.81 SEC, REAL TIME:   286.31 SEC
 SORT2 READ  8655711249. AND WROTE 10126281516. INTEGRALS IN 140012 RECORDS. CPU TIME:   157.77 SEC, REAL TIME:   741.76 SEC

 FILE SIZES:   FILE 1: 36733.9 MBYTE,  FILE 4:104043.9 MBYTE,   TOTAL: 140777.8 MBYTE

 OPERATOR DM      FOR CENTER  0  COORDINATES:    0.000000    0.000000    0.000000


 **********************************************************************************************************************************
 DATASETS  * FILE   NREC   LENGTH (MB)   RECORD NAMES
              1      19    34156.42       500      610      700      900      950      970     1000      129      960     1100   
                                          VAR    BASINP    GEOM    SYMINP    ZMAT    AOBASIS   BASIS     P2S    ABASIS      S 
                                         1400     1410     1200     1210     1080     1600     1650     1300     1700   
                                           T        V       H0       H01     AOSYM     SMH    MOLCAS    ERIS     OPER   

 PROGRAMS   *        TOTAL       INT
 CPU TIMES  *       848.73    848.58
 REAL TIME  *      1562.59 SEC
 DISK USED  *       140.78 GB      
 **********************************************************************************************************************************


 PROGRAM * RHF-SCF (OPEN SHELL)       Authors: W. Meyer, H.-J. Werner


 NUMBER OF ELECTRONS:      29+   28-    SPACE SYMMETRY=1    SPIN SYMMETRY: Doublet 
 CONVERGENCE THRESHOLDS:    1.00E-05 (Density)    1.14E-07 (Energy)
 MAX. NUMBER OF ITERATIONS:       60
 INTERPOLATION TYPE:            DIIS
 INTERPOLATION STEPS:              2 (START)      1 (STEP)
 LEVEL SHIFTS:                 -0.60 (CLOSED) -0.30 (OPEN) 



 Orbital guess generated from atomic densities. Full valence occupancy:   44

 Molecular orbital dump at record        2100.2

 Initial alpha occupancy:  29
 Initial beta  occupancy:  28
 Wave function symmetry:    1

 ITERATION    DDIFF          GRAD             ENERGY        2-EL.EN.            DIPOLE MOMENTS         DIIS   ORB.
    1      0.000D+00      0.000D+00      -381.04608162    928.073919   -0.09494   -3.46298   -2.77985    0    start
    2      0.000D+00      0.334D-02      -381.20623437    924.117423   -0.05213   -2.91884   -2.02194    1    diag,B
    3      0.257D-02      0.114D-02      -381.22476096    925.282383   -0.00818   -2.81335   -1.97596    2    diag,B
    4      0.747D-03      0.450D-03      -381.23298466    925.283664    0.00661   -2.70773   -1.83453    3    diag,B
    5      0.531D-03      0.203D-03      -381.23564155    925.344707    0.01006   -2.65357   -1.74056    4    diag,B
    6      0.266D-03      0.119D-03      -381.23738909    925.420318    0.01152   -2.61742   -1.64113    5    diag,B
    7      0.224D-03      0.954D-04      -381.23856074    925.481198    0.01003   -2.58333   -1.55385    6    fixocc
    8      0.182D-03      0.689D-04      -381.23975303    925.603281    0.00828   -2.52800   -1.41127    7    diag,B
    9      0.270D-03      0.347D-04      -381.23999696    925.666722    0.00748   -2.49877   -1.34111    8    diag,B
   10      0.132D-03      0.149D-04      -381.24002632    925.683884    0.00809   -2.48862   -1.31926    9    orth
   11      0.583D-04      0.609D-05      -381.24003037    925.686740    0.00864   -2.48590   -1.31461    9    diag,B
   12      0.232D-04      0.307D-05      -381.24003139    925.687033    0.00919   -2.48498   -1.31329    9    diag,B
   13      0.999D-05      0.165D-05      -381.24003172    925.688008    0.00948   -2.48396   -1.31172    9    diag,B
   14      0.647D-05      0.858D-06      -381.24003178    925.687899    0.00966   -2.48401   -1.31210    9    diag,B
   15      0.334D-05      0.521D-06      -381.24003180    925.687847    0.00968   -2.48393   -1.31200    0    orth

 Final alpha occupancy:  29
 Final beta  occupancy:  28

 !RHF STATE 1.1 Energy               -381.240031795722
 Nuclear energy                       326.81854099
 One-electron energy                -1170.90249642
 Two-electron energy                  462.84392364
 Virial quotient                       -1.00066662
 !RHF STATE 1.1 Dipole moment           0.00967912    -2.48392555    -1.31199590
 Dipole moment /Debye                   0.02460026    -6.31309549    -3.33454253

 Orbital energies:

         1.1          2.1          3.1          4.1          5.1          6.1          7.1          8.1          9.1         10.1
    -20.671584   -20.480421   -20.449684   -11.443408   -11.275214   -11.259153   -11.253019    -1.490663    -1.279563    -1.167772

        11.1         12.1         13.1         14.1         15.1         16.1         17.1         18.1         19.1         20.1
     -1.113998    -0.968589    -0.909696    -0.845951    -0.750413    -0.733693    -0.647010    -0.631271    -0.606044    -0.590053

        21.1         22.1         23.1         24.1         25.1         26.1         27.1         28.1         29.1         30.1
     -0.576492    -0.550077    -0.538467    -0.519752    -0.498602    -0.422024    -0.403572    -0.357300    -0.347664     0.013084

        31.1
      0.022880

 HOMO     29.1    -0.347664 =      -9.4604eV
 LUMO     30.1     0.013084 =       0.3560eV
 LUMO-HOMO         0.360747 =       9.8164eV


 **********************************************************************************************************************************
 DATASETS  * FILE   NREC   LENGTH (MB)   RECORD NAMES
              1      19    34156.42       500      610      700      900      950      970     1000      129      960     1100   
                                          VAR    BASINP    GEOM    SYMINP    ZMAT    AOBASIS   BASIS     P2S    ABASIS      S 
                                         1400     1410     1200     1210     1080     1600     1650     1300     1700   
                                           T        V       H0       H01     AOSYM     SMH    MOLCAS    ERIS     OPER   

              2       4       11.06       700     1000      520     2100   
                                         GEOM     BASIS   MCVARS     RHF  

 PROGRAMS   *        TOTAL        HF       INT
 CPU TIMES  *      3182.35   2333.61    848.58
 REAL TIME  *      4043.65 SEC
 DISK USED  *       140.78 GB      
 **********************************************************************************************************************************


 PROGRAM * CCSD (Unrestricted open-shell coupled cluster)     Authors: C. Hampel, H.-J. Werner, 1991, M. Deegan, P.J. Knowles, 1992

                           UCCSD-F12 implementation by G. Knizia and H.-J. Werner, 2008

                   Density fitting integral evaluation by F.R. Manby, 2003,2007, G. Knizia, 2010

 Basis set CC-PVTZ/JKFIT generated.      Number of basis functions:   823 
 Basis set CC-PVTZ-F12/OPTRI generated.  Number of basis functions:   894 
 Basis set AUG-CC-PVTZ/MP2FIT generated. Number of basis functions:   1156 

 Convergence thresholds:  THRVAR = 1.00D-08  THRDEN = 1.14D-06

 CCSD(T)     terms to be evaluated (factor= 1.000)


 Number of core orbitals:           7 (   7 )
 Number of closed-shell orbitals:  21 (  21 )
 Number of active  orbitals:        1 (   1 )
 Number of external orbitals:     504 ( 504 )

 For full I/O caching in triples, increase memory by 2352.23 Mwords to 4252.51 Mwords.

 Number of N-1 electron functions:              43
 Number of N-2 electron functions:             903
 Number of singly external CSFs:             21715
 Number of doubly external CSFs:         173943210
 Total number of CSFs:                   173964925

 Molecular orbitals read from record     2100.2  Type=RHF/CANONICAL (state 1.1)

 Integral transformation finished. Total CPU:1640.43 sec, npass=  1  Memory used:1866.44 MW
 
 Geminal basis:    OPTFULL  GEM_TYPE=SLATER  BETA=1.0  NGEM=6

 Optimizing Gaussian exponents for each gem_beta

 Geminal optimization for beta= 1.0000
 Weight function:   m=0, omega= 1.4646

 Augmented Hessian optimization of geminal fit. Trust ratio= 0.40000
 Convergence reached after   2 iterations. Final gradient= 8.17D-16, Step= 4.34D-06, Delta= 1.28D-09
 
 Alpha:                 0.19532     0.81920     2.85917     9.50073    35.69989   197.79328
 Coeff:                 0.27070     0.30552     0.18297     0.10986     0.06810     0.04224
 
 
 WFN_F12=FIX,EG    DECOUPLE_EXPL=F   HYBRID=0    NOX=F   SEMIINT_F12=T   CORE_SINGLES=F
 
 AO(A)-basis ORBITAL           loaded. Number of functions:     533
 RI(R)-basis CC-PVTZ-F12/OPTRI loaded. Number of functions:     894
 DF-basis CC-PVTZ/JKFIT        loaded. Number of functions:     823

 Screening thresholds:   THRAO=  1.00D-10  THRMO=  1.00D-09  THRPROD=  1.00D-09
                         THRSW=  1.00D-05  THROV=  1.00D-12  THRAOF12=   1.00D-08

 CPU time for one-electron matrices              76.45 sec
 
 Construction of ABS:
 Pseudo-inverse stability          2.91E-11
 Smallest eigenvalue of S          4.69E-05  (threshold= 1.00E-08)
 Ratio eigmin/eigmax               4.46E-06  (threshold= 1.00E-09)
 Smallest eigenvalue of S kept     4.69E-05  (threshold= 4.69E-05, 0 functions deleted, 894 kept)
 
 Construction of CABS:
 Pseudo-inverse stability          1.06E-09
 Smallest eigenvalue of S          2.56E-07  (threshold= 1.00E-08)
 Ratio eigmin/eigmax               2.56E-07  (threshold= 1.00E-09)
 Smallest eigenvalue of S kept     2.56E-07  (threshold= 2.56E-07, 0 functions deleted, 894 kept)
 
 CPU time for basis constructions                 2.05 sec
 Fock operators(MO) rebuilt from dump record.
 CPU time for fock operators                      5.31 sec
 
                                      TOTAL          ALPHA          BETA    
  Singles Contributions MO        -0.005583498   -0.002764278   -0.002819219
  Singles Contributions CABS      -0.003462855   -0.001782320   -0.001680535
  Pure DF-RHF relaxation          -0.003440081
 
 CPU time for singles                             9.47 sec
 
 AO(A)-basis ORBITAL           loaded. Number of functions:     533
 RI(R)-basis CC-PVTZ-F12/OPTRI loaded. Number of functions:     894
 DF-basis AUG-CC-PVTZ/MP2FIT   loaded. Number of functions:    1156

 Screening thresholds:   THRAO=  1.00D-10  THRMO=  1.00D-09  THRPROD=  1.00D-09
                         THRSW=  1.00D-05  THROV=  1.00D-12  THRAOF12=   1.00D-08

 CPU time for transformed integrals            2514.49 sec
 CPU time for F12 matrices                      154.61 sec

 Diagonal F12 ansatz with fixed amplitudes:   TS= 0.5000  TT= 0.2500  TN= 0.3750
 
 ITER.     SQ.NORM      CORR.ENERGY   TOTAL ENERGY  ENERGY CHANGE      VAR         CPU   MICRO    DIIS
   1      1.40711669    -1.59193819  -382.83541007    -1.5954E+00   4.04E-01      4.23  1  1  1   0  0
   2      1.40617750    -1.59008075  -382.83355262     1.8574E-03   2.18E-04     61.34  0  0  0   1  1
   3      1.40664867    -1.59060894  -382.83408082    -5.2820E-04   2.32E-06    119.41  0  0  0   2  2
   4      1.40665463    -1.59061311  -382.83408498    -4.1651E-06   2.59E-08    178.37  0  0  0   3  3
   5      1.40665666    -1.59061315  -382.83408503    -4.2896E-08   3.78E-10    238.77  0  0  0   4  4
 
 - - Continuing with F12/conv. amplitude coupling turned on.
 
   6      1.40669509    -1.59116693  -382.83463880    -5.5382E-04   1.16E-04    298.39  1  1  1   1  1
   7      1.40669472    -1.59116689  -382.83463877     3.5678E-08   4.10E-09    360.29  1  1  1   2  2
 
 CPU time for iterative RMP2-F12                360.29 sec
 
 
 DF-RMP2-F12 doubles corrections:
 - - - - - - - - - - - - - - - - 
  Approx.                             TOTAL           A-B            A-A            B-B    
  RMP2-F12/3C(FIX)                -0.124271590   -0.115356067   -0.004838803   -0.004076721
  RMP2-F12/3*C(FIX)               -0.123717849   -0.115123416   -0.004668515   -0.003925918
  RMP2-F12/3*C(DX)                -0.124160198   -0.115524817   -0.004693845   -0.003941536
  RMP2-F12/3*C(FIX,DX)            -0.131161736   -0.122012813   -0.004989032   -0.004159891
 
 DF-RMP2-F12 doubles energies:
 - - - - - - - - - - - - - - -
  Approx.                             TOTAL           A-B            A-A            B-B    
  RMP2                            -1.461311803   -1.101545959   -0.184639390   -0.175126455
  RMP2-F12/3C(FIX)                -1.585583394   -1.216902026   -0.189478193   -0.179203175
  RMP2-F12/3*C(FIX)               -1.585029652   -1.216669375   -0.189307904   -0.179052373
  RMP2-F12/3*C(DX)                -1.585472001   -1.217070776   -0.189333234   -0.179067991
  RMP2-F12/3*C(FIX,DX)            -1.592473539   -1.223558772   -0.189628422   -0.179286346
 
 
  Reference energy                   -381.240031795717
  CABS relaxation correction to RHF    -0.003440080650
  New reference energy               -381.243471876367
 
  RMP2-F12 singles (MO) energy         -0.005583497894
  RMP2-F12 pair energy                 -1.585583393670
  RMP2-F12 correlation energy          -1.591166891564
 
 !RMP2-F12/3C(FIX) energy            -382.834638767931

 Starting RMP2 calculation

 ITER.      SQ.NORM     CORR.ENERGY   TOTAL ENERGY   ENERGY CHANGE        DEN1      VAR(S)    VAR(P)  DIIS     TIME
   1      1.40231740    -1.46206992  -382.70210172    -1.46206992    -0.00455234  0.41D-04  0.17D-02  1  1  4968.31
   2      1.40650661    -1.46696537  -382.70699716    -0.00489544    -0.00001124  0.22D-05  0.47D-05  2  2  5026.36
   3      1.40665921    -1.46705336  -382.70708515    -0.00008799    -0.00000018  0.14D-06  0.40D-07  3  3  5085.41
   4      1.40666578    -1.46705396  -382.70708576    -0.00000061    -0.00000001  0.58D-08  0.69D-09  4  4  5145.63

 Norm of t1 vector:      0.05422032      S-energy:    -0.00558308      T1 diagnostic:  0.00079336
 Norm of t2 vector:      0.63539432      P-energy:    -1.46147088
                                         Alpha-Beta:  -1.10200160
                                         Alpha-Alpha: -0.18448050
                                         Beta-Beta:   -0.17498879

 Spin contamination <S**2-Sz**2-Sz>     0.00155935
  Reference energy                   -381.243471876372
  RHF-RMP2 correlation energy          -1.467053963672
 !RHF-RMP2 energy                    -382.710525840044

 Starting UCCSD calculation

 ITER.      SQ.NORM     CORR.ENERGY   TOTAL ENERGY   ENERGY CHANGE        DEN1      VAR(S)    VAR(P)  DIIS     TIME
   1      1.39557954    -1.43034416  -382.67037596    -1.43034416    -0.04164180  0.11D-01  0.67D-02  0  0 22044.67
   2      1.43111721    -1.46631912  -382.70635092    -0.03597496    -0.00482661  0.76D-03  0.15D-02  1  1 37935.59
   3      1.44900376    -1.47157641  -382.71160821    -0.00525729    -0.00133004  0.11D-02  0.15D-03  2  2 53535.95
   4      1.46445956    -1.47743254  -382.71746433    -0.00585612    -0.00037216  0.30D-03  0.57D-04  3  3 69137.94
   5      1.47710781    -1.47919089  -382.71922269    -0.00175836    -0.00015742  0.18D-03  0.19D-04  4  4 84739.68
   6      1.48509149    -1.47969443  -382.71972622    -0.00050354    -0.00006524  0.69D-04  0.11D-04  5  5100594.97
   7      1.49224849    -1.48015652  -382.72018831    -0.00046209    -0.00003932  0.48D-04  0.67D-05  6  6116203.87
   8      1.49570961    -1.48031368  -382.72034547    -0.00015716    -0.00002861  0.37D-04  0.42D-05  6  1132060.51
   9      1.49953448    -1.48042601  -382.72045780    -0.00011233    -0.00002347  0.28D-04  0.41D-05  6  3147897.40
  10      1.50545681    -1.48054736  -382.72057916    -0.00012136    -0.00001934  0.24D-04  0.33D-05  6  2163634.03
  11      1.51085100    -1.48063895  -382.72067075    -0.00009159    -0.00001707  0.20D-04  0.31D-05  6  5179319.76
  12      1.51834921    -1.48072567  -382.72075747    -0.00008672    -0.00001530  0.18D-04  0.29D-05  6  4194923.97
  13      1.52823993    -1.48079809  -382.72082988    -0.00007242    -0.00001327  0.16D-04  0.24D-05  6  6210650.90
  14      1.54630766    -1.48093846  -382.72097026    -0.00014038    -0.00001154  0.13D-04  0.22D-05  6  1226422.30
  15      1.55757144    -1.48098505  -382.72101685    -0.00004659    -0.00000984  0.11D-04  0.20D-05  6  6242177.62
  16      1.61380109    -1.48125815  -382.72128995    -0.00027310    -0.00000623  0.61D-05  0.16D-05  6  4257889.11
  17      1.67579171    -1.48147683  -382.72150862    -0.00021867    -0.00000296  0.27D-05  0.70D-06  6  3273506.69
  18      1.70665782    -1.48155620  -382.72158799    -0.00007937    -0.00000172  0.13D-05  0.55D-06  6  1289127.13
  19      1.74128889    -1.48164865  -382.72168044    -0.00009245    -0.00000053  0.40D-06  0.16D-06  6  5304772.58
  20      1.74775055    -1.48166569  -382.72169749    -0.00001705    -0.00000030  0.25D-06  0.77D-07  6  2320422.35
  21      1.75159007    -1.48167338  -382.72170518    -0.00000769    -0.00000016  0.14D-06  0.42D-07  6  3336033.98
  22      1.76029948    -1.48170098  -382.72173277    -0.00002759    -0.00000005  0.45D-07  0.13D-07  6  6351849.18
  23      1.75822347    -1.48169384  -382.72172563     0.00000714    -0.00000003  0.24D-07  0.78D-08  6  5367544.83
  24      1.76091625    -1.48170225  -382.72173405    -0.00000841    -0.00000001  0.14D-07  0.33D-08  6  1383286.40
  25      1.76027776    -1.48170019  -382.72173198     0.00000206    -0.00000001  0.58D-08  0.17D-08  6  4399080.68
  26      1.76040587    -1.48170003  -382.72173183     0.00000016    -0.00000000  0.24D-08  0.10D-08  6  6414797.78

 Norm of t1 vector:      0.53478352      S-energy:    -0.00572481      T1 diagnostic:  0.05503794
                                                                       D1 diagnostic:  0.30573723
 Norm of t2 vector:      0.68877606      P-energy:    -1.47597523
                                         Alpha-Beta:  -1.15047067
                                         Alpha-Alpha: -0.16742063
                                         Beta-Beta:   -0.15808392

 Singles amplitudes (print threshold =  0.500E-01):

         I         SYM. A    A   T(IA) [Alpha-Alpha]

        19         1         2     -0.07161174
        20         1         2      0.18162343
        20         1         5     -0.05400730
        22         1         2     -0.40170404
        22         1         5      0.11781212
        22         1         9      0.07187055
 
         I         SYM. A    A   T(IA) [Beta-Beta]

        20         1         1      0.10717100
        21         1         2      0.07667992

 Spin contamination <S**2-Sz**2-Sz>     0.04308576

 For full I/O caching in triples, increase memory by 2605.43 Mwords to 4505.71 Mwords.
 

  Ecorr(MP2)                           -1.467053963672
  Ecorr(MP2-F12)                       -1.591325554159
  Scale factor for triples energy       1.084708261294

 RESULTS
 =======

  Reference energy                   -381.240031795723
  CABS relaxation correction to RHF    -0.003440080650
  New reference energy               -381.243471876372
 
  F12 corrections for ansatz 3C(FIX) added to UCCSD energy. Coupling mode: 15
 
  UCCSD-F12a singles energy            -0.005724805347
  UCCSD-F12a pair energy               -1.598744065791
  UCCSD-F12a correlation energy        -1.604468871138
  Triples (T) contribution (scaled)    -0.078756640201
  Total correlation energy             -1.683225511339
 
  RHF-UCCSD-F12a energy              -382.847940747511
  RHF-UCCSD[T]-F12a energy           -382.943437865943
  RHF-UCCSD-T-F12a energy            -382.922802666159
 !RHF-UCCSD(T)-F12a energy           -382.926697387712
 
  F12 corrections for ansatz 3C(FIX) added to UCCSD energy. Coupling mode: 15
 
  UCCSD-F12b singles energy            -0.005724805347
  UCCSD-F12b pair energy               -1.576321902958
  UCCSD-F12b correlation energy        -1.582046708306
  Triples (T) contribution (scaled)    -0.078756640201
  Total correlation energy             -1.660803348507
 
  RHF-UCCSD-F12b energy              -382.825518584678
  RHF-UCCSD[T]-F12b energy           -382.921015703111
  RHF-UCCSD-T-F12b energy            -382.900380503327
 !RHF-UCCSD(T)-F12b energy           -382.904275224879

 Program statistics:

 Available memory in ccsd:              1899995808
 Min. memory needed in ccsd:             476529013
 Max. memory used in ccsd:               700588850
 Max. memory used in cckext:             522715393 (27 integral passes)
 Max. memory used in cckint:            1866435477 ( 1 integral passes)



 **********************************************************************************************************************************
 DATASETS  * FILE   NREC   LENGTH (MB)   RECORD NAMES
              1      20    34156.43       500      610      700      900      950      970     1000      129      960     1100   
                                          VAR    BASINP    GEOM    SYMINP    ZMAT    AOBASIS   BASIS     P2S    ABASIS      S 
                                         1400     1410     1200     1210     1080     1600     1650     1300     1700      960(1)
                                           T        V       H0       H01     AOSYM     SMH    MOLCAS    ERIS     OPER    ABASIS    

              2       5       14.48       700     1000      520     2100     7360   
                                         GEOM     BASIS   MCVARS     RHF    F12ABS    

 PROGRAMS   *        TOTALUCCSD(T)-F        HF       INT
 CPU TIMES  *   1045432.721042250.37   2333.61    848.58
 REAL TIME  *   1052979.47 SEC
 DISK USED  *       205.93 GB      
 **********************************************************************************************************************************

 UCCSD(T)-F12/cc-pVTZ-F12 energy=   -382.904275224879

    UCCSD(T)-F12        HF-SCF  
   -382.90427522   -381.24003180
 **********************************************************************************************************************************
 Molpro calculation terminated
 Variable memory released
