 Entering Gaussian System, Link 0=g03
 Input=freq.gjf
 Output=freq.log
 Initial command:
 /opt/g03/l1.exe /scratch/goldmanm/Gau-30289.inp -scrdir=/scratch/goldmanm/
 Entering Link 1 = /opt/g03/l1.exe PID=     30291.
  
 Copyright (c) 1988,1990,1992,1993,1995,1998,2003,2004, Gaussian, Inc.
                  All Rights Reserved.
  
 This is the Gaussian(R) 03 program.  It is based on the
 the Gaussian(R) 98 system (copyright 1998, Gaussian, Inc.),
 the Gaussian(R) 94 system (copyright 1995, Gaussian, Inc.),
 the Gaussian 92(TM) system (copyright 1992, Gaussian, Inc.),
 the Gaussian 90(TM) system (copyright 1990, Gaussian, Inc.),
 the Gaussian 88(TM) system (copyright 1988, Gaussian, Inc.),
 the Gaussian 86(TM) system (copyright 1986, Carnegie Mellon
 University), and the Gaussian 82(TM) system (copyright 1983,
 Carnegie Mellon University). Gaussian is a federally registered
 trademark of Gaussian, Inc.
  
 This software contains proprietary and confidential information,
 including trade secrets, belonging to Gaussian, Inc.
  
 This software is provided under written license and may be
 used, copied, transmitted, or stored only in accord with that
 written license.
  
 The following legend is applicable only to US Government
 contracts under FAR:
  
                    RESTRICTED RIGHTS LEGEND
  
 Use, reproduction and disclosure by the US Government is
 subject to restrictions as set forth in subparagraphs (a)
 and (c) of the Commercial Computer Software - Restricted
 Rights clause in FAR 52.227-19.
  
 Gaussian, Inc.
 340 Quinnipiac St., Bldg. 40, Wallingford CT 06492
  
  
 ---------------------------------------------------------------
 Warning -- This program may not be used in any manner that
 competes with the business of Gaussian, Inc. or will provide
 assistance to any competitor of Gaussian, Inc.  The licensee
 of this program is prohibited from giving any competitor of
 Gaussian, Inc. access to this program.  By using this program,
 the user acknowledges that Gaussian, Inc. is engaged in the
 business of creating and licensing software in the field of
 computational chemistry and represents and warrants to the
 licensee that it is not a competitor of Gaussian, Inc. and that
 it will not use this program in any manner prohibited above.
 ---------------------------------------------------------------
  

 Cite this work as:
 Gaussian 03, Revision D.01,
 M. J. Frisch, G. W. Trucks, H. B. Schlegel, G. E. Scuseria, 
 M. A. Robb, J. R. Cheeseman, J. A. Montgomery, Jr., T. Vreven, 
 K. N. Kudin, J. C. Burant, J. M. Millam, S. S. Iyengar, J. Tomasi, 
 V. Barone, B. Mennucci, M. Cossi, G. Scalmani, N. Rega, 
 G. A. Petersson, H. Nakatsuji, M. Hada, M. Ehara, K. Toyota, 
 R. Fukuda, J. Hasegawa, M. Ishida, T. Nakajima, Y. Honda, O. Kitao, 
 H. Nakai, M. Klene, X. Li, J. E. Knox, H. P. Hratchian, J. B. Cross, 
 V. Bakken, C. Adamo, J. Jaramillo, R. Gomperts, R. E. Stratmann, 
 O. Yazyev, A. J. Austin, R. Cammi, C. Pomelli, J. W. Ochterski, 
 P. Y. Ayala, K. Morokuma, G. A. Voth, P. Salvador, J. J. Dannenberg, 
 V. G. Zakrzewski, S. Dapprich, A. D. Daniels, M. C. Strain, 
 O. Farkas, D. K. Malick, A. D. Rabuck, K. Raghavachari, 
 J. B. Foresman, J. V. Ortiz, Q. Cui, A. G. Baboul, S. Clifford, 
 J. Cioslowski, B. B. Stefanov, G. Liu, A. Liashenko, P. Piskorz, 
 I. Komaromi, R. L. Martin, D. J. Fox, T. Keith, M. A. Al-Laham, 
 C. Y. Peng, A. Nanayakkara, M. Challacombe, P. M. W. Gill, 
 B. Johnson, W. Chen, M. W. Wong, C. Gonzalez, and J. A. Pople, 
 Gaussian, Inc., Wallingford CT, 2004.
 
 ******************************************
 Gaussian 03:  AM64L-G03RevD.01 13-Oct-2005
                24-Sep-2019 
 ******************************************
 %chk=input.chk
 %mem=1500mb
 %nproc=8
 Will use up to    8 processors via shared memory.
 -------------------------------------
 # freq nosymm b3lyp/cbsb7 iop(7/33=1)
 -------------------------------------
 1/10=4,30=1,38=1/1,3;
 2/15=1,17=6,18=5,40=1/2;
 3/5=4,6=6,7=700,11=2,16=1,25=1,30=1,74=-5/1,2,3;
 4//1;
 5/5=2,38=5/2;
 8/6=4,10=90,11=11/1;
 11/6=1,8=1,9=11,15=111,16=1,31=1/1,2,10;
 10/6=1,31=1/2;
 6/7=2,8=2,9=2,10=2,18=1,28=1/1;
 7/8=1,10=1,25=1,30=1,33=1/1,2,3,16;
 1/10=4,30=1/3;
 99//99;
 -------
 NBO NRT
 -------
 Symbolic Z-matrix:
 Charge =  0 Multiplicity = 2
 C                     1.05231  -0.80734  -0.37565 
 H                     1.13803  -0.62786  -1.46168 
 H                     2.00801  -0.55095   0.08762 
 C                     0.71504  -2.29676  -0.09793 
 H                     0.58421  -2.36178   0.99458 
 C                     1.83447  -3.2455   -0.53145 
 H                     2.75439  -3.03387   0.01813 
 H                     1.56513  -4.28687  -0.33772 
 H                     2.04689  -3.14538  -1.60016 
 C                    -0.58583  -2.5981   -0.75641 
 H                    -0.78468  -3.47987  -1.35582 
 O                    -1.56973  -1.73027  -0.67032 
 H                    -1.1922   -0.89711  -0.2385 
 O                     0.03683   0.04849   0.08244 
 O                     0.33915   0.15967   1.79007 
 H                     0.09563   1.09473   1.83604 
 

 GradGradGradGradGradGradGradGradGradGradGradGradGradGradGradGradGradGrad
 Berny optimization.
 Initialization pass.
 Trust Radius=3.00D-01 FncErr=1.00D-07 GrdErr=1.00D-07
 Number of steps in this run=   2 maximum allowed number of steps=   2.
 GradGradGradGradGradGradGradGradGradGradGradGradGradGradGradGradGradGrad

                          Input orientation:                          
 ---------------------------------------------------------------------
 Center     Atomic     Atomic              Coordinates (Angstroms)
 Number     Number      Type              X           Y           Z
 ---------------------------------------------------------------------
    1          6             0        1.052310   -0.807340   -0.375650
    2          1             0        1.138030   -0.627860   -1.461680
    3          1             0        2.008010   -0.550950    0.087620
    4          6             0        0.715040   -2.296760   -0.097930
    5          1             0        0.584210   -2.361780    0.994580
    6          6             0        1.834470   -3.245500   -0.531450
    7          1             0        2.754390   -3.033870    0.018130
    8          1             0        1.565130   -4.286870   -0.337720
    9          1             0        2.046890   -3.145380   -1.600160
   10          6             0       -0.585830   -2.598100   -0.756410
   11          1             0       -0.784680   -3.479870   -1.355820
   12          8             0       -1.569730   -1.730270   -0.670320
   13          1             0       -1.192200   -0.897110   -0.238500
   14          8             0        0.036830    0.048490    0.082440
   15          8             0        0.339150    0.159670    1.790070
   16          1             0        0.095630    1.094730    1.836040
 ---------------------------------------------------------------------
                    Distance matrix (angstroms):
                    1          2          3          4          5
     1  C    0.000000
     2  H    1.104093   0.000000
     3  H    1.092574   1.778514   0.000000
     4  C    1.552176   2.196352   2.180379   0.000000
     5  H    2.124366   3.057190   2.475659   1.102235   0.000000
     6  C    2.565282   2.863982   2.770192   1.530088   2.161684
     7  H    2.830119   3.254434   2.593608   2.171578   2.472820
     8  H    3.517322   3.851500   3.786047   2.177313   2.538346
     9  H    2.820469   2.680132   3.095348   2.179604   3.079957
    10  C    2.456685   2.711263   3.410457   1.488847   2.119152
    11  H    3.387873   3.441218   4.296651   2.287181   2.940810
    12  O    2.795304   3.028782   3.842589   2.422543   2.794665
    13  H    2.250487   2.645494   3.235355   2.369883   2.611777
    14  O    1.404810   2.013553   2.060317   2.447999   2.634583
    15  O    2.476701   3.439810   2.487652   3.120879   2.655291
    16  H    3.069964   3.863790   3.069598   3.952988   3.590853
                    6          7          8          9         10
     6  C    0.000000
     7  H    1.092281   0.000000
     8  H    1.092944   1.763796   0.000000
     9  H    1.094206   1.769704   1.768855   0.000000
    10  C    2.515469   3.456426   2.766564   2.818270   0.000000
    11  H    2.755805   3.822522   2.685030   2.861708   1.084598
    12  O    3.728778   4.568517   4.058839   3.993379   1.314762
    13  H    3.842068   4.495239   4.370719   4.171395   1.878638
    14  O    3.802465   4.109770   4.616014   4.131863   2.845314
    15  O    4.384133   4.378568   5.079590   5.033229   3.865934
    16  H    5.240818   5.236329   5.987176   5.795983   4.563132
                   11         12         13         14         15
    11  H    0.000000
    12  O    2.036495   0.000000
    13  H    2.843436   1.011510   0.000000
    14  O    3.897794   2.512304   1.583565   0.000000
    15  O    4.940230   3.642693   2.752619   1.737745   0.000000
    16  H    5.647113   4.127456   3.151135   2.042838   0.967343
                   16
    16  H    0.000000
 Symmetry turned off by external request.
 Stoichiometry    C4H9O3(2)
 Framework group  C1[X(C4H9O3)]
 Deg. of freedom    42
 Full point group                 C1
 Rotational constants (GHZ):      3.2756033      2.0095765      1.4576171
 Standard basis: CBSB7 (5D, 7F)
 Integral buffers will be    131072 words long.
 Raffenetti 2 integral format.
 Two-electron integral symmetry is turned off.
   180 basis functions,   296 primitive gaussians,   187 cartesian basis functions
    29 alpha electrons       28 beta electrons
       nuclear repulsion energy       326.8185393714 Hartrees.
 NAtoms=   16 NActive=   16 NUniq=   16 SFac= 7.50D-01 NAtFMM=   80 NAOKFM=F Big=F
 One-electron integrals computed using PRISM.
 NBasis=   180 RedAO= T  NBF=   180
 NBsUse=   180 1.00D-06 NBFU=   180
 Harris functional with IExCor=  402 diagonalized for initial guess.
 ExpMin= 1.03D-01 ExpMax= 8.59D+03 ExpMxC= 1.30D+03 IAcc=1 IRadAn=         1 AccDes= 1.00D-06
 HarFok:  IExCor= 402 AccDes= 1.00D-06 IRadAn=         1 IDoV=1
 ScaDFX=  1.000000  1.000000  1.000000  1.000000
 <S**2> of initial guess= 0.7500
 Requested convergence on RMS density matrix=1.00D-08 within 128 cycles.
 Requested convergence on MAX density matrix=1.00D-06.
 Requested convergence on             energy=1.00D-06.
 No special actions if energy rises.
 Integral accuracy reduced to 1.0D-05 until final iterations.
 EnCoef did     1 forward-backward iterations
 EnCoef did     4 forward-backward iterations
 EnCoef did     2 forward-backward iterations
 EnCoef did   100 forward-backward iterations
 Rare condition: small coef for last iteration:  0.000D+00
 Initial convergence to 1.0D-05 achieved.  Increase integral accuracy.
 SCF Done:  E(UB+HF-LYP) =  -383.447607727     A.U. after   29 cycles
             Convg  =    0.7245D-08             -V/T =  2.0033
             S**2   =   0.7674
 Annihilation of the first spin contaminant:
 S**2 before annihilation     0.7674,   after     0.7501
 Range of M.O.s used for correlation:     1   180
 NBasis=   180 NAE=    29 NBE=    28 NFC=     0 NFV=     0
 NROrb=    180 NOA=    29 NOB=    28 NVA=   151 NVB=   152

 **** Warning!!: The smallest alpha delta epsilon is  0.40455139D-01

 Symmetrizing basis deriv contribution to polar:
 IMax=3 JMax=2 DiffMx= 0.00D+00
 G2DrvN: will do   17 centers at a time, making    1 passes doing MaxLOS=2.
 FoFDir/FoFCou used for L=0 through L=2.
 DoAtom=TTTTTTTTTTTTTTTT
          Differentiating once with respect to electric field.
                with respect to dipole field.
          Differentiating once with respect to nuclear coordinates.
 Symmetry not used in FoFDir.
 MinBra= 0 MaxBra= 2 Meth= 1.
 IRaf=       0 NMat=  51 IRICut=      51 DoRegI=T DoRafI=T ISym2E= 0 JSym2E=0.
          There are  51 degrees of freedom in the 1st order CPHF.
    48 vectors were produced by pass  0.
 AX will form  48 AO Fock derivatives at one time.
    48 vectors were produced by pass  1.
    48 vectors were produced by pass  2.
    48 vectors were produced by pass  3.
    48 vectors were produced by pass  4.
    48 vectors were produced by pass  5.
    37 vectors were produced by pass  6.
     4 vectors were produced by pass  7.
     3 vectors were produced by pass  8.
 Inv2:  IOpt= 1 Iter= 1 AM= 3.35D-15 Conv= 1.00D-12.
 Inverted reduced A of dimension  332 with in-core refinement.
 Isotropic polarizability for W=    0.000000       95.18 Bohr**3.
 End of Minotr Frequency-dependent properties file   721 does not exist.

 **********************************************************************

            Population analysis using the SCF density.

 **********************************************************************

 Alpha  occ. eigenvalues --  -19.16818 -19.15308 -19.12509 -10.25365 -10.22734
 Alpha  occ. eigenvalues --  -10.19643 -10.17889  -1.09164  -1.03230  -0.92953
 Alpha  occ. eigenvalues --   -0.81415  -0.69093  -0.66766  -0.61798  -0.53657
 Alpha  occ. eigenvalues --   -0.49814  -0.46940  -0.46436  -0.44462  -0.42855
 Alpha  occ. eigenvalues --   -0.41502  -0.40963  -0.39294  -0.37322  -0.36615
 Alpha  occ. eigenvalues --   -0.33146  -0.30083  -0.26327  -0.15319
 Alpha virt. eigenvalues --   -0.11273   0.04034   0.05821   0.07147   0.07558
 Alpha virt. eigenvalues --    0.09545   0.10396   0.12083   0.13202   0.13799
 Alpha virt. eigenvalues --    0.18037   0.20067   0.21121   0.23058   0.23473
 Alpha virt. eigenvalues --    0.31082   0.33830   0.35687   0.36723   0.37671
 Alpha virt. eigenvalues --    0.41296   0.42764   0.43382   0.46941   0.49042
 Alpha virt. eigenvalues --    0.51012   0.52227   0.54602   0.55354   0.56378
 Alpha virt. eigenvalues --    0.57400   0.57632   0.60472   0.61151   0.61974
 Alpha virt. eigenvalues --    0.64209   0.67373   0.74993   0.77482   0.80088
 Alpha virt. eigenvalues --    0.84573   0.86624   0.87934   0.90337   0.93929
 Alpha virt. eigenvalues --    0.95573   0.98339   1.02526   1.03735   1.08379
 Alpha virt. eigenvalues --    1.11655   1.19425   1.21525   1.24255   1.29410
 Alpha virt. eigenvalues --    1.32876   1.36632   1.39014   1.41102   1.43701
 Alpha virt. eigenvalues --    1.44549   1.44619   1.46810   1.48379   1.51148
 Alpha virt. eigenvalues --    1.51621   1.53967   1.54941   1.56659   1.59295
 Alpha virt. eigenvalues --    1.60664   1.63737   1.66951   1.70355   1.71498
 Alpha virt. eigenvalues --    1.74542   1.75661   1.82243   1.83318   1.87544
 Alpha virt. eigenvalues --    1.89481   1.95573   1.97286   2.02431   2.04289
 Alpha virt. eigenvalues --    2.09093   2.10933   2.15348   2.19087   2.21616
 Alpha virt. eigenvalues --    2.27498   2.34484   2.37498   2.39442   2.41584
 Alpha virt. eigenvalues --    2.45815   2.47293   2.48725   2.50292   2.53372
 Alpha virt. eigenvalues --    2.55764   2.56855   2.58131   2.65152   2.67384
 Alpha virt. eigenvalues --    2.70147   2.73575   2.77067   2.78685   2.84507
 Alpha virt. eigenvalues --    2.91689   2.92053   2.94344   3.00980   3.07242
 Alpha virt. eigenvalues --    3.10684   3.12487   3.16121   3.16413   3.17874
 Alpha virt. eigenvalues --    3.22565   3.26468   3.35895   3.38825   3.49059
 Alpha virt. eigenvalues --    3.75407   3.76671   3.77405   3.79579   3.81289
 Alpha virt. eigenvalues --    3.85152   3.92286   3.99878   4.18774   4.29884
 Alpha virt. eigenvalues --    4.79628   4.81737   4.85459   4.94829   5.02775
 Alpha virt. eigenvalues --    5.27803   5.42769   5.49155   5.69216  23.73173
 Alpha virt. eigenvalues --   23.78645  23.83547  23.91519  49.79938  49.84286
 Alpha virt. eigenvalues --   49.90013
  Beta  occ. eigenvalues --  -19.16550 -19.14899 -19.11607 -10.24517 -10.22699
  Beta  occ. eigenvalues --  -10.19706 -10.17880  -1.08487  -1.02097  -0.91291
  Beta  occ. eigenvalues --   -0.81016  -0.68572  -0.65815  -0.61559  -0.52993
  Beta  occ. eigenvalues --   -0.49363  -0.46278  -0.45552  -0.43842  -0.42631
  Beta  occ. eigenvalues --   -0.40698  -0.39612  -0.38928  -0.36626  -0.36001
  Beta  occ. eigenvalues --   -0.31677  -0.29358  -0.25643
  Beta virt. eigenvalues --   -0.06201  -0.05200   0.04135   0.06080   0.07314
  Beta virt. eigenvalues --    0.07840   0.09692   0.10623   0.12209   0.13275
  Beta virt. eigenvalues --    0.13978   0.18273   0.20203   0.21238   0.23391
  Beta virt. eigenvalues --    0.24365   0.31353   0.34161   0.36065   0.36882
  Beta virt. eigenvalues --    0.38525   0.41418   0.43653   0.44973   0.47402
  Beta virt. eigenvalues --    0.49671   0.51322   0.52557   0.54712   0.55664
  Beta virt. eigenvalues --    0.56491   0.57632   0.57715   0.60623   0.61229
  Beta virt. eigenvalues --    0.62281   0.64533   0.67824   0.75670   0.78146
  Beta virt. eigenvalues --    0.80637   0.85085   0.87118   0.88475   0.91430
  Beta virt. eigenvalues --    0.94472   0.95848   0.98630   1.02789   1.03947
  Beta virt. eigenvalues --    1.08883   1.11956   1.19843   1.22764   1.25101
  Beta virt. eigenvalues --    1.29682   1.33567   1.36894   1.39400   1.41459
  Beta virt. eigenvalues --    1.43883   1.44752   1.45141   1.46954   1.48572
  Beta virt. eigenvalues --    1.51281   1.51982   1.54195   1.55544   1.57028
  Beta virt. eigenvalues --    1.59634   1.61138   1.64067   1.67166   1.70653
  Beta virt. eigenvalues --    1.71699   1.75266   1.76124   1.83115   1.84129
  Beta virt. eigenvalues --    1.88174   1.89722   1.95747   1.97618   2.02626
  Beta virt. eigenvalues --    2.04430   2.09385   2.11120   2.15610   2.19422
  Beta virt. eigenvalues --    2.22029   2.27735   2.34635   2.37715   2.39598
  Beta virt. eigenvalues --    2.41764   2.45929   2.47391   2.49431   2.50382
  Beta virt. eigenvalues --    2.53563   2.56154   2.57037   2.58402   2.65525
  Beta virt. eigenvalues --    2.68967   2.71113   2.73855   2.77993   2.79270
  Beta virt. eigenvalues --    2.84763   2.92533   2.93449   2.95299   3.01528
  Beta virt. eigenvalues --    3.07919   3.12082   3.13013   3.16620   3.17534
  Beta virt. eigenvalues --    3.18900   3.23342   3.26992   3.37578   3.39237
  Beta virt. eigenvalues --    3.49431   3.75773   3.76901   3.77496   3.80082
  Beta virt. eigenvalues --    3.81573   3.85651   3.92585   4.00296   4.19240
  Beta virt. eigenvalues --    4.30026   4.81032   4.82881   4.87970   4.95889
  Beta virt. eigenvalues --    5.03462   5.28117   5.43463   5.49737   5.69612
  Beta virt. eigenvalues --   23.73854  23.78795  23.83644  23.91543  49.80851
  Beta virt. eigenvalues --   49.84608  49.90398
          Condensed to atoms (all electrons):
              1          2          3          4          5          6
     1  C    4.926615   0.349331   0.407161   0.291648  -0.069525  -0.046471
     2  H    0.349331   0.612088  -0.029982  -0.042076   0.012364  -0.003232
     3  H    0.407161  -0.029982   0.565555  -0.053741  -0.013258  -0.000620
     4  C    0.291648  -0.042076  -0.053741   5.279141   0.392756   0.302662
     5  H   -0.069525   0.012364  -0.013258   0.392756   0.586220  -0.024444
     6  C   -0.046471  -0.003232  -0.000620   0.302662  -0.024444   4.913434
     7  H   -0.004210  -0.000321   0.003777  -0.030638  -0.005391   0.402073
     8  H    0.007690  -0.000935   0.000043  -0.027318  -0.008698   0.397214
     9  H   -0.011251   0.009066  -0.002111  -0.041802   0.010741   0.401454
    10  C   -0.076129   0.009078   0.004956   0.362366  -0.061501  -0.058236
    11  H    0.002622   0.000605  -0.000553  -0.057282   0.004212  -0.001256
    12  O    0.009418  -0.001940  -0.000375  -0.052586   0.004198   0.003525
    13  H   -0.010969  -0.001557   0.002841  -0.011086  -0.001871   0.000175
    14  O    0.194502  -0.025519  -0.024513  -0.033217   0.006820   0.004211
    15  O   -0.014168   0.001799   0.012580  -0.009061   0.005831  -0.000119
    16  H   -0.003131  -0.000168  -0.000418   0.001443   0.000112  -0.000028
              7          8          9         10         11         12
     1  C   -0.004210   0.007690  -0.011251  -0.076129   0.002622   0.009418
     2  H   -0.000321  -0.000935   0.009066   0.009078   0.000605  -0.001940
     3  H    0.003777   0.000043  -0.002111   0.004956  -0.000553  -0.000375
     4  C   -0.030638  -0.027318  -0.041802   0.362366  -0.057282  -0.052586
     5  H   -0.005391  -0.008698   0.010741  -0.061501   0.004212   0.004198
     6  C    0.402073   0.397214   0.401454  -0.058236  -0.001256   0.003525
     7  H    0.562829  -0.026542  -0.027204   0.006321  -0.000338  -0.000207
     8  H   -0.026542   0.573210  -0.033083  -0.001652   0.002189   0.000044
     9  H   -0.027204  -0.033083   0.587593  -0.001086   0.001934  -0.000254
    10  C    0.006321  -0.001652  -0.001086   5.014808   0.412161   0.343974
    11  H   -0.000338   0.002189   0.001934   0.412161   0.540123  -0.031526
    12  O   -0.000207   0.000044  -0.000254   0.343974  -0.031526   7.727426
    13  H    0.000072   0.000062  -0.000188  -0.044100   0.003766   0.307701
    14  O    0.000185  -0.000292   0.000095  -0.011016  -0.000846  -0.037855
    15  O   -0.000188   0.000018  -0.000063  -0.001201  -0.000019   0.000276
    16  H    0.000016  -0.000003   0.000017   0.000092   0.000007   0.000087
             13         14         15         16
     1  C   -0.010969   0.194502  -0.014168  -0.003131
     2  H   -0.001557  -0.025519   0.001799  -0.000168
     3  H    0.002841  -0.024513   0.012580  -0.000418
     4  C   -0.011086  -0.033217  -0.009061   0.001443
     5  H   -0.001871   0.006820   0.005831   0.000112
     6  C    0.000175   0.004211  -0.000119  -0.000028
     7  H    0.000072   0.000185  -0.000188   0.000016
     8  H    0.000062  -0.000292   0.000018  -0.000003
     9  H   -0.000188   0.000095  -0.000063   0.000017
    10  C   -0.044100  -0.011016  -0.001201   0.000092
    11  H    0.003766  -0.000846  -0.000019   0.000007
    12  O    0.307701  -0.037855   0.000276   0.000087
    13  H    0.380623   0.083019   0.005201  -0.000904
    14  O    0.083019   8.210888  -0.000205   0.004434
    15  O    0.005201  -0.000205   8.085418   0.260202
    16  H   -0.000904   0.004434   0.260202   0.492691
 Mulliken atomic charges:
              1
     1  C    0.046868
     2  H    0.111397
     3  H    0.128659
     4  C   -0.271210
     5  H    0.161434
     6  C   -0.290343
     7  H    0.119765
     8  H    0.118053
     9  H    0.106142
    10  C    0.101164
    11  H    0.124202
    12  O   -0.271906
    13  H    0.287214
    14  O   -0.370689
    15  O   -0.346300
    16  H    0.245549
 Sum of Mulliken charges=   0.00000
 Atomic charges with hydrogens summed into heavy atoms:
              1
     1  C    0.286924
     2  H    0.000000
     3  H    0.000000
     4  C   -0.109776
     5  H    0.000000
     6  C    0.053618
     7  H    0.000000
     8  H    0.000000
     9  H    0.000000
    10  C    0.225367
    11  H    0.000000
    12  O    0.015308
    13  H    0.000000
    14  O   -0.370689
    15  O   -0.100752
    16  H    0.000000
 Sum of Mulliken charges=   0.00000
          Atomic-Atomic Spin Densities.
              1          2          3          4          5          6
     1  C    0.147406  -0.045156   0.008646  -0.025270  -0.039422   0.004700
     2  H   -0.045156   0.039731  -0.003149   0.008555   0.004807  -0.002899
     3  H    0.008646  -0.003149  -0.011377  -0.000353  -0.003891   0.001103
     4  C   -0.025270   0.008555  -0.000353  -0.037751  -0.001841   0.000132
     5  H   -0.039422   0.004807  -0.003891  -0.001841   0.098247   0.005478
     6  C    0.004700  -0.002899   0.001103   0.000132   0.005478   0.013874
     7  H   -0.001134   0.000483  -0.000644  -0.000515   0.002073  -0.000838
     8  H    0.001821  -0.000451   0.000239   0.003226  -0.004591  -0.002176
     9  H   -0.006611   0.003584  -0.000845  -0.001075   0.003780  -0.005415
    10  C   -0.044605   0.017928  -0.001558   0.021796  -0.031834  -0.012679
    11  H   -0.001192   0.000268  -0.000011   0.000808   0.000983   0.000301
    12  O    0.007012  -0.002901   0.000171  -0.001710   0.004016   0.000281
    13  H    0.009561  -0.001691   0.000245  -0.002825  -0.002822  -0.000051
    14  O   -0.028404   0.000299  -0.001785   0.006755   0.012991  -0.000014
    15  O    0.021936  -0.002664   0.001514  -0.003885  -0.009753  -0.000042
    16  H   -0.002517   0.000613  -0.000619   0.000453   0.001633   0.000005
              7          8          9         10         11         12
     1  C   -0.001134   0.001821  -0.006611  -0.044605  -0.001192   0.007012
     2  H    0.000483  -0.000451   0.003584   0.017928   0.000268  -0.002901
     3  H   -0.000644   0.000239  -0.000845  -0.001558  -0.000011   0.000171
     4  C   -0.000515   0.003226  -0.001075   0.021796   0.000808  -0.001710
     5  H    0.002073  -0.004591   0.003780  -0.031834   0.000983   0.004016
     6  C   -0.000838  -0.002176  -0.005415  -0.012679   0.000301   0.000281
     7  H   -0.000593  -0.000783   0.001750   0.000011   0.000007   0.000000
     8  H   -0.000783   0.003656  -0.003501   0.002295  -0.000413  -0.000025
     9  H    0.001750  -0.003501   0.008111   0.005849   0.000613  -0.000279
    10  C    0.000011   0.002295   0.005849   0.715912   0.001130  -0.109019
    11  H    0.000007  -0.000413   0.000613   0.001130  -0.034788   0.000265
    12  O    0.000000  -0.000025  -0.000279  -0.109019   0.000265   0.160625
    13  H   -0.000029   0.000075  -0.000161  -0.002459  -0.000412   0.001632
    14  O    0.000085  -0.000054   0.000116  -0.004320   0.000040   0.005514
    15  O   -0.000047   0.000028  -0.000073   0.000300  -0.000012  -0.000285
    16  H    0.000012  -0.000007   0.000017  -0.000024   0.000003   0.000083
             13         14         15         16
     1  C    0.009561  -0.028404   0.021936  -0.002517
     2  H   -0.001691   0.000299  -0.002664   0.000613
     3  H    0.000245  -0.001785   0.001514  -0.000619
     4  C   -0.002825   0.006755  -0.003885   0.000453
     5  H   -0.002822   0.012991  -0.009753   0.001633
     6  C   -0.000051  -0.000014  -0.000042   0.000005
     7  H   -0.000029   0.000085  -0.000047   0.000012
     8  H    0.000075  -0.000054   0.000028  -0.000007
     9  H   -0.000161   0.000116  -0.000073   0.000017
    10  C   -0.002459  -0.004320   0.000300  -0.000024
    11  H   -0.000412   0.000040  -0.000012   0.000003
    12  O    0.001632   0.005514  -0.000285   0.000083
    13  H    0.002187  -0.004242   0.002280  -0.000499
    14  O   -0.004242   0.224302  -0.127979   0.011720
    15  O    0.002280  -0.127979   0.413188  -0.008067
    16  H   -0.000499   0.011720  -0.008067  -0.001732
 Mulliken atomic spin densities:
              1
     1  C    0.006773
     2  H    0.017358
     3  H   -0.012315
     4  C   -0.033499
     5  H    0.039856
     6  C    0.001759
     7  H   -0.000160
     8  H   -0.000660
     9  H    0.005861
    10  C    0.558724
    11  H   -0.032411
    12  O    0.065383
    13  H    0.000789
    14  O    0.095023
    15  O    0.286443
    16  H    0.001076
 Sum of Mulliken spin densities=   1.00000
 APT atomic charges:
              1
     1  C    0.103014
     2  H    0.024240
     3  H    0.054199
     4  C    0.073394
     5  H   -0.005160
     6  C    0.178216
     7  H   -0.007073
     8  H   -0.004394
     9  H   -0.026151
    10  C   -0.243334
    11  H    0.077951
    12  O    0.167249
    13  H   -0.215045
    14  O    0.726399
    15  O   -1.188330
    16  H    0.284827
 Sum of APT charges=   0.00000
 APT Atomic charges with hydrogens summed into heavy atoms:
              1
     1  C    0.181452
     2  H    0.000000
     3  H    0.000000
     4  C    0.068234
     5  H    0.000000
     6  C    0.140598
     7  H    0.000000
     8  H    0.000000
     9  H    0.000000
    10  C   -0.165383
    11  H    0.000000
    12  O   -0.047796
    13  H    0.000000
    14  O    0.726399
    15  O   -0.903504
    16  H    0.000000
 Sum of APT charges=   0.00000
 Electronic spatial extent (au):  <R**2>=  1313.8019
 Charge=     0.0000 electrons
 Dipole moment (field-independent basis, Debye):
    X=     1.3259    Y=    -1.1616    Z=    -1.1491  Tot=     2.1042
 Quadrupole moment (field-independent basis, Debye-Ang):
   XX=   -43.9282   YY=   -34.9076   ZZ=   -44.4446
   XY=    -3.0386   XZ=    -1.8949   YZ=     3.7362
 Traceless Quadrupole moment (field-independent basis, Debye-Ang):
   XX=    -2.8347   YY=     6.1858   ZZ=    -3.3511
   XY=    -3.0386   XZ=    -1.8949   YZ=     3.7362
 Octapole moment (field-independent basis, Debye-Ang**2):
  XXX=   -38.4781  YYY=   180.6748  ZZZ=     8.7876  XYY=   -12.3170
  XXY=    70.0025  XXZ=     6.2217  XZZ=   -16.3017  YZZ=    70.7821
  YYZ=     3.0551  XYZ=    -0.1760
 Hexadecapole moment (field-independent basis, Debye-Ang**3):
 XXXX=  -392.5471 YYYY= -1023.5043 ZZZZ=  -241.9511 XXXY=    96.5918
 XXXZ=    -5.9569 YYYX=   113.5661 YYYZ=   -86.1498 ZZZX=    -8.3393
 ZZZY=  -101.3218 XXYY=  -256.3234 XXZZ=  -108.4830 YYZZ=  -210.0710
 XXYZ=   -43.2525 YYXZ=     4.7812 ZZXY=    37.6452
 N-N= 3.268185393714D+02 E-N=-1.553526769080D+03  KE= 3.821874932894D+02
  Exact polarizability:  66.799  20.278 133.240  13.734  51.140  85.499
 Approx polarizability: 113.769  83.469 325.220  58.812 163.935 198.337
                          Isotropic Fermi Contact Couplings
        Atom                 a.u.       MegaHertz       Gauss      10(-4) cm-1
     1  C(13)              0.02408      27.07272       9.66022       9.03049
     2  H(1)               0.00233      10.40224       3.71178       3.46981
     3  H(1)              -0.00454     -20.30862      -7.24662      -6.77423
     4  C(13)             -0.01759     -19.76893      -7.05404      -6.59420
     5  H(1)               0.01538      68.75734      24.53433      22.93498
     6  C(13)              0.00434       4.88127       1.74176       1.62822
     7  H(1)              -0.00030      -1.35327      -0.48288      -0.45140
     8  H(1)              -0.00031      -1.36661      -0.48764      -0.45585
     9  H(1)              -0.00028      -1.26573      -0.45165      -0.42220
    10  C(13)              0.04013      45.11702      16.09888      15.04942
    11  H(1)              -0.00936     -41.84984     -14.93306     -13.95960
    12  O(17)              0.01570      -9.51968      -3.39686      -3.17542
    13  H(1)              -0.00019      -0.83968      -0.29962      -0.28009
    14  O(17)              0.17699    -107.29025     -38.28383     -35.78817
    15  O(17)              0.15244     -92.41083     -32.97448     -30.82493
    16  H(1)              -0.00462     -20.64623      -7.36709      -6.88684
 --------------------------------------------------------
       Center         ----  Spin Dipole Couplings  ----
                      3XX-RR        3YY-RR        3ZZ-RR
 --------------------------------------------------------
     1   Atom        0.004302      0.012764     -0.017065
     2   Atom        0.001300      0.000169     -0.001469
     3   Atom        0.005244     -0.002721     -0.002523
     4   Atom        0.004004     -0.001161     -0.002843
     5   Atom       -0.000690     -0.000099      0.000789
     6   Atom        0.004176     -0.000311     -0.003864
     7   Atom        0.003510     -0.001657     -0.001853
     8   Atom        0.002503      0.000877     -0.003380
     9   Atom        0.005065     -0.003081     -0.001984
    10   Atom       -0.237119     -0.123091      0.360210
    11   Atom       -0.036035      0.024700      0.011334
    12   Atom       -0.212685     -0.201426      0.414111
    13   Atom       -0.009141      0.013915     -0.004774
    14   Atom       -0.341690     -0.249614      0.591304
    15   Atom       -0.488855     -0.591123      1.079978
    16   Atom       -0.035755      0.050142     -0.014387
 --------------------------------------------------------
                        XY            XZ            YZ
 --------------------------------------------------------
     1   Atom        0.011108     -0.006295     -0.009105
     2   Atom        0.005085     -0.003777      0.002220
     3   Atom        0.001320     -0.002185      0.002519
     4   Atom        0.000936      0.005363      0.002801
     5   Atom        0.000439      0.007538      0.003007
     6   Atom       -0.004947      0.001794     -0.002700
     7   Atom       -0.001751      0.000722      0.000037
     8   Atom       -0.004967      0.000693     -0.000415
     9   Atom       -0.003021     -0.002546      0.001241
    10   Atom        0.159369     -0.277555     -0.391448
    11   Atom        0.022464     -0.002678      0.022662
    12   Atom        0.028881     -0.158032     -0.193640
    13   Atom        0.009526      0.003041      0.010403
    14   Atom       -0.075473     -0.127542     -0.302305
    15   Atom        0.053837      0.507182      0.232085
    16   Atom       -0.020492      0.005780      0.013382
 --------------------------------------------------------


 ---------------------------------------------------------------------------------
              Anisotropic Spin Dipole Couplings in Principal Axis System
 ---------------------------------------------------------------------------------

       Atom             a.u.   MegaHertz   Gauss  10(-4) cm-1        Axes

              Baa    -0.0201    -2.696    -0.962    -0.899  0.1503  0.2165  0.9646
     1 C(13)  Bbb    -0.0034    -0.450    -0.161    -0.150  0.8232 -0.5678 -0.0009
              Bcc     0.0234     3.146     1.123     1.049  0.5475  0.7942 -0.2636
 
              Baa    -0.0074    -3.943    -1.407    -1.315  0.5838 -0.5641  0.5839
     2 H(1)   Bbb     0.0012     0.662     0.236     0.221 -0.2184  0.5835  0.7822
              Bcc     0.0061     3.281     1.171     1.094  0.7819  0.5842 -0.2175
 
              Baa    -0.0057    -3.043    -1.086    -1.015  0.2212 -0.6847  0.6945
     3 H(1)   Bbb    -0.0002    -0.089    -0.032    -0.030  0.0989  0.7242  0.6824
              Bcc     0.0059     3.132     1.117     1.045  0.9702  0.0822 -0.2279
 
              Baa    -0.0066    -0.882    -0.315    -0.294 -0.3944 -0.3674  0.8423
     4 C(13)  Bbb    -0.0009    -0.125    -0.044    -0.042 -0.3941  0.8956  0.2061
              Bcc     0.0075     1.007     0.359     0.336  0.8301  0.2506  0.4981
 
              Baa    -0.0079    -4.222    -1.506    -1.408  0.6974  0.2230 -0.6812
     5 H(1)   Bbb    -0.0005    -0.254    -0.091    -0.085 -0.3604  0.9306 -0.0643
              Bcc     0.0084     4.476     1.597     1.493  0.6195  0.2903  0.7293
 
              Baa    -0.0054    -0.728    -0.260    -0.243  0.1380  0.5634  0.8146
     6 C(13)  Bbb    -0.0027    -0.360    -0.128    -0.120  0.5837  0.6182 -0.5264
              Bcc     0.0081     1.088     0.388     0.363  0.8002 -0.5481  0.2435
 
              Baa    -0.0023    -1.249    -0.446    -0.417  0.3037  0.8044 -0.5107
     7 H(1)   Bbb    -0.0018    -0.951    -0.339    -0.317  0.0557  0.5201  0.8523
              Bcc     0.0041     2.201     0.785     0.734  0.9511 -0.2873  0.1131
 
              Baa    -0.0035    -1.886    -0.673    -0.629 -0.4172 -0.3926  0.8196
     8 H(1)   Bbb    -0.0033    -1.735    -0.619    -0.579  0.4978  0.6559  0.5675
              Bcc     0.0068     3.621     1.292     1.208  0.7604 -0.6447  0.0782
 
              Baa    -0.0042    -2.230    -0.796    -0.744  0.2357  0.9374 -0.2566
     9 H(1)   Bbb    -0.0028    -1.476    -0.527    -0.492  0.3607  0.1608  0.9187
              Bcc     0.0069     3.707     1.323     1.236  0.9024 -0.3091 -0.3002
 
              Baa    -0.3494   -46.892   -16.732   -15.641  0.8559 -0.5146  0.0509
    10 C(13)  Bbb    -0.3397   -45.587   -16.267   -15.206  0.4009  0.7226  0.5631
              Bcc     0.6892    92.479    32.999    30.848 -0.3266 -0.4616  0.8248
 
              Baa    -0.0453   -24.149    -8.617    -8.055  0.9166 -0.3543  0.1853
    11 H(1)   Bbb     0.0001     0.054     0.019     0.018 -0.3407 -0.4496  0.8257
              Bcc     0.0452    24.095     8.598     8.037  0.2093  0.8200  0.5328
 
              Baa    -0.2691    19.470     6.947     6.495  0.5877  0.7325  0.3436
    12 O(17)  Bbb    -0.2365    17.111     6.106     5.708  0.7794 -0.6266  0.0028
              Bcc     0.5056   -36.581   -13.053   -12.202 -0.2173 -0.2661  0.9391
 
              Baa    -0.0127    -6.763    -2.413    -2.256  0.9071 -0.3884  0.1623
    13 H(1)   Bbb    -0.0091    -4.844    -1.729    -1.616 -0.2885 -0.2929  0.9116
              Bcc     0.0218    11.608     4.142     3.872  0.3065  0.8737  0.3778
 
              Baa    -0.4595    33.250    11.864    11.091  0.7107  0.6485  0.2728
    14 O(17)  Bbb    -0.2386    17.263     6.160     5.758 -0.6970  0.7015  0.1484
              Bcc     0.6981   -50.513   -18.024   -16.849 -0.0951 -0.2956  0.9506
 
              Baa    -0.6464    46.773    16.690    15.602  0.8179  0.4873 -0.3058
    15 O(17)  Bbb    -0.6138    44.415    15.848    14.815 -0.5027  0.8639  0.0321
              Bcc     1.2602   -91.188   -32.538   -30.417  0.2798  0.1274  0.9516
 
              Baa    -0.0431   -22.995    -8.205    -7.670  0.9217  0.2456 -0.3001
    16 H(1)   Bbb    -0.0137    -7.285    -2.599    -2.430  0.3301 -0.0910  0.9395
              Bcc     0.0568    30.280    10.805    10.100 -0.2035  0.9651  0.1650
 

 ---------------------------------------------------------------------------------

 Use density number 0.
 Entering OneElI...
 Calculate overlap and kinetic energy integrals
    NBasis = 187  MinDer = 2  MaxDer = 2
 Requested accuracy = 0.1000D-12
 PrsmSu:  NPrtUS=   1 ThrOK=F
 PRISM was handed   196296317 working-precision words and  2541 shell-pairs
 Entering OneElI...
 Calculate potential energy integrals
    NBasis = 187  MinDer = 2  MaxDer = 2
 Requested accuracy = 0.1000D-12
 PrsmSu:  NPrtUS=   8 ThrOK=T
 PRISM was handed    24494093 working-precision words and  2349 shell-pairs
 PRISM was handed    24494093 working-precision words and  2349 shell-pairs
 PRISM was handed    24494093 working-precision words and  2349 shell-pairs
 PRISM was handed    24494093 working-precision words and  2349 shell-pairs
 PRISM was handed    24494093 working-precision words and  2349 shell-pairs
 PRISM was handed    24494093 working-precision words and  2349 shell-pairs
 PRISM was handed    24494093 working-precision words and  2349 shell-pairs
 PRISM was handed    24494093 working-precision words and  2349 shell-pairs
 Polarizability after L701:
                1             2             3
      1  0.667993D+02
      2  0.202780D+02  0.133240D+03
      3  0.137342D+02  0.511400D+02  0.854993D+02
 Dipole Derivatives after L701:
               1            2            3            4            5
      1 0.608412D+00-0.532980D+00-0.654715D-01-0.294084D-01 0.135765D+00
      2 0.853831D+00-0.684602D+00 0.880785D-01-0.219496D+00 0.214807D+00
      3 0.373877D+00-0.507914D+00 0.385232D+00-0.857640D-01 0.628023D-01
               6            7            8            9           10
      1 0.105806D+00-0.863820D-01 0.440575D-01-0.124120D+00-0.699778D-01
      2 0.173465D+00-0.380580D-01 0.243021D+00-0.981684D-01-0.229428D+00
      3-0.112680D+00-0.116580D-01 0.856443D-01 0.595779D-02-0.792121D-01
              11           12           13           14           15
      1-0.158780D-01-0.288571D-01 0.521702D-01-0.690681D-02 0.349188D-01
      2 0.224544D+00 0.599221D-01 0.220801D+00-0.162558D-01 0.109780D+00
      3 0.113216D+00 0.656151D-01 0.132274D+00-0.396268D-01-0.513930D-01
              16           17           18           19           20
      1 0.923683D-01 0.951996D-01-0.525597D-03-0.650444D-01-0.600465D-01
      2 0.894303D-01 0.275154D+00 0.571581D-01 0.799982D-01 0.199997D-01
      3 0.450460D-01 0.908629D-01 0.167127D+00-0.185327D-01-0.579664D-01
              21           22           23           24           25
      1-0.895805D-01 0.185605D-01 0.116136D-01 0.228955D-01 0.377036D-01
      2-0.100219D-01-0.122762D+00-0.920394D-01 0.242925D-01-0.178624D-01
      3 0.238261D-01-0.911883D-02 0.452401D-01 0.602956D-01-0.169887D-01
              26           27           28           29           30
      1-0.564608D-02 0.620036D-01 0.115384D+01-0.980411D+00-0.297079D-01
      2 0.318589D-01-0.236412D-01 0.107160D+01-0.158946D+01-0.476942D+00
      3 0.445302D-01-0.148015D+00 0.863893D+00-0.941433D+00-0.294380D+00
              31           32           33           34           35
      1 0.778897D-01 0.256870D-01-0.568942D-01-0.137002D+01 0.115502D+01
      2 0.945642D-01 0.328638D-01-0.171818D-01-0.120797D+01 0.180931D+01
      3 0.204035D-01-0.588852D-01 0.123099D+00-0.871611D+00 0.129146D+01
              36           37           38           39           40
      1 0.204708D+00 0.133477D+00-0.278703D+00-0.155231D+00-0.226568D+00
      2 0.528132D+00-0.805372D+00-0.729096D+00-0.459763D+00 0.911156D+00
      3 0.624582D-01-0.418376D+00-0.553326D+00-0.495166D-01 0.432664D+00
              41           42           43           44           45
      1 0.446192D+00 0.127082D+01-0.608390D+00-0.138248D+00-0.112763D+01
      2 0.526808D+00 0.367067D+01-0.668335D+00-0.607729D+00-0.363749D+01
      3 0.552274D+00 0.187896D+01-0.290375D+00-0.301225D+00-0.234887D+01
              46           47           48
      1 0.281365D+00 0.105283D+00-0.231324D-01
      2-0.120979D-01 0.340825D+00 0.117105D-01
      3-0.665212D-01 0.174344D+00 0.232290D+00
 Hessian after L701:
                1             2             3             4             5
      1  0.153096D+02
      2  0.223867D+01  0.136923D+02
      3  0.115780D+01 -0.138732D+01  0.190472D+02
      4 -0.446708D+01  0.242025D-01 -0.444530D+00  0.437428D+01
      5  0.306413D-01 -0.450247D+01 -0.385388D+00 -0.262901D+00  0.446169D+01
      6 -0.291713D+00 -0.265362D+00 -0.150576D+01  0.603422D+00  0.425726D+00
      7 -0.214863D+01  0.719124D+00  0.122788D+01  0.554835D-01  0.683495D-03
      8  0.720662D+00 -0.468460D+01  0.333358D+00  0.487687D-04  0.113081D+00
      9  0.105991D+01  0.281054D+00 -0.437582D+01 -0.120656D+00 -0.674865D-02
     10 -0.579841D+01  0.698105D+00 -0.920121D-01  0.161578D+00  0.979784D-02
     11  0.845315D+00 -0.302532D+00 -0.764292D+00 -0.103823D-01 -0.546963D-01
     12 -0.796996D-01 -0.709169D+00 -0.589170D+01  0.185290D-01  0.194169D+00
     13  0.222733D+00 -0.450441D-01  0.513994D-01 -0.402636D-01  0.210996D-01
     14 -0.923653D-01  0.137975D-01  0.247052D+00  0.292308D-01  0.243388D-01
     15  0.811860D-01  0.192369D+00  0.761656D-01 -0.438166D-01 -0.121575D+00
     16 -0.763975D-01  0.619960D-01 -0.633344D-03 -0.231325D-01  0.194744D-02
     17 -0.671464D-01  0.192188D+00  0.294980D-01 -0.371483D-02  0.109370D-01
     18 -0.939518D-03  0.115877D-02 -0.716635D-01  0.564902D-02 -0.358459D-01
     19  0.656192D-02 -0.184533D-01 -0.646857D-03  0.686606D-03 -0.671162D-02
     20  0.366296D-04 -0.601172D-02 -0.216519D-02 -0.192978D-02  0.771514D-04
     21  0.222222D-01 -0.201968D-01 -0.150099D-01  0.252820D-02 -0.522155D-02
     22 -0.457326D-01 -0.423134D-01  0.193418D-02  0.391579D-03  0.306951D-02
     23 -0.497696D-01  0.203058D+00  0.156727D-02  0.187503D-02 -0.703673D-02
     24  0.259115D-02 -0.467277D-02 -0.484387D-01 -0.474011D-03  0.167181D-02
     25 -0.141561D-01  0.368402D-01  0.169968D-01 -0.204248D-01 -0.450786D-01
     26  0.291322D-01 -0.193812D-01 -0.191615D-01 -0.322481D-01  0.744507D-01
     27 -0.160385D-02 -0.299723D-02  0.119615D-01 -0.541703D-02  0.211374D-01
     28  0.270168D+00  0.301343D+00 -0.764059D-01  0.323154D-01  0.827794D-01
     29  0.274934D+00  0.296047D+00 -0.872410D-01  0.822615D-01  0.172069D-02
     30 -0.158991D+00 -0.202864D+00  0.223378D-01  0.200495D-01  0.348501D-01
     31 -0.549568D-02  0.547802D-01  0.228728D-01  0.332114D-02  0.109271D-01
     32  0.606557D-01  0.681219D-01  0.512076D-01  0.148627D-01  0.162150D-01
     33  0.198970D-01  0.484736D-01 -0.145279D-01  0.319146D-02  0.330438D-02
     34  0.470581D+00  0.235942D+00  0.351571D+00  0.118858D-01  0.315549D-01
     35  0.257766D+00 -0.287895D+00  0.973340D-01  0.272882D-01 -0.252001D-01
     36  0.326056D+00  0.114589D+00 -0.307806D+00 -0.180622D-01 -0.156171D-01
     37  0.303146D-01 -0.738917D-01 -0.754411D-02 -0.126222D-01  0.145787D-02
     38 -0.730387D-01 -0.133679D-01  0.690248D-02 -0.112139D-01  0.299654D-02
     39 -0.370653D-01 -0.263963D-02  0.671219D-02 -0.219442D-02  0.506298D-03
     40 -0.339276D+01 -0.414766D+01 -0.210016D+01 -0.403687D-01  0.120578D+00
     41 -0.424570D+01 -0.452242D+01  0.152051D+01  0.152002D+00 -0.849392D-01
     42 -0.219412D+01  0.159557D+01 -0.729387D+01  0.239304D-01 -0.142747D+00
     43 -0.356296D+00 -0.253845D-01 -0.908204D-01 -0.354105D-01  0.161042D-03
     44  0.758041D-01 -0.150105D+00  0.339672D+00 -0.789120D-02 -0.304013D-01
     45  0.103549D+00  0.353364D+00  0.365888D+00 -0.427405D-01  0.334996D-01
     46 -0.504390D-02 -0.182585D-01 -0.176997D-01 -0.642103D-03 -0.711395D-05
     47 -0.560502D-02  0.232432D-01  0.184620D-01 -0.149113D-02 -0.763982D-03
     48 -0.908381D-02  0.864407D-02 -0.571793D-02  0.590906D-03 -0.172103D-02
                6             7             8             9            10
      6  0.112217D+01
      7 -0.115991D+00  0.158692D+01
      8 -0.113784D-01 -0.729118D+00  0.467236D+01
      9 -0.875124D-01 -0.113206D+01 -0.411763D+00  0.432398D+01
     10 -0.146036D-01  0.664587D-01 -0.171584D+00 -0.134109D-01  0.148477D+02
     11  0.159289D+00 -0.146807D+00 -0.119579D-01 -0.284587D-01  0.491410D+00
     12  0.111537D-01 -0.287368D-01 -0.602249D-01  0.175162D+00 -0.825466D+00
     13 -0.346405D-01 -0.109470D-01 -0.681902D-01  0.335512D-01 -0.485795D+01
     14 -0.121652D+00 -0.788913D-01 -0.474598D-01  0.448656D-01  0.547812D-01
     15  0.137125D+00  0.310009D-01  0.464844D-01  0.177792D-01 -0.398569D+00
     16  0.225956D-02 -0.234494D-01  0.904188D-02  0.711447D-02 -0.290038D+01
     17 -0.507766D-01  0.373896D-01  0.498734D-01  0.513209D-01 -0.235579D+01
     18  0.985264D-02  0.970113D-02  0.338823D-01 -0.210419D-01 -0.106615D+01
     19  0.121395D-01 -0.229047D-01 -0.308709D-01 -0.658395D-02  0.478692D-01
     20 -0.328640D-02 -0.719014D-02  0.408094D-01  0.500979D-02  0.643407D-01
     21  0.650268D-02 -0.433836D-02 -0.525601D-02 -0.210033D-01  0.588780D-01
     22 -0.215730D-02  0.245617D-03  0.260945D-02  0.116997D-02  0.109853D-01
     23 -0.581808D-02  0.119239D-01  0.108351D-01  0.578271D-02  0.312227D-01
     24  0.209880D-02 -0.586706D-03  0.269304D-03 -0.260825D-02  0.366801D-02
     25  0.586105D-02  0.574423D-03  0.891178D-03 -0.558783D-03  0.705334D-01
     26 -0.948983D-02  0.192915D-02 -0.882953D-02 -0.503615D-02  0.368434D-01
     27 -0.430006D-01  0.954934D-02 -0.113754D-02  0.526485D-02  0.870672D-02
     28 -0.187453D-01  0.841101D-01  0.922572D-01  0.298760D-01 -0.161620D+01
     29 -0.257918D-02  0.110124D+00  0.406376D-01  0.244077D-01  0.105507D+01
     30 -0.869292D-01  0.231002D-01  0.218001D-01 -0.373090D-01  0.250534D+01
     31 -0.533611D-02 -0.595176D-03 -0.488036D-02  0.130975D-03 -0.483239D-03
     32 -0.135500D-01  0.526688D-02 -0.721736D-03  0.241535D-02 -0.159300D+00
     33 -0.959463D-02  0.334792D-02 -0.190662D-02  0.246074D-02 -0.187778D+00
     34 -0.714619D-01  0.620742D-01  0.254102D-01  0.304478D-01  0.801000D+00
     35 -0.386523D-01  0.282711D-01 -0.167820D-01  0.133757D-01  0.159690D+00
     36 -0.113293D-01  0.303121D-01  0.628765D-02 -0.581695D-02  0.316489D-01
     37  0.569000D-02  0.610480D-01  0.110297D-01  0.687944D-02 -0.151406D+00
     38  0.109096D-01 -0.310140D-03 -0.136880D-01 -0.498850D-02  0.915053D-01
     39  0.668256D-02  0.423976D-02  0.742800D-03 -0.154375D-01  0.175567D-01
     40 -0.485945D-01  0.371393D+00  0.154453D+00  0.123661D+00 -0.482691D+00
     41 -0.111062D+00  0.112421D+00 -0.725118D-01 -0.306049D-01  0.128915D+00
     42  0.306372D+00  0.510359D-01 -0.145227D-01  0.404230D-01  0.834383D-01
     43 -0.235169D-01 -0.897683D-01 -0.851348D-02 -0.161548D-01 -0.185355D+00
     44  0.268218D-01 -0.455708D-01 -0.724136D-01  0.571826D-01 -0.116995D+00
     45  0.141582D+00 -0.100912D+00  0.600687D-01  0.235656D-02 -0.106148D+00
     46 -0.261229D-02  0.798920D-02 -0.324619D-02 -0.331630D-02 -0.132482D-01
     47  0.108603D-01 -0.192467D-01  0.136841D-02  0.218532D-02 -0.180151D-01
     48  0.587976D-03 -0.753556D-02  0.329632D-02 -0.880981D-03 -0.509935D-02
               11            12            13            14            15
     11  0.149768D+02
     12 -0.762439D+00  0.186357D+02
     13  0.235058D-01 -0.312140D+00  0.484218D+01
     14 -0.490302D+01 -0.349144D+00  0.157565D+00  0.457716D+01
     15 -0.117073D+00 -0.158596D+01  0.337089D+00  0.240652D+00  0.997316D+00
     16 -0.232884D+01 -0.104844D+01 -0.211471D-01  0.360604D-01  0.441765D-01
     17 -0.374276D+01  0.804570D+00  0.391659D-01  0.357064D-01 -0.235520D-01
     18  0.813002D+00 -0.527640D+01  0.621481D-01 -0.372311D-01  0.709380D-01
     19 -0.107375D-02  0.351136D-01 -0.318127D-01  0.138140D-01  0.108359D-01
     20  0.410293D-01  0.125322D-01  0.185680D-01  0.975766D-02 -0.103198D-01
     21 -0.594776D-02  0.708455D-01  0.238166D-01 -0.549305D-02 -0.672793D-03
     22  0.884023D-01  0.312787D-02  0.925701D-02  0.245816D-01  0.214314D-01
     23  0.845723D-01 -0.234050D-01  0.220212D-01 -0.234625D-01 -0.237377D-01
     24 -0.305694D-01  0.386080D-01  0.148717D-01 -0.300752D-01 -0.187298D-02
     25  0.195143D-01  0.624747D-01  0.140034D-02 -0.168089D-01 -0.885146D-01
     26  0.813036D-01 -0.690005D-01 -0.193764D-01 -0.299729D-01  0.460048D-01
     27 -0.152717D-01  0.898678D-01 -0.742502D-01  0.337014D-01  0.121425D+00
     28  0.773616D+00  0.243887D+01 -0.150497D-01 -0.811906D-01 -0.177561D+00
     29 -0.691930D+01  0.611450D+00 -0.121773D+00  0.169786D+00 -0.170309D+00
     30  0.559428D+00 -0.609536D+01 -0.170166D+00 -0.112880D+00  0.234795D+00
     31 -0.161565D+00 -0.209920D+00 -0.318750D-02  0.124653D-01  0.393550D-01
     32  0.126626D+00 -0.152187D+00  0.173889D-01 -0.694983D-02  0.487088D-01
     33 -0.124659D+00  0.223614D-01  0.299279D-01  0.233380D-01  0.497979D-01
     34  0.245354D+00 -0.307840D-01  0.633302D-01 -0.402167D-01  0.135072D+00
     35 -0.248355D+00 -0.277069D-01 -0.248821D-01 -0.521951D-01 -0.263951D-01
     36 -0.362007D-01 -0.801231D-01  0.531263D-01 -0.202127D-01  0.263515D-02
     37  0.176063D+00  0.422205D-01 -0.108121D-02  0.587439D-02 -0.472491D-02
     38 -0.703862D-01 -0.244269D-01  0.339415D-02  0.635847D-03 -0.901901D-02
     39 -0.131834D-01  0.411605D-01 -0.464520D-02  0.482211D-02 -0.455239D-02
     40  0.109577D+00  0.402711D-01 -0.836997D-01 -0.284879D-01  0.114132D-01
     41  0.822348D+00  0.217873D+00 -0.313166D-01  0.180608D+00 -0.111293D+00
     42  0.112750D+00 -0.178544D+00 -0.141618D-01 -0.264457D-01 -0.841606D-01
     43 -0.109977D+00 -0.960140D-01 -0.720451D-01  0.405764D-02 -0.687433D-03
     44  0.654294D-01  0.287982D+00  0.762832D-02  0.514348D-01  0.507833D-01
     45  0.222713D+00  0.228373D-01  0.368679D-02  0.110812D+00 -0.268065D-01
     46 -0.141119D-01 -0.940663D-02 -0.171827D-02 -0.469686D-03  0.231485D-02
     47  0.549368D-01  0.491270D-01  0.244867D-03 -0.169698D-03 -0.117293D-01
     48  0.309131D-01  0.407313D-03  0.387491D-03 -0.210865D-02 -0.395172D-02
               16            17            18            19            20
     16  0.127794D+02
     17  0.169039D+01  0.131040D+02
     18  0.566995D+00 -0.536895D+00  0.146067D+02
     19 -0.211567D+01  0.508589D+00  0.118642D+01  0.179041D+01
     20  0.335614D+00 -0.405877D+01  0.183687D+00 -0.279718D+00  0.393441D+01
     21  0.109046D+01  0.260790D+00 -0.347715D+01 -0.120973D+01 -0.156401D+00
     22 -0.394057D+01  0.496911D+00 -0.871386D-01  0.127127D-01 -0.724080D-01
     23  0.673010D+00 -0.157233D+01 -0.459852D+00 -0.584155D-01  0.975676D-02
     24 -0.108499D+00 -0.413156D+00 -0.397459D+01 -0.221689D-01 -0.365481D-01
     25 -0.404941D+01  0.866843D-01 -0.675920D+00  0.624484D-01  0.394453D-02
     26  0.349195D-01 -0.416947D+01 -0.106243D+00 -0.826351D-02  0.743209D-01
     27 -0.517472D+00 -0.279464D+00 -0.149456D+01 -0.562001D-01  0.553781D-02
     28  0.131864D+00  0.883810D-01  0.633967D-01  0.165616D+00 -0.262405D-01
     29 -0.276670D-01 -0.224464D-01 -0.634576D-01 -0.263655D-01 -0.454977D-01
     30  0.901550D-02 -0.388876D-01  0.156795D-01  0.545734D-01 -0.103979D-01
     31  0.414170D-01  0.284958D-02  0.266742D-01  0.372121D-02  0.158841D-02
     32  0.332517D-01 -0.231799D-01  0.188675D-01  0.990764D-02  0.635046D-03
     33  0.412174D-01  0.952501D-02 -0.188424D-01  0.729147D-02  0.187568D-02
     34  0.295175D+00 -0.192828D+00  0.150371D-01  0.398863D-01 -0.534195D-04
     35 -0.203567D+00 -0.978522D-01 -0.681295D-02 -0.128754D-01 -0.877561D-02
     36  0.357681D-02 -0.356923D-02 -0.175142D+00  0.926436D-02  0.101304D-02
     37  0.125997D-01 -0.176563D-01 -0.404602D-02  0.195720D-02 -0.177675D-02
     38 -0.382182D-01  0.115736D-01  0.280415D-02 -0.849164D-02 -0.739128D-03
     39 -0.109705D-01  0.842839D-02 -0.137759D-01 -0.242082D-02 -0.191772D-03
     40 -0.380392D-01 -0.241366D+00 -0.477376D-01  0.258687D-01 -0.234385D-01
     41 -0.223975D+00  0.229776D+00  0.803854D-01 -0.494810D-01  0.894559D-02
     42 -0.483405D-01  0.748754D-01 -0.155472D+00 -0.678001D-02  0.365822D-02
     43 -0.679942D-01 -0.664536D-01 -0.509499D-01  0.105030D-01 -0.103420D-01
     44 -0.522768D-01  0.417658D-01  0.103463D+00 -0.235741D-01 -0.111552D-02
     45 -0.295539D-01  0.102373D+00 -0.220765D-01 -0.993228D-02  0.538739D-02
     46 -0.429566D-02 -0.540479D-02 -0.314457D-02  0.214321D-02 -0.995654D-03
     47 -0.168414D-02  0.109808D-01  0.908710D-02 -0.801680D-02  0.117288D-02
     48 -0.911017D-03  0.491878D-02 -0.246239D-02 -0.117129D-02  0.608626D-03
               21            22            23            24            25
     21  0.350100D+01
     22 -0.127186D-02  0.385611D+01
     23 -0.102886D-01 -0.440804D+00  0.119832D+01
     24  0.626536D-01  0.380644D-01  0.414538D+00  0.399283D+01
     25 -0.773221D-01  0.744486D-01 -0.428205D-01  0.493815D-01  0.381503D+01
     26 -0.260483D-01 -0.267939D-01  0.198304D-01  0.106511D+00  0.310822D-01
     27 -0.637449D-01  0.234446D-01  0.876148D-01 -0.290734D-02  0.715932D+00
     28  0.593919D-01  0.159394D-01 -0.461945D-01 -0.829295D-03  0.778988D-02
     29 -0.118725D-01 -0.988601D-02  0.379226D-02 -0.233222D-02 -0.390437D-01
     30 -0.291896D-01 -0.170471D-01  0.169888D-01 -0.312149D-01  0.270361D-01
     31  0.311674D-02  0.184463D-01 -0.221771D-01  0.155230D-01  0.287440D-01
     32  0.558303D-02 -0.408024D-02 -0.190748D-01  0.802119D-03  0.152910D-01
     33  0.249712D-02  0.158266D-01 -0.161734D-01 -0.289682D-02  0.408665D-02
     34  0.207057D-01  0.634215D-02 -0.557116D-01  0.962263D-02  0.319808D-01
     35 -0.394268D-02 -0.188331D-01  0.212901D-01 -0.736666D-02 -0.149614D-01
     36 -0.521671D-02  0.382727D-02 -0.104214D-01 -0.148421D-01 -0.145074D-01
     37  0.272708D-03 -0.287761D-03 -0.765154D-03 -0.285077D-03 -0.206624D-02
     38 -0.308065D-02 -0.328526D-02  0.113451D-01 -0.134674D-02 -0.453693D-02
     39 -0.232003D-02 -0.606188D-03  0.380162D-02 -0.180981D-02 -0.212023D-02
     40  0.103521D-01 -0.921451D-02 -0.133558D-01  0.119512D-02 -0.154909D-02
     41 -0.119059D-01  0.393037D-02  0.286584D-01 -0.432362D-02 -0.227405D-01
     42 -0.175091D-01  0.369021D-02  0.831021D-03 -0.946636D-02 -0.133038D-01
     43  0.325884D-03 -0.837491D-02 -0.801863D-02 -0.209063D-02 -0.546929D-02
     44  0.154498D-02 -0.202771D-02  0.229133D-01  0.668051D-02 -0.606331D-02
     45 -0.108274D-01 -0.424632D-02  0.174519D-01 -0.519224D-02 -0.875744D-02
     46  0.592440D-03 -0.706918D-03 -0.201995D-02  0.157794D-04  0.120175D-03
     47 -0.226383D-02  0.927078D-03  0.752616D-02 -0.827762D-04 -0.219379D-02
     48 -0.854262D-03 -0.491364D-04  0.111986D-02 -0.346208D-03 -0.764440D-03
               26            27            28            29            30
     26  0.400629D+01
     27  0.574194D-01  0.140093D+01
     28 -0.165555D-01 -0.440374D-02  0.966268D+01
     29 -0.186811D-01  0.180649D-01  0.433585D+01  0.136268D+02
     30 -0.875046D-02 -0.283233D-01 -0.234780D+01 -0.266999D+01  0.205384D+02
     31  0.390541D-02 -0.128601D-01 -0.452503D+01  0.510392D+00  0.294059D+00
     32 -0.875720D-02 -0.114416D-01  0.473440D+00 -0.229525D+01  0.145963D+01
     33  0.860496D-03 -0.156981D-01  0.267129D+00  0.144401D+01 -0.360551D+01
     34 -0.123691D-01 -0.477884D-01 -0.407002D+01 -0.647058D+01 -0.416777D+00
     35 -0.126389D-01  0.138334D-01 -0.609341D+01 -0.529363D+01  0.789382D+00
     36  0.433144D-02 -0.727643D-02 -0.312353D+00  0.670046D+00 -0.108837D+02
     37  0.384635D-03  0.329301D-03  0.195643D+00  0.349383D-01  0.591985D-01
     38 -0.177037D-03  0.719506D-02 -0.726473D-01  0.132391D+00 -0.122893D+00
     39  0.286051D-03  0.280395D-02 -0.480061D-02 -0.663528D-01  0.828333D-01
     40 -0.175402D-01 -0.252015D-01 -0.245126D+00  0.233879D+00  0.792955D-01
     41  0.113719D-01  0.420190D-01  0.128819D+00  0.253663D+00  0.156422D+00
     42  0.199407D-01  0.101801D-01 -0.187924D-01  0.283978D+00 -0.245577D-01
     43 -0.430436D-02 -0.104912D-01 -0.889678D-01  0.609689D-01  0.391587D-01
     44 -0.110318D-02  0.163433D-01  0.655071D-01  0.470794D-01  0.109128D+00
     45  0.745333D-02  0.118409D-01  0.103328D+00  0.105683D-01 -0.751568D-01
     46 -0.745339D-03 -0.227406D-02 -0.571847D-02 -0.310293D-02 -0.455977D-04
     47  0.144840D-02  0.744516D-02 -0.574956D-02  0.228874D-01  0.190386D-01
     48  0.922493D-03  0.123172D-02 -0.304407D-03  0.116106D-01  0.320620D-02
               31            32            33            34            35
     31  0.454773D+01
     32 -0.637845D+00  0.197046D+01
     33 -0.241093D+00 -0.159534D+01  0.343829D+01
     34 -0.696847D-01  0.155710D+00  0.239397D-01  0.840338D+01
     35  0.217850D+00  0.762191D-03  0.910863D-01  0.373820D+01  0.815386D+01
     36  0.591009D-01  0.821235D-01  0.138025D+00 -0.124500D+01 -0.337052D+01
     37 -0.235788D-01 -0.858515D-02 -0.420568D-02 -0.600942D+01  0.136691D+01
     38 -0.111339D-01  0.106497D+00  0.635389D-01  0.182478D+01 -0.215038D+01
     39 -0.621375D-02  0.522284D-01  0.843301D-02  0.860485D+00  0.206230D+01
     40 -0.906783D-02  0.143056D-01  0.705613D-02  0.187939D-02  0.349881D+00
     41  0.146024D-01  0.416784D-01  0.263005D-01  0.317666D+00  0.455136D-01
     42  0.311085D-02  0.234304D-01 -0.109350D-01  0.181328D+00  0.249304D-01
     43 -0.551552D-02  0.107883D-01  0.109138D-01 -0.271756D-01  0.213296D+00
     44  0.648309D-02  0.142147D-01  0.200602D-01  0.159772D+00 -0.575751D-01
     45  0.109328D-01  0.253278D-01  0.153990D-01  0.171591D+00  0.368494D+00
     46 -0.744547D-03 -0.105829D-02 -0.747603D-03 -0.112064D-01  0.938016D-02
     47  0.175830D-02  0.872254D-02  0.570345D-02  0.373710D-01  0.298548D-01
     48  0.546673D-03  0.219363D-02  0.733918D-03  0.120151D-01  0.206576D-01
               36            37            38            39            40
     36  0.171149D+02
     37  0.663776D+00  0.597138D+01
     38  0.216025D+01 -0.236407D+01  0.242633D+01
     39 -0.557408D+01 -0.108497D+01 -0.229439D+01  0.637622D+01
     40  0.145057D+00 -0.337674D-01  0.681700D+00  0.239015D+00  0.605571D+01
     41  0.160010D+00  0.860921D+00 -0.373127D+00  0.218086D+00  0.271283D+01
     42 -0.339453D+00  0.334916D+00  0.267255D+00 -0.902957D+00  0.124210D+01
     43  0.258062D+00 -0.384273D-01 -0.121643D-01  0.370426D-01 -0.201948D+01
     44  0.219434D+00  0.105830D-01 -0.649054D-01  0.282543D-01  0.986887D-01
     45  0.147838D+00 -0.458579D-02 -0.540863D-01 -0.571529D-02  0.316587D+00
     46  0.611737D-02 -0.286556D-03 -0.226018D-02 -0.232800D-02 -0.990849D-01
     47  0.384533D-01 -0.141074D-02 -0.500116D-02 -0.269431D-02 -0.404479D-02
     48  0.131090D-02 -0.291720D-02 -0.461978D-02 -0.419089D-02  0.568979D-02
               41            42            43            44            45
     41  0.548691D+01
     42 -0.245788D+01  0.731744D+01
     43  0.163683D+00  0.397708D+00  0.876253D+01
     44 -0.213315D+01  0.382999D-01  0.891594D+00  0.405369D+01
     45  0.221746D+00  0.137938D+01 -0.397833D+00 -0.172884D+01  0.380362D+01
     46 -0.225850D-01 -0.257598D-01 -0.577275D+01 -0.106166D+01 -0.496504D-02
     47  0.766828D-01  0.196076D+00 -0.109939D+01 -0.178576D+01  0.243667D+00
     48  0.837102D-01 -0.368772D-01 -0.546529D-01  0.423189D+00 -0.574497D+01
               46            47            48
     46  0.590520D+01
     47  0.112655D+01  0.155287D+01
     48  0.632592D-01 -0.583334D+00  0.579277D+01
 ReadGW:  IGet=0 IStart=         114 Next=        7255 LGW=        7141.
 ICntrl=12127.
 Symmetry not used in FoFDir.
 MinBra= 0 MaxBra= 2 Meth= 1.
 IRaf=       0 NMat=   1 IRICut=       1 DoRegI=T DoRafI=F ISym2E= 0 JSym2E=0.
 PrsmSu:  NPrtUS=   8 ThrOK=T
 PRISM was handed    24479965 working-precision words and  2442 shell-pairs
 PRISM was handed    24479965 working-precision words and  2442 shell-pairs
 PRISM was handed    24479965 working-precision words and  2442 shell-pairs
 PRISM was handed    24479965 working-precision words and  2442 shell-pairs
 PRISM was handed    24479965 working-precision words and  2442 shell-pairs
 PRISM was handed    24479965 working-precision words and  2442 shell-pairs
 PRISM was handed    24479965 working-precision words and  2442 shell-pairs
 PRISM was handed    24479965 working-precision words and  2442 shell-pairs
 Pruned (  75, 302) grid will be used in CalDFT.
 CkSvGd:  ISavGI=        -1 IRadAn=       4 IRASav=       4 ISavGd=        -1.
 CalDSu:  NPrtUS=   8 ThrOK=T
 IPart= 0 IRanGd=          0 ScrnBf=T ScrnGd=T RCrit=4.00D+00 DoMicB=T.
 IPart= 7 IRanGd=          0 ScrnBf=T ScrnGd=T RCrit=4.00D+00 DoMicB=T.
 IPart= 6 IRanGd=          0 ScrnBf=T ScrnGd=T RCrit=4.00D+00 DoMicB=T.
 IPart= 5 IRanGd=          0 ScrnBf=T ScrnGd=T RCrit=4.00D+00 DoMicB=T.
 IPart= 1 IRanGd=          0 ScrnBf=T ScrnGd=T RCrit=4.00D+00 DoMicB=T.
 IPart= 3 IRanGd=          0 ScrnBf=T ScrnGd=T RCrit=4.00D+00 DoMicB=T.
 CutRad = 1000.00    CtRdIn =    0.00    XCrit =  15.00   ICut = 0
 CutRad = 1000.00    CtRdIn =    0.00    XCrit =  15.00   ICut = 0
 IPart= 4 IRanGd=          0 ScrnBf=T ScrnGd=T RCrit=4.00D+00 DoMicB=T.
 IPart= 2 IRanGd=          0 ScrnBf=T ScrnGd=T RCrit=4.00D+00 DoMicB=T.
 CutRad = 1000.00    CtRdIn =    0.00    XCrit =  15.00   ICut = 0
 CutRad = 1000.00    CtRdIn =    0.00    XCrit =  15.00   ICut = 0
 CutRad = 1000.00    CtRdIn =    0.00    XCrit =  15.00   ICut = 0
 CutRad = 1000.00    CtRdIn =    0.00    XCrit =  15.00   ICut = 0
 CutRad = 1000.00    CtRdIn =    0.00    XCrit =  15.00   ICut = 0
 CutRad = 1000.00    CtRdIn =    0.00    XCrit =  15.00   ICut = 0
 IPart= 4        13302 of        15382 points in      32 batches and       96 microbatches, Max-NSigAt=      16 Max-NSgAt2=      16
 IPart= 7        13412 of        15224 points in      30 batches and       82 microbatches, Max-NSigAt=      16 Max-NSgAt2=      16
 IPart= 2        14272 of        15844 points in      32 batches and      103 microbatches, Max-NSigAt=      16 Max-NSgAt2=      16
 IPart= 1        13926 of        16226 points in      34 batches and       88 microbatches, Max-NSigAt=      16 Max-NSgAt2=      16
 IPart= 3        15366 of        17396 points in      37 batches and      104 microbatches, Max-NSigAt=      16 Max-NSgAt2=      16
 IPart= 6        13820 of        15876 points in      33 batches and      111 microbatches, Max-NSigAt=      16 Max-NSgAt2=      16
 IPart= 5        13107 of        15290 points in      33 batches and      105 microbatches, Max-NSigAt=      16 Max-NSgAt2=      16
 IPart= 0        15128 of        16990 points in      34 batches and       93 microbatches, Max-NSigAt=      16 Max-NSgAt2=      16
 Polarizability after L703:
                1             2             3
      1  0.667993D+02
      2  0.202780D+02  0.133240D+03
      3  0.137342D+02  0.511400D+02  0.854993D+02
 Dipole Derivatives after L703:
               1            2            3            4            5
      1 0.608412D+00-0.532980D+00-0.654715D-01-0.294084D-01 0.135765D+00
      2 0.853831D+00-0.684602D+00 0.880785D-01-0.219496D+00 0.214807D+00
      3 0.373877D+00-0.507914D+00 0.385232D+00-0.857640D-01 0.628023D-01
               6            7            8            9           10
      1 0.105806D+00-0.863820D-01 0.440575D-01-0.124120D+00-0.699778D-01
      2 0.173465D+00-0.380580D-01 0.243021D+00-0.981684D-01-0.229428D+00
      3-0.112680D+00-0.116580D-01 0.856443D-01 0.595779D-02-0.792121D-01
              11           12           13           14           15
      1-0.158780D-01-0.288571D-01 0.521702D-01-0.690681D-02 0.349188D-01
      2 0.224544D+00 0.599221D-01 0.220801D+00-0.162558D-01 0.109780D+00
      3 0.113216D+00 0.656151D-01 0.132274D+00-0.396268D-01-0.513930D-01
              16           17           18           19           20
      1 0.923683D-01 0.951996D-01-0.525597D-03-0.650444D-01-0.600465D-01
      2 0.894303D-01 0.275154D+00 0.571581D-01 0.799982D-01 0.199997D-01
      3 0.450460D-01 0.908629D-01 0.167127D+00-0.185327D-01-0.579664D-01
              21           22           23           24           25
      1-0.895805D-01 0.185605D-01 0.116136D-01 0.228955D-01 0.377036D-01
      2-0.100219D-01-0.122762D+00-0.920394D-01 0.242925D-01-0.178624D-01
      3 0.238261D-01-0.911883D-02 0.452401D-01 0.602956D-01-0.169887D-01
              26           27           28           29           30
      1-0.564608D-02 0.620036D-01 0.115384D+01-0.980411D+00-0.297079D-01
      2 0.318589D-01-0.236412D-01 0.107160D+01-0.158946D+01-0.476942D+00
      3 0.445302D-01-0.148015D+00 0.863893D+00-0.941433D+00-0.294380D+00
              31           32           33           34           35
      1 0.778897D-01 0.256870D-01-0.568942D-01-0.137002D+01 0.115502D+01
      2 0.945642D-01 0.328638D-01-0.171818D-01-0.120797D+01 0.180931D+01
      3 0.204035D-01-0.588852D-01 0.123099D+00-0.871611D+00 0.129146D+01
              36           37           38           39           40
      1 0.204708D+00 0.133477D+00-0.278703D+00-0.155231D+00-0.226568D+00
      2 0.528132D+00-0.805372D+00-0.729096D+00-0.459763D+00 0.911156D+00
      3 0.624582D-01-0.418376D+00-0.553326D+00-0.495166D-01 0.432664D+00
              41           42           43           44           45
      1 0.446192D+00 0.127082D+01-0.608390D+00-0.138248D+00-0.112763D+01
      2 0.526808D+00 0.367067D+01-0.668335D+00-0.607729D+00-0.363749D+01
      3 0.552274D+00 0.187896D+01-0.290375D+00-0.301225D+00-0.234887D+01
              46           47           48
      1 0.281365D+00 0.105283D+00-0.231324D-01
      2-0.120979D-01 0.340825D+00 0.117105D-01
      3-0.665212D-01 0.174344D+00 0.232290D+00
 Hessian after L703:
                1             2             3             4             5
      1  0.525328D+00
      2  0.530687D-01  0.374457D+00
      3  0.565408D-01 -0.194914D-02  0.555663D+00
      4 -0.444106D-01 -0.114376D-01  0.835390D-02  0.512622D-01
      5 -0.456372D-02 -0.522973D-01  0.442579D-01 -0.105572D-02  0.613921D-01
      6  0.310555D-02  0.477208D-01 -0.268742D+00 -0.190431D-01 -0.431378D-01
      7 -0.233707D+00 -0.584946D-01 -0.995534D-01  0.387891D-02 -0.156851D-03
      8 -0.644259D-01 -0.554908D-01 -0.306798D-01  0.646279D-02  0.157120D-02
      9 -0.106235D+00 -0.301670D-01 -0.985854D-01 -0.261961D-01 -0.610741D-02
     10 -0.856720D-01 -0.230645D-01  0.463736D-02  0.675589D-03 -0.143706D-02
     11 -0.371881D-01 -0.108407D+00  0.151364D-01 -0.462052D-03 -0.719033D-02
     12  0.104362D-01  0.263077D-01 -0.780969D-01  0.842875D-02  0.293545D-01
     13 -0.276500D-02  0.224811D-02  0.975841D-02  0.101440D-02 -0.241592D-02
     14 -0.497609D-02 -0.125399D-01  0.350819D-01 -0.182732D-02 -0.618500D-02
     15  0.102714D-02  0.615622D-02 -0.108511D-01  0.132123D-02  0.100990D-02
     16  0.458577D-02  0.561380D-02 -0.324664D-02  0.282976D-03 -0.117729D-02
     17  0.214779D-01 -0.147522D-01 -0.103013D-01  0.981976D-03  0.965000D-03
     18 -0.458934D-02  0.150468D-02  0.874477D-03 -0.245015D-03  0.676091D-03
     19 -0.830780D-03 -0.120634D-03 -0.487825D-03  0.310603D-03 -0.238357D-03
     20  0.140983D-02  0.375761D-03  0.882603D-03 -0.129679D-03  0.729706D-04
     21 -0.501621D-03  0.328554D-03 -0.113514D-03 -0.260347D-04 -0.533376D-04
     22 -0.328395D-02 -0.140986D-02  0.163700D-02 -0.262256D-03  0.224703D-03
     23  0.282001D-02  0.237360D-02 -0.214599D-02  0.149591D-03 -0.126304D-03
     24  0.152918D-02 -0.160570D-03 -0.545203D-03 -0.191946D-04 -0.413400D-03
     25  0.101936D-02 -0.199218D-02  0.324111D-03  0.191365D-04  0.544362D-03
     26  0.258412D-03  0.783241D-03 -0.183449D-02  0.643534D-04 -0.434486D-04
     27 -0.645829D-05  0.473075D-03  0.251315D-04 -0.115098D-03 -0.706350D-03
     28 -0.233688D-01 -0.733749D-02 -0.959908D-02  0.505010D-02 -0.246277D-02
     29 -0.576521D-02 -0.516109D-01 -0.167187D-01 -0.520565D-02  0.836611D-02
     30  0.914168D-02 -0.227884D-01  0.561986D-02 -0.361857D-02  0.209954D-02
     31 -0.417141D-02  0.205703D-02 -0.172259D-02  0.183200D-03 -0.805777D-03
     32  0.172947D-03 -0.921429D-04  0.224351D-03 -0.176511D-03 -0.529156D-03
     33 -0.461006D-02  0.540553D-02 -0.291967D-02  0.868245D-03  0.125603D-03
     34  0.191099D-01 -0.200851D-01  0.215350D-02 -0.562818D-02  0.473675D-02
     35 -0.279938D-01  0.345651D-01 -0.737617D-02  0.842359D-02 -0.848357D-02
     36 -0.530368D-02  0.667178D-02 -0.418504D-02  0.242277D-02 -0.243050D-02
     37 -0.273132D-02 -0.127795D-01  0.695485D-02 -0.376241D-02  0.351202D-02
     38  0.143677D-01 -0.979099D-02  0.936683D-02 -0.458474D-02  0.450234D-02
     39  0.645982D-02 -0.518363D-02  0.665031D-02 -0.120579D-02  0.197164D-02
     40 -0.161282D+00  0.867325D-01  0.453614D-02 -0.499955D-02  0.756995D-03
     41  0.461174D-01 -0.983717D-01 -0.193318D-01  0.101190D-01 -0.157058D-02
     42 -0.297177D-01  0.399260D-01 -0.886477D-01  0.427113D-01 -0.353099D-01
     43  0.125349D-01 -0.128773D-01  0.199177D-01 -0.368127D-02  0.446498D-02
     44  0.608046D-02 -0.111989D-01 -0.147219D-01 -0.143176D-02 -0.396778D-03
     45  0.619411D-01 -0.723570D-01 -0.978409D-02 -0.139856D-01  0.953970D-02
     46 -0.354817D-03 -0.121372D-03 -0.204199D-03  0.670966D-04  0.736381D-04
     47 -0.860568D-03  0.199726D-02  0.109393D-03  0.109798D-03 -0.472032D-04
     48  0.782393D-03 -0.188869D-02 -0.636245D-02  0.348316D-03 -0.876166D-03
                6             7             8             9            10
      6  0.299783D+00
      7  0.452040D-03  0.264745D+00
      8  0.311534D-02  0.556360D-01  0.707666D-01
      9 -0.125905D-01  0.107494D+00  0.306528D-01  0.102097D+00
     10  0.233348D-03 -0.677206D-02 -0.288876D-01  0.759913D-02  0.494151D+00
     11  0.780951D-03 -0.406886D-02 -0.142829D-01  0.571846D-02 -0.386334D-01
     12 -0.656353D-02 -0.407882D-02 -0.128488D-01  0.359610D-02 -0.558317D-02
     13 -0.742972D-04  0.212680D-03 -0.229267D-03  0.706034D-03 -0.490913D-01
     14  0.142597D-02  0.484952D-03  0.225173D-02 -0.653676D-03  0.192076D-02
     15  0.499233D-03  0.128489D-03 -0.569041D-03  0.969217D-03  0.331361D-01
     16 -0.852024D-04  0.516342D-03 -0.128020D-02  0.165520D-03 -0.135031D+00
     17 -0.345043D-03  0.483578D-03  0.677590D-03 -0.171921D-04  0.461836D-01
     18  0.112259D-03 -0.163045D-03 -0.451036D-03  0.186861D-03  0.245949D-01
     19 -0.903563D-04  0.532950D-03  0.583396D-03  0.117015D-03 -0.203251D-01
     20  0.476781D-04 -0.249421D-03 -0.305129D-03 -0.302358D-03  0.179836D-01
     21  0.504499D-05 -0.677146D-04  0.152470D-03  0.233161D-03  0.993825D-02
     22 -0.131884D-04  0.238923D-03  0.426340D-03  0.104440D-03  0.630073D-02
     23  0.634568D-04 -0.500526D-04  0.167065D-03  0.331500D-04 -0.445336D-02
     24  0.329511D-03  0.160963D-03  0.274963D-03 -0.119341D-03 -0.330377D-02
     25 -0.374629D-03  0.111551D-04  0.287964D-03 -0.214800D-03 -0.564920D-02
     26  0.677063D-03 -0.988881D-04  0.253335D-05 -0.776273D-04  0.391632D-02
     27  0.408460D-03  0.000000D+00  0.594824D-04 -0.165307D-03  0.233392D-02
     28 -0.284653D-02  0.112484D-02 -0.176509D-02  0.122715D-02 -0.163548D+00
     29  0.566142D-02 -0.179114D-02  0.360021D-03 -0.127022D-03 -0.226351D-01
     30  0.386704D-03  0.761733D-03  0.526567D-02 -0.988514D-03 -0.619529D-01
     31 -0.828394D-04 -0.724082D-04 -0.130632D-02  0.458654D-03  0.249928D-02
     32 -0.236646D-03 -0.132996D-03  0.192635D-03 -0.181588D-04  0.360473D-02
     33  0.278529D-03 -0.338236D-03 -0.160427D-02  0.692770D-03  0.147075D-02
     34  0.296271D-02  0.134312D-03  0.451936D-02 -0.180650D-02 -0.344167D-01
     35 -0.572451D-02 -0.260710D-03 -0.610564D-02  0.320887D-02  0.126755D-01
     36 -0.178639D-04 -0.276922D-03 -0.180853D-02  0.988276D-03 -0.906040D-02
     37  0.138500D-02  0.975792D-03  0.248351D-02 -0.116810D-02 -0.458321D-02
     38  0.155898D-02  0.222500D-02  0.166006D-02 -0.238265D-02 -0.446669D-02
     39 -0.517613D-04  0.913185D-03  0.106730D-02 -0.122205D-02 -0.161584D-02
     40  0.124320D-01 -0.343916D-01  0.254478D-01  0.175117D-01  0.211686D-02
     41 -0.117455D-01  0.735519D-02 -0.243185D-02  0.833607D-03  0.357107D-01
     42 -0.221900D-01 -0.188174D-02 -0.629133D-02  0.879908D-02  0.726691D-02
     43  0.159804D-02  0.246472D-02  0.133285D-02  0.195105D-03 -0.328007D-03
     44  0.664222D-05 -0.474430D-03  0.150372D-02 -0.528493D-03  0.112670D-02
     45  0.861877D-02 -0.341866D-02  0.133983D-01 -0.353219D-02 -0.108100D-01
     46  0.441476D-03  0.106993D-03  0.714410D-03  0.414792D-04 -0.327055D-03
     47  0.131268D-03 -0.406767D-03 -0.536783D-03 -0.652930D-04  0.455713D-03
     48 -0.266197D-03 -0.132695D-03  0.266521D-03 -0.358945D-03  0.111532D-02
               11            12            13            14            15
     11  0.422278D+00
     12  0.174409D-01  0.523686D+00
     13 -0.519548D-03  0.213423D-01  0.577540D-01
     14 -0.398160D-01  0.121107D-01  0.228881D-02  0.527621D-01
     15  0.170894D-01 -0.274557D+00 -0.286977D-01 -0.160252D-01  0.305022D+00
     16  0.446765D-01  0.245614D-01 -0.506184D-02  0.408084D-02  0.200886D-02
     17 -0.121111D+00 -0.208006D-01 -0.131919D-02  0.549814D-03 -0.429489D-03
     18 -0.209918D-01 -0.874373D-01  0.247352D-01 -0.208327D-01 -0.732019D-02
     19 -0.545553D-02 -0.121796D-01  0.422201D-03 -0.492919D-03  0.128861D-03
     20  0.406714D-02  0.117417D-01 -0.752916D-03  0.824396D-03  0.230142D-03
     21  0.279770D-02  0.524774D-02 -0.804785D-04  0.638154D-03  0.481029D-03
     22  0.263757D-01 -0.572262D-02  0.106028D-02 -0.906783D-03 -0.180295D-03
     23 -0.193356D-01  0.385703D-02 -0.376163D-03  0.473235D-03 -0.470163D-03
     24 -0.106705D-01  0.103859D-02 -0.718369D-03 -0.876520D-04  0.213201D-03
     25 -0.233837D-02  0.249667D-01 -0.320803D-02  0.302626D-02  0.692944D-03
     26  0.180559D-02 -0.212115D-01  0.352609D-02 -0.216093D-02 -0.905155D-03
     27 -0.420034D-04 -0.854717D-02  0.168140D-02 -0.125191D-02  0.944439D-03
     28 -0.233204D-01 -0.543590D-01 -0.302070D-02 -0.812115D-03 -0.105609D-01
     29 -0.799292D-01 -0.268613D-01  0.323502D-02 -0.235215D-02 -0.332335D-02
     30 -0.275153D-01 -0.951270D-01 -0.284074D-01 -0.101898D-01 -0.151855D-01
     31 -0.153101D-01 -0.108544D-01 -0.213612D-02 -0.112625D-02 -0.603374D-03
     32  0.250610D-02 -0.230561D-02 -0.714870D-03 -0.784995D-03  0.103161D-02
     33 -0.110491D-01  0.205099D-02 -0.881167D-03  0.456988D-03 -0.192813D-02
     34  0.347355D-01  0.205699D-02  0.264530D-02 -0.857930D-03  0.118507D-02
     35 -0.755602D-02  0.124702D-03 -0.657574D-02  0.236521D-02 -0.206768D-02
     36  0.108796D-01  0.117129D-01  0.193124D-02  0.743838D-03  0.108445D-02
     37  0.517897D-02 -0.421343D-03  0.254169D-02 -0.252809D-03  0.102554D-02
     38  0.668520D-02 -0.116459D-02  0.379281D-02 -0.795905D-03  0.212332D-02
     39  0.415207D-02 -0.161952D-02  0.152238D-03 -0.101862D-03 -0.386780D-04
     40  0.120579D-01  0.235315D-02 -0.195783D-02  0.493902D-03 -0.198400D-02
     41 -0.428126D-01 -0.161258D-01 -0.282715D-02  0.655404D-02 -0.315116D-02
     42 -0.239134D-01  0.593672D-02 -0.116806D-01  0.312716D-02 -0.528140D-02
     43  0.437045D-02 -0.901077D-03  0.166671D-02 -0.933052D-03  0.124358D-02
     44  0.395052D-02 -0.785060D-03  0.104996D-02 -0.138019D-02  0.306749D-03
     45  0.185983D-01 -0.241007D-02  0.100237D-01 -0.353133D-02  0.661002D-02
     46 -0.985899D-04 -0.454739D-04 -0.764497D-04 -0.110270D-03  0.128356D-03
     47 -0.852179D-03  0.116605D-02 -0.410039D-03  0.234539D-03 -0.100608D-02
     48  0.158833D-02  0.108920D-02  0.209484D-03 -0.910488D-03 -0.661587D-03
               16            17            18            19            20
     16  0.514199D+00
     17  0.477004D-01  0.526996D+00
     18  0.258319D-01 -0.178951D-01  0.554339D+00
     19 -0.230708D+00 -0.444640D-01 -0.111866D+00  0.252122D+00
     20 -0.455547D-01 -0.572135D-01 -0.279635D-01  0.466469D-01  0.605016D-01
     21 -0.113598D+00 -0.274636D-01 -0.116246D+00  0.122430D+00  0.314216D-01
     22 -0.637866D-01 -0.651771D-01  0.125997D-01 -0.660735D-02 -0.259353D-01
     23 -0.642853D-01 -0.282213D+00  0.456484D-01 -0.179845D-02 -0.550104D-02
     24  0.125077D-01  0.465111D-01 -0.557537D-01 -0.366732D-02 -0.168830D-01
     25 -0.564828D-01 -0.512478D-02  0.451591D-01  0.651434D-02  0.376109D-02
     26 -0.536085D-02 -0.506980D-01  0.264584D-01  0.180297D-02 -0.190680D-03
     27  0.460470D-01  0.257795D-01 -0.293117D+00  0.312500D-02  0.209134D-02
     28 -0.298495D-01 -0.171437D-02 -0.104603D-01 -0.223370D-02  0.211074D-02
     29  0.253102D-01  0.103028D-01  0.129228D-01  0.618782D-02 -0.434605D-02
     30  0.852788D-02  0.795158D-02  0.454775D-02  0.329279D-02 -0.211865D-02
     31  0.188409D-02 -0.156862D-02 -0.102850D-03  0.257713D-04  0.363949D-03
     32  0.127818D-03  0.634986D-03  0.199290D-03 -0.142370D-03  0.161041D-04
     33  0.374178D-03 -0.465484D-03  0.212604D-03 -0.727543D-04  0.275324D-03
     34 -0.303728D-02 -0.375971D-03 -0.473458D-02 -0.495004D-03  0.118077D-02
     35 -0.299338D-02 -0.514873D-02 -0.107007D-02 -0.221554D-02  0.120470D-02
     36 -0.274225D-02 -0.468074D-02 -0.973202D-03 -0.130673D-02  0.758569D-03
     37  0.334045D-03  0.191607D-02  0.693131D-03  0.839571D-03 -0.371479D-03
     38  0.683840D-04  0.188064D-02  0.220008D-03  0.596468D-03 -0.117813D-03
     39  0.236720D-04  0.136830D-02 -0.259568D-03  0.358719D-03 -0.116279D-03
     40  0.132325D-02 -0.114133D-02 -0.210841D-02 -0.419892D-03 -0.841603D-04
     41 -0.714568D-02 -0.122198D-01  0.177289D-02 -0.102306D-02  0.685825D-03
     42 -0.481569D-02 -0.110446D-01 -0.194606D-02 -0.373734D-02  0.159208D-02
     43  0.772870D-03  0.199877D-02  0.604903D-03  0.796701D-03 -0.362663D-03
     44  0.332733D-03  0.167215D-02  0.205078D-03  0.369007D-03 -0.150163D-03
     45  0.426788D-02  0.116184D-01  0.275774D-02  0.395059D-02 -0.163175D-02
     46  0.585002D-04  0.143060D-03  0.507354D-04  0.559216D-04 -0.165716D-04
     47 -0.113297D-03 -0.322549D-03 -0.403381D-03 -0.235619D-03  0.758862D-04
     48  0.171303D-03  0.214262D-03  0.225027D-04  0.506623D-05 -0.254827D-04
               21            22            23            24            25
     21  0.122212D+00
     22  0.633451D-02  0.684828D-01
     23  0.936643D-03  0.682951D-01  0.307683D+00
     24  0.293702D-02 -0.149106D-01 -0.491076D-01  0.561017D-01
     25 -0.267490D-01 -0.246769D-02 -0.610751D-03  0.849003D-02  0.594248D-01
     26 -0.718686D-02 -0.483565D-02 -0.191250D-02  0.308631D-01  0.244716D-02
     27 -0.150154D-01  0.394882D-03  0.732489D-03 -0.483318D-02 -0.527493D-01
     28  0.830427D-03  0.200373D-02 -0.249844D-02 -0.168665D-03  0.205150D-02
     29 -0.174181D-02 -0.703304D-03  0.174197D-02  0.763647D-03 -0.363902D-03
     30 -0.348164D-03 -0.283908D-03 -0.116469D-03  0.603252D-03  0.101737D-02
     31  0.232762D-03 -0.149279D-04  0.502605D-03 -0.220076D-03 -0.427287D-03
[...]
    Y6       -6.13311   0.00001   0.00000  -0.00003  -0.00003  -6.13314
    Z6       -1.00429   0.00000   0.00000  -0.00022  -0.00027  -1.00456
    X7        5.20504   0.00000   0.00000   0.00005   0.00006   5.20511
    Y7       -5.73318   0.00000   0.00000   0.00006   0.00004  -5.73314
    Z7        0.03426   0.00000   0.00000  -0.00038  -0.00045   0.03381
    X8        2.95767   0.00000   0.00000   0.00013   0.00011   2.95778
    Y8       -8.10101   0.00000   0.00000  -0.00006  -0.00006  -8.10107
    Z8       -0.63820   0.00000   0.00000  -0.00016  -0.00020  -0.63840
    X9        3.86806   0.00000   0.00000  -0.00023  -0.00025   3.86781
    Y9       -5.94391   0.00000   0.00000  -0.00001  -0.00002  -5.94392
    Z9       -3.02386   0.00000   0.00000  -0.00025  -0.00030  -3.02417
   X10       -1.10706  -0.00003   0.00000  -0.00009  -0.00008  -1.10714
   Y10       -4.90970   0.00003   0.00000  -0.00001   0.00004  -4.90966
   Z10       -1.42941   0.00000   0.00000   0.00003   0.00004  -1.42936
   X11       -1.48283   0.00000   0.00000  -0.00025  -0.00028  -1.48311
   Y11       -6.57600   0.00000   0.00000  -0.00009  -0.00005  -6.57605
   Z11       -2.56213   0.00000   0.00000   0.00020   0.00022  -2.56191
   X12       -2.96636   0.00002   0.00000   0.00003   0.00004  -2.96632
   Y12       -3.26974  -0.00004   0.00000  -0.00003   0.00003  -3.26971
   Z12       -1.26672  -0.00001   0.00000   0.00004   0.00007  -1.26665
   X13       -2.25293   0.00000   0.00000   0.00008   0.00012  -2.25281
   Y13       -1.69529   0.00000   0.00000  -0.00002   0.00003  -1.69526
   Z13       -0.45070   0.00001   0.00000   0.00008   0.00010  -0.45060
   X14        0.06960  -0.00001   0.00000   0.00003   0.00010   0.06970
   Y14        0.09163   0.00000   0.00000  -0.00004  -0.00001   0.09163
   Z14        0.15579   0.00000   0.00000  -0.00007  -0.00008   0.15571
   X15        0.64090   0.00000   0.00000   0.00021   0.00032   0.64122
   Y15        0.30173   0.00000   0.00000   0.00043   0.00046   0.30219
   Z15        3.38274  -0.00001   0.00000  -0.00011  -0.00012   3.38262
   X16        0.18071   0.00000   0.00000  -0.00116  -0.00103   0.17969
   Y16        2.06874   0.00000   0.00000   0.00008   0.00011   2.06885
   Z16        3.46961   0.00000   0.00000   0.00001   0.00001   3.46962
         Item               Value     Threshold  Converged?
 Maximum Force            0.000040     0.000450     YES
 RMS     Force            0.000009     0.000300     YES
 Maximum Displacement     0.001029     0.001800     YES
 RMS     Displacement     0.000255     0.001200     YES
 Predicted change in Energy=-5.791776D-09
 Optimization completed.
    -- Stationary point found.
 GradGradGradGradGradGradGradGradGradGradGradGradGradGradGradGradGradGrad


 Test job not archived.
 1\1\GINC-NODE31\Freq\UB3LYP\CBSB7\C4H9O3(2)\GOLDMANM\24-Sep-2019\0\\# 
 freq nosymm b3lyp/cbsb7 iop(7/33=1)\\NBO NRT\\0,2\C,1.05231,-0.80734,-
 0.37565\H,1.13803,-0.62786,-1.46168\H,2.00801,-0.55095,0.08762\C,0.715
 04,-2.29676,-0.09793\H,0.58421,-2.36178,0.99458\C,1.83447,-3.2455,-0.5
 3145\H,2.75439,-3.03387,0.01813\H,1.56513,-4.28687,-0.33772\H,2.04689,
 -3.14538,-1.60016\C,-0.58583,-2.5981,-0.75641\H,-0.78468,-3.47987,-1.3
 5582\O,-1.56973,-1.73027,-0.67032\H,-1.1922,-0.89711,-0.2385\O,0.03683
 ,0.04849,0.08244\O,0.33915,0.15967,1.79007\H,0.09563,1.09473,1.83604\\
 Version=AM64L-G03RevD.01\HF=-383.4476077\S2=0.767412\S2-1=0.\S2A=0.750
 077\RMSD=7.245e-09\RMSF=9.314e-06\ZeroPoint=0.1272338\Thermal=0.135926
 9\Dipole=0.5216585,-0.4570072,-0.4520784\DipoleDeriv=0.6084118,0.85383
 14,0.3738772,-0.5329801,-0.6846025,-0.5079141,-0.0654715,0.0880785,0.3
 852318,-0.0294084,-0.219496,-0.085764,0.1357648,0.2148072,0.0628023,0.
 1058056,0.1734648,-0.1126801,-0.086382,-0.038058,-0.011658,0.0440575,0
 .243021,0.0856443,-0.1241196,-0.0981684,0.0059578,-0.0699778,-0.229427
 7,-0.0792121,-0.015878,0.2245439,0.1132162,-0.0288571,0.0599221,0.0656
 151,0.0521702,0.2208005,0.1322738,-0.0069068,-0.0162558,-0.0396268,0.0
 349188,0.1097795,-0.051393,0.0923683,0.0894303,0.045046,0.0951996,0.27
 51538,0.0908629,-0.0005256,0.0571581,0.167127,-0.0650444,0.0799982,-0.
 0185327,-0.0600465,0.0199997,-0.0579664,-0.0895805,-0.0100219,0.023826
 1,0.0185605,-0.1227621,-0.0091188,0.0116136,-0.0920394,0.0452401,0.022
 8955,0.0242925,0.0602956,0.0377036,-0.0178624,-0.0169887,-0.0056461,0.
 0318589,0.0445302,0.0620036,-0.0236412,-0.1480149,1.1538424,1.0715967,
 0.863893,-0.9804112,-1.5894644,-0.9414327,-0.0297079,-0.4769416,-0.294
 3804,0.0778897,0.0945642,0.0204035,0.025687,0.0328638,-0.0588852,-0.05
 68942,-0.0171818,0.1230985,-1.3700172,-1.2079665,-0.871611,1.155022,1.
 8093069,1.291462,0.2047082,0.528132,0.0624582,0.1334766,-0.8053718,-0.
 4183761,-0.2787033,-0.7290964,-0.5533259,-0.1552308,-0.4597625,-0.0495
 166,-0.2265679,0.9111558,0.4326641,0.4461922,0.5268076,0.552274,1.2708
 225,3.6706673,1.8789569,-0.6083902,-0.6683348,-0.290375,-0.1382479,-0.
 6077295,-0.3012253,-1.1276347,-3.6374878,-2.3488717,0.2813649,-0.01209
 79,-0.0665212,0.1052833,0.3408251,0.1743443,-0.0231324,0.0117105,0.232
 29\Polar=66.7992689,20.277953,133.2404868,13.7341628,51.1400469,85.499
 2637\PG=C01 [X(C4H9O3)]\NImag=1\\0.52532773,0.05306870,0.37445684,0.05
 654083,-0.00194914,0.55566327,-0.04441059,-0.01143765,0.00835390,0.051
 26224,-0.00456372,-0.05229734,0.04425791,-0.00105572,0.06139208,0.0031
 0555,0.04772078,-0.26874200,-0.01904314,-0.04313785,0.29978331,-0.2337
 0697,-0.05849457,-0.09955343,0.00387891,-0.00015685,0.00045204,0.26474
 547,-0.06442589,-0.05549083,-0.03067984,0.00646279,0.00157120,0.003115
 34,0.05563597,0.07076660,-0.10623510,-0.03016697,-0.09858541,-0.026196
 07,-0.00610741,-0.01259046,0.10749430,0.03065275,0.10209674,-0.0856719
 9,-0.02306448,0.00463736,0.00067559,-0.00143706,0.00023335,-0.00677206
 ,-0.02888764,0.00759913,0.49415128,-0.03718814,-0.10840689,0.01513642,
 -0.00046205,-0.00719033,0.00078095,-0.00406886,-0.01428291,0.00571846,
 -0.03863341,0.42227836,0.01043623,0.02630770,-0.07809689,0.00842875,0.
 02935451,-0.00656353,-0.00407882,-0.01284875,0.00359610,-0.00558317,0.
 01744090,0.52368634,-0.00276500,0.00224811,0.00975841,0.00101440,-0.00
 241592,-0.00007430,0.00021268,-0.00022927,0.00070603,-0.04909133,-0.00
 051955,0.02134231,0.05775404,-0.00497609,-0.01253993,0.03508188,-0.001
 82732,-0.00618500,0.00142597,0.00048495,0.00225173,-0.00065368,0.00192
 076,-0.03981599,0.01211067,0.00228881,0.05276214,0.00102714,0.00615622
 ,-0.01085109,0.00132123,0.00100990,0.00049923,0.00012849,-0.00056904,0
 .00096922,0.03313615,0.01708936,-0.27455717,-0.02869768,-0.01602519,0.
 30502212,0.00458577,0.00561380,-0.00324664,0.00028298,-0.00117729,-0.0
 0008520,0.00051634,-0.00128020,0.00016552,-0.13503067,0.04467654,0.024
 56137,-0.00506184,0.00408084,0.00200886,0.51419879,0.02147785,-0.01475
 217,-0.01030134,0.00098198,0.00096500,-0.00034504,0.00048358,0.0006775
 9,-0.00001719,0.04618364,-0.12111121,-0.02080063,-0.00131919,0.0005498
 1,-0.00042949,0.04770043,0.52699560,-0.00458934,0.00150468,0.00087448,
 -0.00024501,0.00067609,0.00011226,-0.00016305,-0.00045104,0.00018686,0
 .02459492,-0.02099184,-0.08743726,0.02473517,-0.02083274,-0.00732019,0
 .02583193,-0.01789513,0.55433893,-0.00083078,-0.00012063,-0.00048782,0
 .00031060,-0.00023836,-0.00009036,0.00053295,0.00058340,0.00011702,-0.
 02032514,-0.00545553,-0.01217957,0.00042220,-0.00049292,0.00012886,-0.
 23070797,-0.04446405,-0.11186595,0.25212178,0.00140983,0.00037576,0.00
 088260,-0.00012968,0.00007297,0.00004768,-0.00024942,-0.00030513,-0.00
 030236,0.01798363,0.00406714,0.01174168,-0.00075292,0.00082440,0.00023
 014,-0.04555468,-0.05721351,-0.02796351,0.04664687,0.06050160,-0.00050
 162,0.00032855,-0.00011351,-0.00002603,-0.00005334,0.00000504,-0.00006
 771,0.00015247,0.00023316,0.00993825,0.00279770,0.00524774,-0.00008048
 ,0.00063815,0.00048103,-0.11359751,-0.02746362,-0.11624628,0.12242980,
 0.03142163,0.12221202,-0.00328395,-0.00140986,0.00163700,-0.00026226,0
 .00022470,-0.00001319,0.00023892,0.00042634,0.00010444,0.00630073,0.02
 637566,-0.00572262,0.00106028,-0.00090678,-0.00018030,-0.06378656,-0.0
 6517707,0.01259967,-0.00660735,-0.02593532,0.00633451,0.06848278,0.002
 82001,0.00237360,-0.00214599,0.00014959,-0.00012630,0.00006346,-0.0000
 5005,0.00016706,0.00003315,-0.00445336,-0.01933557,0.00385703,-0.00037
 616,0.00047324,-0.00047016,-0.06428534,-0.28221268,0.04564840,-0.00179
 845,-0.00550104,0.00093664,0.06829513,0.30768258,0.00152918,-0.0001605
 7,-0.00054520,-0.00001919,-0.00041340,0.00032951,0.00016096,0.00027496
 ,-0.00011934,-0.00330377,-0.01067045,0.00103859,-0.00071837,-0.0000876
 5,0.00021320,0.01250767,0.04651113,-0.05575374,-0.00366732,-0.01688302
 ,0.00293702,-0.01491061,-0.04910762,0.05610173,0.00101936,-0.00199218,
 0.00032411,0.00001914,0.00054436,-0.00037463,0.00001116,0.00028796,-0.
 00021480,-0.00564920,-0.00233837,0.02496666,-0.00320803,0.00302626,0.0
 0069294,-0.05648283,-0.00512478,0.04515907,0.00651434,0.00376109,-0.02
 674903,-0.00246769,-0.00061075,0.00849003,0.05942485,0.00025841,0.0007
 8324,-0.00183449,0.00006435,-0.00004345,0.00067706,-0.00009889,0.00000
 253,-0.00007763,0.00391632,0.00180559,-0.02121147,0.00352609,-0.002160
 93,-0.00090515,-0.00536085,-0.05069798,0.02645842,0.00180297,-0.000190
 68,-0.00718686,-0.00483565,-0.00191250,0.03086310,0.00244716,0.0519645
 0,-0.00000646,0.00047307,0.00002513,-0.00011510,-0.00070635,0.00040846
 ,0.00000055,0.00005948,-0.00016531,0.00233392,-0.00004200,-0.00854717,
 0.00168140,-0.00125191,0.00094444,0.04604704,0.02577954,-0.29311684,0.
 00312500,0.00209134,-0.01501539,0.00039488,0.00073249,-0.00483318,-0.0
 5274933,-0.02719861,0.31959428,-0.02336877,-0.00733749,-0.00959908,0.0
 0505010,-0.00246277,-0.00284653,0.00112484,-0.00176509,0.00122715,-0.1
 6354838,-0.02332038,-0.05435898,-0.00302070,-0.00081211,-0.01056087,-0
 .02984948,-0.00171437,-0.01046033,-0.00223370,0.00211074,0.00083043,0.
 00200373,-0.00249844,-0.00016867,0.00205150,-0.00078520,-0.00095765,0.
 51495922,-0.00576521,-0.05161093,-0.01671874,-0.00520565,0.00836611,0.
 00566142,-0.00179114,0.00036002,-0.00012702,-0.02263509,-0.07992920,-0
 .02686133,0.00323502,-0.00235215,-0.00332335,0.02531018,0.01030283,0.0
 1292284,0.00618782,-0.00434605,-0.00174181,-0.00070330,0.00174197,0.00
 076365,-0.00036390,-0.00027849,-0.00048426,-0.07237217,0.55437106,0.00
 914168,-0.02278836,0.00561986,-0.00361857,0.00209954,0.00038670,0.0007
 6173,0.00526567,-0.00098851,-0.06195288,-0.02751533,-0.09512697,-0.028
 40745,-0.01018982,-0.01518546,0.00852788,0.00795158,0.00454775,0.00329
 279,-0.00211865,-0.00034816,-0.00028391,-0.00011647,0.00060325,0.00101
 737,-0.00041210,0.00006266,0.13615233,0.22660539,0.26375168,-0.0041714
 1,0.00205703,-0.00172259,0.00018320,-0.00080578,-0.00008284,-0.0000724
 1,-0.00130632,0.00045865,0.00249928,-0.01531007,-0.01085439,-0.0021361
 2,-0.00112625,-0.00060337,0.00188409,-0.00156862,-0.00010285,0.0000257
 7,0.00036395,0.00023276,-0.00001493,0.00050260,-0.00022008,-0.00042729
 ,0.00004969,0.00050448,-0.06646122,-0.04773695,-0.04942378,0.06454781,
 0.00017295,-0.00009214,0.00022435,-0.00017651,-0.00052916,-0.00023665,
 -0.00013300,0.00019264,-0.00001816,0.00360473,0.00250610,-0.00230561,-
 0.00071487,-0.00078499,0.00103161,0.00012782,0.00063499,0.00019929,-0.
 00014237,0.00001610,0.00023759,-0.00030192,0.00005149,0.00005661,-0.00
 041046,0.00012455,0.00018607,-0.04314798,-0.22418193,-0.13894334,0.034
 93407,0.24570330,-0.00461006,0.00540553,-0.00291967,0.00086824,0.00012
 560,0.00027853,-0.00033824,-0.00160427,0.00069277,0.00147075,-0.011049
 06,0.00205099,-0.00088117,0.00045699,-0.00192813,0.00037418,-0.0004654
 8,0.00021260,-0.00007275,0.00027532,-0.00010367,-0.00033429,0.00063828
 ,-0.00007310,0.00003472,0.00009725,0.00004447,-0.04907524,-0.14283778,
 -0.11652443,0.04436542,0.15246224,0.11460126,0.01910989,-0.02008512,0.
 00215350,-0.00562818,0.00473675,0.00296271,0.00013431,0.00451936,-0.00
 180650,-0.03441668,0.03473546,0.00205699,0.00264530,-0.00085793,0.0011
 8507,-0.00303728,-0.00037597,-0.00473458,-0.00049500,0.00118077,0.0010
 6399,-0.00079106,0.00150654,-0.00009569,-0.00055029,-0.00039214,-0.000
 01011,-0.25435263,0.11453006,-0.02502714,0.00569437,0.00173181,0.00632
 219,0.39334427,-0.02799377,0.03456507,-0.00737617,0.00842359,-0.008483
 57,-0.00572451,-0.00026071,-0.00610564,0.00320887,0.01267551,-0.007556
 02,0.00012470,-0.00657574,0.00236521,-0.00206768,-0.00299338,-0.005148
 73,-0.00107007,-0.00221554,0.00120470,-0.00052167,0.00138259,-0.001363
 84,-0.00010555,0.00076937,0.00049143,0.00055730,0.13184668,-0.16231160
 ,-0.02352094,0.02867784,-0.02584614,-0.00492544,-0.04396350,0.38727935
 ,-0.00530368,0.00667178,-0.00418504,0.00242277,-0.00243050,-0.00001786
 ,-0.00027692,-0.00180853,0.00098828,-0.00906040,0.01087959,0.01171290,
 0.00193124,0.00074384,0.00108445,-0.00274225,-0.00468074,-0.00097320,-
 0.00130673,0.00075857,0.00062591,0.00053116,-0.00039572,-0.00027005,-0
 .00038396,0.00036617,0.00047258,-0.01411785,-0.03235058,-0.04499331,0.
 01844156,-0.01099317,-0.00158880,0.07989256,0.14015463,0.11842562,-0.0
 0273132,-0.01277946,0.00695485,-0.00376241,0.00351202,0.00138500,0.000
 97579,0.00248351,-0.00116810,-0.00458321,0.00517897,-0.00042134,0.0025
 4169,-0.00025281,0.00102554,0.00033404,0.00191607,0.00069313,0.0008395
 7,-0.00037148,0.00015805,-0.00041817,0.00025247,-0.00004723,-0.0002625
 9,-0.00017554,-0.00033301,0.04238899,-0.00417649,0.00849545,-0.0037355
 7,0.00594530,0.00166344,-0.11710423,-0.04541226,-0.04824841,0.06918299
 ,0.01436774,-0.00979099,0.00936683,-0.00458474,0.00450234,0.00155898,0
 .00222500,0.00166006,-0.00238265,-0.00446669,0.00668520,-0.00116459,0.
 00379281,-0.00079591,0.00212332,0.00006838,0.00188064,0.00022001,0.000
 59647,-0.00011781,0.00034801,-0.00073989,0.00073518,-0.00005769,-0.000
 59164,-0.00010573,-0.00016275,0.04360385,-0.08526949,-0.02814331,0.001
 66273,0.00279635,0.00406298,-0.09996438,-0.14821859,-0.08296720,0.0166
 3503,0.21192091,0.00645982,-0.00518363,0.00665031,-0.00120579,0.001971
 64,-0.00005176,0.00091319,0.00106730,-0.00122205,-0.00161584,0.0041520
 7,-0.00161952,0.00015224,-0.00010186,-0.00003868,0.00002367,0.00136830
 ,-0.00025957,0.00035872,-0.00011628,0.00012443,-0.00032626,0.00028799,
 -0.00002214,-0.00001551,-0.00022833,-0.00021617,0.01774848,-0.02530346
 ,-0.00504559,-0.00103318,-0.00173520,0.00566877,-0.06190197,-0.0854614
 0,-0.08017590,0.02539692,0.09557883,0.08693936,-0.16128207,0.08673246,
 0.00453614,-0.00499955,0.00075700,0.01243203,-0.03439165,0.02544782,0.
 01751174,0.00211686,0.01205789,0.00235315,-0.00195783,0.00049390,-0.00
 198400,0.00132325,-0.00114133,-0.00210841,-0.00041989,-0.00008416,-0.0
 0013843,0.00012105,-0.00004760,0.00047728,0.00036596,-0.00023702,0.000
 27243,-0.03664185,0.03017110,0.00960976,0.00149966,-0.00122184,-0.0019
 3291,0.00899600,-0.07860370,-0.02798238,0.02589662,0.03997775,0.022240
 37,0.21117875,0.04611744,-0.09837168,-0.01933181,0.01011897,-0.0015705
 8,-0.01174550,0.00735519,-0.00243185,0.00083361,0.03571073,-0.04281260
 ,-0.01612581,-0.00282715,0.00655404,-0.00315116,-0.00714568,-0.0122197
 9,0.00177289,-0.00102306,0.00068582,0.00002945,0.00361261,-0.00293406,
 -0.00109485,0.00060851,0.00039456,0.00016908,-0.02314414,0.03986849,0.
 01389191,-0.00028057,-0.00039481,-0.00338032,0.00711559,-0.06762051,-0
 .02516911,0.02999893,0.01902540,0.01722944,-0.12483841,0.17541979,-0.0
 2971767,0.03992600,-0.08864769,0.04271128,-0.03530988,-0.02219001,-0.0
 0188174,-0.00629133,0.00879908,0.00726691,-0.02391345,0.00593672,-0.01
 168059,0.00312716,-0.00528140,-0.00481569,-0.01104455,-0.00194606,-0.0
 0373734,0.00159208,-0.00082753,0.00345789,-0.00294430,0.00039037,0.001
 67328,0.00144779,0.00119796,-0.07231064,0.11107226,0.04026470,-0.00438
 592,-0.00168017,-0.00743784,0.06839814,-0.15110673,-0.03817240,0.06173
 164,0.07611553,0.02545474,-0.06531487,-0.00611192,-0.01970578,0.012534
 91,-0.01287728,0.01991765,-0.00368127,0.00446498,0.00159804,0.00246472
 ,0.00133285,0.00019510,-0.00032801,0.00437045,-0.00090108,0.00166671,-
 0.00093305,0.00124358,0.00077287,0.00199877,0.00060490,0.00079670,-0.0
 0036266,0.00018396,-0.00053080,0.00057092,-0.00002157,-0.00032784,-0.0
 0017722,-0.00018478,0.01050554,-0.01672360,-0.00788026,0.00058036,-0.0
 0038238,0.00218596,-0.01179116,0.02224478,0.00549062,-0.00980338,-0.01
 148456,-0.00624015,-0.01277784,0.02286634,0.01016521,0.04558969,0.0060
 8046,-0.01119888,-0.01472188,-0.00143176,-0.00039678,0.00000664,-0.000
 47443,0.00150372,-0.00052849,0.00112670,0.00395052,-0.00078506,0.00104
 996,-0.00138019,0.00030675,0.00033273,0.00167215,0.00020508,0.00036901
 ,-0.00015016,0.00011127,-0.00041247,0.00022166,0.00008767,-0.00015748,
 -0.00013690,-0.00018974,0.00524241,-0.00932317,-0.00380064,0.00016210,
 -0.00020282,0.00109586,-0.00799424,0.01233019,0.00267930,-0.00457965,-
 0.00717276,-0.00456052,0.01254698,-0.01399901,0.01033223,-0.14268385,0
 .50875938,0.06194110,-0.07235696,-0.00978409,-0.01398557,0.00953970,0.
 00861877,-0.00341866,0.01339830,-0.00353219,-0.01080997,0.01859835,-0.
 00241007,0.01002374,-0.00353133,0.00661002,0.00426788,0.01161841,0.002
 75774,0.00395059,-0.00163175,0.00080373,-0.00321718,0.00292511,-0.0000
 3629,-0.00179698,-0.00083073,-0.00086247,0.06945724,-0.10632737,-0.036
 51129,0.00434143,0.00141418,0.00703646,-0.06995876,0.13676903,0.036957
 78,-0.05684137,-0.07362359,-0.03537243,0.02458768,0.07248546,0.1092462
 8,-0.01866051,0.00679623,-0.06387342,-0.00035482,-0.00012137,-0.000204
 20,0.00006710,0.00007364,0.00044148,0.00010699,0.00071441,0.00004148,-
 0.00032705,-0.00009859,-0.00004547,-0.00007645,-0.00011027,0.00012836,
 0.00005850,0.00014306,0.00005074,0.00005592,-0.00001657,-0.00001092,-0
 .00004472,0.00002290,0.00000739,-0.00003054,-0.00000248,-0.00000325,0.
 00139281,-0.00196066,-0.00040503,0.00010440,0.00011466,-0.00004024,-0.
 00175762,0.00199825,0.00071268,0.00024118,-0.00109787,-0.00095471,0.00
 097254,-0.00424531,-0.00155989,-0.03567119,0.13082353,0.00011932,0.035
 26295,-0.00086057,0.00199726,0.00010939,0.00010980,-0.00004720,0.00013
 127,-0.00040677,-0.00053678,-0.00006529,0.00045571,-0.00085218,0.00116
 605,-0.00041004,0.00023454,-0.00100608,-0.00011330,-0.00032255,-0.0004
 0338,-0.00023562,0.00007589,-0.00003419,0.00010523,-0.00006078,0.00002
 368,0.00014485,-0.00003974,-0.00001274,-0.00344353,0.00459253,0.001734
 87,-0.00027547,0.00000647,-0.00035771,0.00357694,-0.00558131,-0.001458
 31,0.00182541,0.00226520,0.00103512,-0.00201085,0.00040678,-0.00521073
 ,0.12777552,-0.48447695,-0.01524304,-0.12623731,0.48233882,0.00078239,
 -0.00188869,-0.00636245,0.00034832,-0.00087617,-0.00026620,-0.00013269
 ,0.00026652,-0.00035894,0.00111532,0.00158833,0.00108920,0.00020948,-0
 .00091049,-0.00066159,0.00017130,0.00021426,0.00002250,0.00000507,-0.0
 0002548,-0.00001555,-0.00007119,0.00005770,0.00003938,-0.00007395,-0.0
 0002441,0.00000653,-0.00095980,-0.00094986,-0.00051288,0.00008472,0.00
 010035,-0.00001021,-0.00050041,0.00106563,0.00010905,-0.00044456,-0.00
 087272,-0.00081380,0.00544042,-0.02030136,-0.00708117,-0.00769670,0.00
 296528,-0.01964854,0.00172228,0.01959109,0.03446467\\-0.00000003,0.000
 00012,0.00000563,-0.00000292,-0.00000134,-0.00000595,0.00000039,-0.000
 00123,-0.00000185,-0.00000351,0.00000613,0.00000118,-0.00000083,-0.000
 00120,-0.00000242,-0.00000514,-0.00000906,0.00000391,-0.00000054,-0.00
 000199,0.00000035,-0.00000273,0.00000088,-0.00000090,-0.00000069,-0.00
 000073,-0.00000159,0.00002681,-0.00002654,-0.00000423,0.00000321,0.,-0
 .00000211,-0.00002319,0.00003968,0.00001045,-0.00000242,-0.00000172,-0
 .00000676,0.00000825,-0.00000201,0.00000152,-0.00000037,0.00000338,0.0
 0000511,0.00000369,-0.00000436,-0.00000233\\\@


 NEVER LOSE YOUR IGNORANCE, IT CAN'T BE REPLACED.
   -- ANDY CAPP
 Job cpu time:  0 days  1 hours  9 minutes 54.3 seconds.
 File lengths (MBytes):  RWF=    125 Int=      0 D2E=      0 Chk=      8 Scr=      1
 Normal termination of Gaussian 03 at Tue Sep 24 06:16:22 2019.
