 Entering Gaussian System, Link 0=g03
 Input=TS5freq.gjf
 Output=TS5freq.log
 Initial command:
 /opt/g03/l1.exe /scratch/nyee/Gau-1535.inp -scrdir=/scratch/nyee/
 Entering Link 1 = /opt/g03/l1.exe PID=      1537.
  
 Copyright (c) 1988,1990,1992,1993,1995,1998,2003,2004, Gaussian, Inc.
                  All Rights Reserved.
  
 This is the Gaussian(R) 03 program.  It is based on the
 the Gaussian(R) 98 system (copyright 1998, Gaussian, Inc.),
 the Gaussian(R) 94 system (copyright 1995, Gaussian, Inc.),
 the Gaussian 92(TM) system (copyright 1992, Gaussian, Inc.),
 the Gaussian 90(TM) system (copyright 1990, Gaussian, Inc.),
 the Gaussian 88(TM) system (copyright 1988, Gaussian, Inc.),
 the Gaussian 86(TM) system (copyright 1986, Carnegie Mellon
 University), and the Gaussian 82(TM) system (copyright 1983,
 Carnegie Mellon University). Gaussian is a federally registered
 trademark of Gaussian, Inc.
  
 This software contains proprietary and confidential information,
 including trade secrets, belonging to Gaussian, Inc.
  
 This software is provided under written license and may be
 used, copied, transmitted, or stored only in accord with that
 written license.
  
 The following legend is applicable only to US Government
 contracts under FAR:
  
                    RESTRICTED RIGHTS LEGEND
  
 Use, reproduction and disclosure by the US Government is
 subject to restrictions as set forth in subparagraphs (a)
 and (c) of the Commercial Computer Software - Restricted
 Rights clause in FAR 52.227-19.
  
 Gaussian, Inc.
 340 Quinnipiac St., Bldg. 40, Wallingford CT 06492
  
  
 ---------------------------------------------------------------
 Warning -- This program may not be used in any manner that
 competes with the business of Gaussian, Inc. or will provide
 assistance to any competitor of Gaussian, Inc.  The licensee
 of this program is prohibited from giving any competitor of
 Gaussian, Inc. access to this program.  By using this program,
 the user acknowledges that Gaussian, Inc. is engaged in the
 business of creating and licensing software in the field of
 computational chemistry and represents and warrants to the
 licensee that it is not a competitor of Gaussian, Inc. and that
 it will not use this program in any manner prohibited above.
 ---------------------------------------------------------------
  

 Cite this work as:
 Gaussian 03, Revision D.01,
 M. J. Frisch, G. W. Trucks, H. B. Schlegel, G. E. Scuseria, 
 M. A. Robb, J. R. Cheeseman, J. A. Montgomery, Jr., T. Vreven, 
 K. N. Kudin, J. C. Burant, J. M. Millam, S. S. Iyengar, J. Tomasi, 
 V. Barone, B. Mennucci, M. Cossi, G. Scalmani, N. Rega, 
 G. A. Petersson, H. Nakatsuji, M. Hada, M. Ehara, K. Toyota, 
 R. Fukuda, J. Hasegawa, M. Ishida, T. Nakajima, Y. Honda, O. Kitao, 
 H. Nakai, M. Klene, X. Li, J. E. Knox, H. P. Hratchian, J. B. Cross, 
 V. Bakken, C. Adamo, J. Jaramillo, R. Gomperts, R. E. Stratmann, 
 O. Yazyev, A. J. Austin, R. Cammi, C. Pomelli, J. W. Ochterski, 
 P. Y. Ayala, K. Morokuma, G. A. Voth, P. Salvador, J. J. Dannenberg, 
 V. G. Zakrzewski, S. Dapprich, A. D. Daniels, M. C. Strain, 
 O. Farkas, D. K. Malick, A. D. Rabuck, K. Raghavachari, 
 J. B. Foresman, J. V. Ortiz, Q. Cui, A. G. Baboul, S. Clifford, 
 J. Cioslowski, B. B. Stefanov, G. Liu, A. Liashenko, P. Piskorz, 
 I. Komaromi, R. L. Martin, D. J. Fox, T. Keith, M. A. Al-Laham, 
 C. Y. Peng, A. Nanayakkara, M. Challacombe, P. M. W. Gill, 
 B. Johnson, W. Chen, M. W. Wong, C. Gonzalez, and J. A. Pople, 
 Gaussian, Inc., Wallingford CT, 2004.
 
 ******************************************
 Gaussian 03:  AM64L-G03RevD.01 13-Oct-2005
                 9-Jun-2013 
 ******************************************
 %chk=TS5freq.chk
 %mem=1000mb
 %nproc=8
 Will use up to    8 processors via shared memory.
 -------------------------------------
 # freq nosymm b3lyp/cbsb7 iop(7/33=1)
 -------------------------------------
 1/10=4,30=1,38=1/1,3;
 2/15=1,17=6,18=5,40=1/2;
 3/5=4,6=6,7=700,11=2,16=1,25=1,30=1,74=-5/1,2,3;
 4//1;
 5/5=2,38=5/2;
 8/6=4,10=90,11=11/1;
 11/6=1,8=1,9=11,15=111,16=1,31=1/1,2,10;
 10/6=1,31=1/2;
 6/7=2,8=2,9=2,10=2,18=1,28=1/1;
 7/8=1,10=1,25=1,30=1,33=1/1,2,3,16;
 1/10=4,30=1/3;
 99//99;
 -------------------
 Title Card Required
 -------------------
 Symbolic Z-matrix:
 Charge =  0 Multiplicity = 2
 C                    -3.40482   1.39347   0.05577 
 H                    -3.08959   1.55016   1.08913 
 H                    -2.84602   2.09684  -0.577 
 C                    -3.1166   -0.00295  -0.39212 
 C                    -1.79169  -0.60449  -0.03499 
 H                    -1.74075  -1.66462  -0.29243 
 H                    -0.99459  -0.08759  -0.58588 
 H                    -1.58342  -0.49409   1.03098 
 C                    -3.92693  -0.64249  -1.33297 
 H                    -3.44597  -1.39229  -1.96931 
 H                    -4.55561  -1.40472  -0.44585 
 O                    -4.20771  -0.99789   1.40406 
 O                    -4.95881  -1.77609   0.72396 
 H                    -4.46148   1.63242  -0.05017 
 O                    -4.89559   0.14221  -1.98851 
 H                    -5.67089  -0.40305  -2.15097 
 

 GradGradGradGradGradGradGradGradGradGradGradGradGradGradGradGradGradGrad
 Berny optimization.
 Initialization pass.
 Trust Radius=3.00D-01 FncErr=1.00D-07 GrdErr=1.00D-07
 Number of steps in this run=   2 maximum allowed number of steps=   2.
 GradGradGradGradGradGradGradGradGradGradGradGradGradGradGradGradGradGrad

                          Input orientation:                          
 ---------------------------------------------------------------------
 Center     Atomic     Atomic              Coordinates (Angstroms)
 Number     Number      Type              X           Y           Z
 ---------------------------------------------------------------------
    1          6             0       -3.404823    1.393471    0.055772
    2          1             0       -3.089593    1.550161    1.089125
    3          1             0       -2.846023    2.096841   -0.577004
    4          6             0       -3.116596   -0.002948   -0.392123
    5          6             0       -1.791687   -0.604486   -0.034990
    6          1             0       -1.740746   -1.664618   -0.292428
    7          1             0       -0.994592   -0.087594   -0.585882
    8          1             0       -1.583417   -0.494090    1.030982
    9          6             0       -3.926928   -0.642494   -1.332972
   10          1             0       -3.445967   -1.392291   -1.969311
   11          1             0       -4.555612   -1.404722   -0.445848
   12          8             0       -4.207709   -0.997893    1.404060
   13          8             0       -4.958808   -1.776093    0.723960
   14          1             0       -4.461483    1.632421   -0.050172
   15          8             0       -4.895593    0.142213   -1.988507
   16          1             0       -5.670890   -0.403051   -2.150969
 ---------------------------------------------------------------------
                    Distance matrix (angstroms):
                    1          2          3          4          5
     1  C    0.000000
     2  H    1.091669   0.000000
     3  H    1.098814   1.770359   0.000000
     4  C    1.494547   2.146386   2.125207   0.000000
     5  C    2.569490   2.755122   2.950012   1.498258   0.000000
     6  H    3.498900   3.750051   3.930801   2.159641   1.092131
     7  H    2.900773   3.142757   2.863500   2.132512   1.098189
     8  H    2.798471   2.539864   3.300412   2.148741   1.091723
     9  C    2.519198   3.372747   3.040362   1.396730   2.499091
    10  H    3.444289   4.258997   3.804273   2.127506   2.664372
    11  H    3.066891   3.638226   3.898825   2.009633   2.906624
    12  O    2.860267   2.800348   3.918696   2.325235   2.839506
    13  O    3.592698   3.832920   4.599564   2.789880   3.461116
    14  H    1.088509   1.785174   1.761519   2.144780   3.483073
    15  O    2.822608   3.836114   3.164435   2.394649   3.742729
    16  H    3.637617   4.579993   4.087383   3.126986   4.423365
                    6          7          8          9         10
     6  H    0.000000
     7  H    1.769143   0.000000
     8  H    1.773782   1.768107   0.000000
     9  C    2.628091   3.076467   3.332018   0.000000
    10  H    2.407047   3.102475   3.643846   1.094736   0.000000
    11  H    2.830999   3.799381   3.441543   1.327864   1.884783
    12  O    3.067328   3.887497   2.698131   2.774255   3.480723
    13  O    3.376595   4.503523   3.623680   2.565305   3.112828
    14  H    4.281538   3.907015   3.738209   2.665814   3.723339
    15  O    4.011780   4.151864   4.526887   1.408475   2.111039
    16  H    4.526782   4.941333   5.180785   1.941096   2.441696
                   11         12         13         14         15
    11  H    0.000000
    12  O    1.925800   0.000000
    13  O    1.291872   1.277608   0.000000
    14  H    3.064255   3.016247   3.530521   0.000000
    15  O    2.210971   3.644521   3.322856   2.483206   0.000000
    16  H    2.270380   3.890111   3.264586   3.165306   0.961661
                   16
    16  H    0.000000
 Symmetry turned off by external request.
 Stoichiometry    C4H9O3(2)
 Framework group  C1[X(C4H9O3)]
 Deg. of freedom    42
 Full point group                 C1
 Rotational constants (GHZ):      2.5799818      2.3058287      1.6958083
 Standard basis: CBSB7 (5D, 7F)
 Integral buffers will be    131072 words long.
 Raffenetti 2 integral format.
 Two-electron integral symmetry is turned off.
   180 basis functions,   296 primitive gaussians,   187 cartesian basis functions
    29 alpha electrons       28 beta electrons
       nuclear repulsion energy       326.3149872081 Hartrees.
 NAtoms=   16 NActive=   16 NUniq=   16 SFac= 7.50D-01 NAtFMM=   80 NAOKFM=F Big=F
 One-electron integrals computed using PRISM.
 NBasis=   180 RedAO= T  NBF=   180
 NBsUse=   180 1.00D-06 NBFU=   180
 Harris functional with IExCor=  402 diagonalized for initial guess.
 ExpMin= 1.03D-01 ExpMax= 8.59D+03 ExpMxC= 1.30D+03 IAcc=1 IRadAn=         1 AccDes= 1.00D-06
 HarFok:  IExCor= 402 AccDes= 1.00D-06 IRadAn=         1 IDoV=1
 ScaDFX=  1.000000  1.000000  1.000000  1.000000
 <S**2> of initial guess= 0.7500
 Requested convergence on RMS density matrix=1.00D-08 within 128 cycles.
 Requested convergence on MAX density matrix=1.00D-06.
 Requested convergence on             energy=1.00D-06.
 No special actions if energy rises.
 Integral accuracy reduced to 1.0D-05 until final iterations.
 Initial convergence to 1.0D-05 achieved.  Increase integral accuracy.
 SCF Done:  E(UB+HF-LYP) =  -383.447540450     A.U. after   22 cycles
             Convg  =    0.3842D-08             -V/T =  2.0033
             S**2   =   0.7600
 Annihilation of the first spin contaminant:
 S**2 before annihilation     0.7600,   after     0.7501
 Range of M.O.s used for correlation:     1   180
 NBasis=   180 NAE=    29 NBE=    28 NFC=     0 NFV=     0
 NROrb=    180 NOA=    29 NOB=    28 NVA=   151 NVB=   152
 Symmetrizing basis deriv contribution to polar:
 IMax=3 JMax=2 DiffMx= 0.00D+00
 G2DrvN: will do   17 centers at a time, making    1 passes doing MaxLOS=2.
 FoFDir/FoFCou used for L=0 through L=2.
 DoAtom=TTTTTTTTTTTTTTTT
          Differentiating once with respect to electric field.
                with respect to dipole field.
          Differentiating once with respect to nuclear coordinates.
 Symmetry not used in FoFDir.
 MinBra= 0 MaxBra= 2 Meth= 1.
 IRaf=       0 NMat=  51 IRICut=      51 DoRegI=T DoRafI=T ISym2E= 0 JSym2E=0.
          There are  51 degrees of freedom in the 1st order CPHF.
    48 vectors were produced by pass  0.
 AX will form  48 AO Fock derivatives at one time.
    48 vectors were produced by pass  1.
    48 vectors were produced by pass  2.
    48 vectors were produced by pass  3.
    48 vectors were produced by pass  4.
    48 vectors were produced by pass  5.
    25 vectors were produced by pass  6.
     3 vectors were produced by pass  7.
     3 vectors were produced by pass  8.
 Inv2:  IOpt= 1 Iter= 1 AM= 3.25D-15 Conv= 1.00D-12.
 Inverted reduced A of dimension  319 with in-core refinement.
 Isotropic polarizability for W=    0.000000       65.65 Bohr**3.
 End of Minotr Frequency-dependent properties file   721 does not exist.

 **********************************************************************

            Population analysis using the SCF density.

 **********************************************************************

 Alpha  occ. eigenvalues --  -19.20137 -19.18996 -19.13395 -10.22288 -10.21985
 Alpha  occ. eigenvalues --  -10.18116 -10.17261  -1.19009  -1.04135  -0.82884
 Alpha  occ. eigenvalues --   -0.79639  -0.71191  -0.70008  -0.55665  -0.54327
 Alpha  occ. eigenvalues --   -0.51447  -0.48261  -0.47813  -0.46352  -0.43613
 Alpha  occ. eigenvalues --   -0.42676  -0.40195  -0.40086  -0.38916  -0.37180
 Alpha  occ. eigenvalues --   -0.32694  -0.27940  -0.26361  -0.24268
 Alpha virt. eigenvalues --   -0.04460   0.02994   0.04606   0.07433   0.09385
 Alpha virt. eigenvalues --    0.10019   0.10894   0.13569   0.14105   0.15528
 Alpha virt. eigenvalues --    0.17588   0.20119   0.20421   0.24805   0.26025
 Alpha virt. eigenvalues --    0.27256   0.29891   0.36380   0.37287   0.38655
 Alpha virt. eigenvalues --    0.39948   0.40111   0.42652   0.46531   0.46977
 Alpha virt. eigenvalues --    0.51999   0.55215   0.55927   0.57293   0.58182
 Alpha virt. eigenvalues --    0.58279   0.59808   0.60856   0.61427   0.65436
 Alpha virt. eigenvalues --    0.67100   0.67149   0.73219   0.78041   0.79497
 Alpha virt. eigenvalues --    0.79919   0.81862   0.85796   0.87178   0.90014
 Alpha virt. eigenvalues --    0.91489   0.94740   0.99507   1.05134   1.07116
 Alpha virt. eigenvalues --    1.08446   1.20196   1.24343   1.28674   1.31330
 Alpha virt. eigenvalues --    1.34212   1.34571   1.38668   1.40097   1.42769
 Alpha virt. eigenvalues --    1.44709   1.45434   1.45953   1.47979   1.52217
 Alpha virt. eigenvalues --    1.54251   1.55708   1.58155   1.59313   1.60596
 Alpha virt. eigenvalues --    1.63146   1.63826   1.67441   1.71762   1.72876
 Alpha virt. eigenvalues --    1.74845   1.78001   1.85811   1.88638   1.91015
 Alpha virt. eigenvalues --    1.96920   1.98267   1.98975   2.04571   2.08212
 Alpha virt. eigenvalues --    2.09095   2.13301   2.17217   2.26682   2.28839
 Alpha virt. eigenvalues --    2.30811   2.33169   2.33982   2.37689   2.40366
 Alpha virt. eigenvalues --    2.42023   2.45782   2.47170   2.47890   2.49906
 Alpha virt. eigenvalues --    2.51766   2.55818   2.57613   2.59311   2.60118
 Alpha virt. eigenvalues --    2.67013   2.72887   2.73568   2.75157   2.79923
 Alpha virt. eigenvalues --    2.82746   2.88973   2.90727   2.91447   2.94992
 Alpha virt. eigenvalues --    3.03283   3.09484   3.13267   3.17839   3.23725
 Alpha virt. eigenvalues --    3.29355   3.36237   3.36906   3.43458   3.67507
 Alpha virt. eigenvalues --    3.69117   3.74178   3.77843   3.81539   3.82072
 Alpha virt. eigenvalues --    3.83307   3.86362   3.90689   4.25242   4.29156
 Alpha virt. eigenvalues --    4.64263   4.69612   4.84424   4.87620   4.89262
 Alpha virt. eigenvalues --    5.12127   5.25642   5.65150   6.02790  23.64650
 Alpha virt. eigenvalues --   23.89041  23.94217  24.01125  49.71705  49.74827
 Alpha virt. eigenvalues --   49.89033
  Beta  occ. eigenvalues --  -19.18738 -19.17208 -19.13393 -10.22380 -10.21967
  Beta  occ. eigenvalues --  -10.18109 -10.17255  -1.15883  -1.04126  -0.82978
  Beta  occ. eigenvalues --   -0.75397  -0.71191  -0.69801  -0.55587  -0.54034
  Beta  occ. eigenvalues --   -0.51018  -0.47636  -0.44764  -0.43530  -0.42546
  Beta  occ. eigenvalues --   -0.40623  -0.39982  -0.38916  -0.38696  -0.37184
  Beta  occ. eigenvalues --   -0.32495  -0.27218  -0.23166
  Beta virt. eigenvalues --   -0.08975  -0.04289   0.03020   0.04636   0.07475
  Beta virt. eigenvalues --    0.09435   0.10087   0.10893   0.13564   0.14117
  Beta virt. eigenvalues --    0.16270   0.17662   0.20269   0.21431   0.24900
  Beta virt. eigenvalues --    0.26184   0.27322   0.30120   0.36420   0.37405
  Beta virt. eigenvalues --    0.38763   0.39948   0.40180   0.42671   0.46633
  Beta virt. eigenvalues --    0.47030   0.52102   0.55160   0.55971   0.57390
  Beta virt. eigenvalues --    0.58206   0.58438   0.59811   0.60956   0.61506
  Beta virt. eigenvalues --    0.65469   0.67180   0.67385   0.73377   0.79963
  Beta virt. eigenvalues --    0.80159   0.81651   0.82312   0.86276   0.89269
  Beta virt. eigenvalues --    0.90213   0.91622   0.95022   0.99582   1.05810
  Beta virt. eigenvalues --    1.07802   1.09022   1.20223   1.24397   1.29315
  Beta virt. eigenvalues --    1.31672   1.34415   1.34787   1.38710   1.40221
  Beta virt. eigenvalues --    1.43013   1.44698   1.45724   1.46035   1.47939
  Beta virt. eigenvalues --    1.52264   1.54324   1.55822   1.58190   1.59407
  Beta virt. eigenvalues --    1.60598   1.63156   1.63884   1.67539   1.71825
  Beta virt. eigenvalues --    1.73016   1.74824   1.78048   1.85830   1.88644
  Beta virt. eigenvalues --    1.90928   1.96913   1.98260   1.99056   2.04658
  Beta virt. eigenvalues --    2.08219   2.09147   2.13315   2.17388   2.26638
  Beta virt. eigenvalues --    2.28786   2.30986   2.33926   2.35132   2.39458
  Beta virt. eigenvalues --    2.40633   2.42228   2.45911   2.47273   2.47983
  Beta virt. eigenvalues --    2.49948   2.51840   2.55829   2.57694   2.59521
  Beta virt. eigenvalues --    2.60409   2.67036   2.73703   2.75713   2.78159
  Beta virt. eigenvalues --    2.80736   2.84079   2.89967   2.91567   2.94270
  Beta virt. eigenvalues --    2.96342   3.04420   3.09702   3.13749   3.18200
  Beta virt. eigenvalues --    3.23876   3.29543   3.37618   3.41305   3.44955
  Beta virt. eigenvalues --    3.67962   3.70051   3.74177   3.77866   3.81583
  Beta virt. eigenvalues --    3.82102   3.83328   3.87254   3.90998   4.25162
  Beta virt. eigenvalues --    4.29083   4.70481   4.70696   4.85657   4.88139
  Beta virt. eigenvalues --    4.95899   5.13578   5.25680   5.65162   6.04434
  Beta virt. eigenvalues --   23.64613  23.89030  23.94223  24.01093  49.73305
  Beta virt. eigenvalues --   49.76396  49.89038
          Condensed to atoms (all electrons):
              1          2          3          4          5          6
     1  C    4.772719   0.404617   0.398439   0.340779  -0.049893   0.006505
     2  H    0.404617   0.562300  -0.031866  -0.036864  -0.006282   0.000109
     3  H    0.398439  -0.031866   0.580607  -0.040465  -0.002372  -0.000193
     4  C    0.340779  -0.036864  -0.040465   5.517098   0.348825  -0.030198
     5  C   -0.049893  -0.006282  -0.002372   0.348825   4.783847   0.402431
     6  H    0.006505   0.000109  -0.000193  -0.030198   0.402431   0.561714
     7  H   -0.001339  -0.000938   0.003444  -0.040360   0.394294  -0.025407
     8  H   -0.006487   0.004621  -0.001142  -0.037576   0.405228  -0.026105
     9  C   -0.057129   0.006603  -0.004624   0.360111  -0.051464  -0.004114
    10  H    0.005419  -0.000214  -0.000485  -0.085313   0.001035   0.002327
    11  H    0.000605   0.000399  -0.000299  -0.022086   0.000985   0.000598
    12  O   -0.005018   0.000051   0.001607   0.061494  -0.012145  -0.000449
    13  O    0.001437   0.000257  -0.000309  -0.062780   0.003581   0.001448
    14  H    0.402250  -0.023558  -0.024175  -0.033600   0.006240  -0.000418
    15  O    0.000140   0.000275   0.000996  -0.075970   0.002270   0.000103
    16  H   -0.000188   0.000057  -0.000368   0.010505  -0.000381  -0.000038
              7          8          9         10         11         12
     1  C   -0.001339  -0.006487  -0.057129   0.005419   0.000605  -0.005018
     2  H   -0.000938   0.004621   0.006603  -0.000214   0.000399   0.000051
     3  H    0.003444  -0.001142  -0.004624  -0.000485  -0.000299   0.001607
     4  C   -0.040360  -0.037576   0.360111  -0.085313  -0.022086   0.061494
     5  C    0.394294   0.405228  -0.051464   0.001035   0.000985  -0.012145
     6  H   -0.025407  -0.026105  -0.004114   0.002327   0.000598  -0.000449
     7  H    0.583323  -0.031609  -0.003501  -0.000373  -0.000486   0.001776
     8  H   -0.031609   0.553294   0.004869   0.000425   0.000413   0.002464
     9  C   -0.003501   0.004869   4.969743   0.420337   0.228563  -0.012226
    10  H   -0.000373   0.000425   0.420337   0.580475  -0.016000   0.002960
    11  H   -0.000486   0.000413   0.228563  -0.016000   0.493712  -0.065675
    12  O    0.001776   0.002464  -0.012226   0.002960  -0.065675   8.142760
    13  O   -0.000345   0.000207  -0.065896  -0.001185   0.146280   0.053494
    14  H   -0.000255   0.000133  -0.005295   0.001355   0.000595   0.000641
    15  O   -0.000027  -0.000077   0.285323  -0.035021  -0.006646   0.000668
    16  H   -0.000037   0.000073  -0.046110  -0.000702  -0.003572  -0.000208
             13         14         15         16
     1  C    0.001437   0.402250   0.000140  -0.000188
     2  H    0.000257  -0.023558   0.000275   0.000057
     3  H   -0.000309  -0.024175   0.000996  -0.000368
     4  C   -0.062780  -0.033600  -0.075970   0.010505
     5  C    0.003581   0.006240   0.002270  -0.000381
     6  H    0.001448  -0.000418   0.000103  -0.000038
     7  H   -0.000345  -0.000255  -0.000027  -0.000037
     8  H    0.000207   0.000133  -0.000077   0.000073
     9  C   -0.065896  -0.005295   0.285323  -0.046110
    10  H   -0.001185   0.001355  -0.035021  -0.000702
    11  H    0.146280   0.000595  -0.006646  -0.003572
    12  O    0.053494   0.000641   0.000668  -0.000208
    13  O    8.076652   0.000700  -0.000004   0.002738
    14  H    0.000700   0.530563   0.016475  -0.000599
    15  O   -0.000004   0.016475   7.886562   0.310997
    16  H    0.002738  -0.000599   0.310997   0.478409
 Mulliken atomic charges:
              1
     1  C   -0.212855
     2  H    0.120432
     3  H    0.121205
     4  C   -0.173601
     5  C   -0.226198
     6  H    0.111689
     7  H    0.121841
     8  H    0.131267
     9  C   -0.025192
    10  H    0.124960
    11  H    0.242615
    12  O   -0.172194
    13  O   -0.156275
    14  H    0.128947
    15  O   -0.386065
    16  H    0.249423
 Sum of Mulliken charges=   0.00000
 Atomic charges with hydrogens summed into heavy atoms:
              1
     1  C    0.157730
     2  H    0.000000
     3  H    0.000000
     4  C   -0.173601
     5  C    0.138598
     6  H    0.000000
     7  H    0.000000
     8  H    0.000000
     9  C    0.099769
    10  H    0.000000
    11  H    0.000000
    12  O   -0.172194
    13  O    0.086339
    14  H    0.000000
    15  O   -0.136642
    16  H    0.000000
 Sum of Mulliken charges=   0.00000
          Atomic-Atomic Spin Densities.
              1          2          3          4          5          6
     1  C    0.002521  -0.000407  -0.000771   0.003811  -0.000462   0.000033
     2  H   -0.000407  -0.002075   0.001181   0.000872   0.000010  -0.000004
     3  H   -0.000771   0.001181  -0.005893   0.002166   0.000310   0.000045
     4  C    0.003811   0.000872   0.002166  -0.081669   0.003389   0.000531
     5  C   -0.000462   0.000010   0.000310   0.003389   0.003509  -0.000356
     6  H    0.000033  -0.000004   0.000045   0.000531  -0.000356  -0.000171
     7  H   -0.000063   0.000133  -0.000632   0.002149  -0.000697  -0.000104
     8  H    0.000001  -0.000330   0.000069   0.000980  -0.000837  -0.000250
     9  C   -0.000403  -0.000078  -0.000293   0.003653  -0.000282   0.000006
    10  H    0.000005   0.000021  -0.000114  -0.000154   0.000382   0.000188
    11  H   -0.000121  -0.000166   0.000162   0.006964  -0.000509  -0.000100
    12  O    0.001914   0.000162  -0.000022  -0.011543   0.001606  -0.000732
    13  O   -0.000477  -0.000057  -0.000007   0.003901  -0.000746   0.000003
    14  H   -0.000333  -0.000157   0.000370   0.000636   0.000028   0.000012
    15  O    0.000069   0.000024   0.000023  -0.000379  -0.000027  -0.000005
    16  H   -0.000043  -0.000011   0.000001   0.000048   0.000009  -0.000005
              7          8          9         10         11         12
     1  C   -0.000063   0.000001  -0.000403   0.000005  -0.000121   0.001914
     2  H    0.000133  -0.000330  -0.000078   0.000021  -0.000166   0.000162
     3  H   -0.000632   0.000069  -0.000293  -0.000114   0.000162  -0.000022
     4  C    0.002149   0.000980   0.003653  -0.000154   0.006964  -0.011543
     5  C   -0.000697  -0.000837  -0.000282   0.000382  -0.000509   0.001606
     6  H   -0.000104  -0.000250   0.000006   0.000188  -0.000100  -0.000732
     7  H   -0.005435   0.001491   0.000107  -0.000187   0.000156   0.000016
     8  H    0.001491  -0.002225   0.000036   0.000086  -0.000286   0.001090
     9  C    0.000107   0.000036   0.007711   0.000320   0.003221   0.000963
    10  H   -0.000187   0.000086   0.000320  -0.004440   0.001822  -0.000181
    11  H    0.000156  -0.000286   0.003221   0.001822  -0.022938   0.002539
    12  O    0.000016   0.001090   0.000963  -0.000181   0.002539   0.787845
    13  O   -0.000023  -0.000274  -0.001524   0.000206  -0.007525  -0.171841
    14  H    0.000026  -0.000030  -0.000429  -0.000013  -0.000066   0.000068
    15  O   -0.000023  -0.000004  -0.000876  -0.000154   0.000514   0.000025
    16  H    0.000010   0.000002  -0.000028   0.000234  -0.000531  -0.000126
             13         14         15         16
     1  C   -0.000477  -0.000333   0.000069  -0.000043
     2  H   -0.000057  -0.000157   0.000024  -0.000011
     3  H   -0.000007   0.000370   0.000023   0.000001
     4  C    0.003901   0.000636  -0.000379   0.000048
     5  C   -0.000746   0.000028  -0.000027   0.000009
     6  H    0.000003   0.000012  -0.000005  -0.000005
     7  H   -0.000023   0.000026  -0.000023   0.000010
     8  H   -0.000274  -0.000030  -0.000004   0.000002
     9  C   -0.001524  -0.000429  -0.000876  -0.000028
    10  H    0.000206  -0.000013  -0.000154   0.000234
    11  H   -0.007525  -0.000066   0.000514  -0.000531
    12  O   -0.171841   0.000068   0.000025  -0.000126
    13  O    0.635838  -0.000265   0.000049   0.000319
    14  H   -0.000265  -0.000619   0.000186  -0.000043
    15  O    0.000049   0.000186   0.001057   0.000168
    16  H    0.000319  -0.000043   0.000168   0.000147
 Mulliken atomic spin densities:
              1
     1  C    0.005274
     2  H   -0.000880
     3  H   -0.003403
     4  C   -0.064645
     5  C    0.005326
     6  H   -0.000910
     7  H   -0.003073
     8  H   -0.000480
     9  C    0.012106
    10  H   -0.001979
    11  H   -0.016866
    12  O    0.611783
    13  O    0.457578
    14  H   -0.000629
    15  O    0.000648
    16  H    0.000151
 Sum of Mulliken spin densities=   1.00000
 APT atomic charges:
              1
     1  C   -0.027238
     2  H    0.008345
     3  H   -0.008248
     4  C    0.391005
     5  C   -0.010691
     6  H    0.000399
     7  H   -0.015154
     8  H    0.011516
     9  C    0.197236
    10  H    0.003480
    11  H    0.238900
    12  O   -0.118785
    13  O   -0.400109
    14  H    0.030060
    15  O   -0.572085
    16  H    0.271371
 Sum of APT charges=   0.00000
 APT Atomic charges with hydrogens summed into heavy atoms:
              1
     1  C    0.002918
     2  H    0.000000
     3  H    0.000000
     4  C    0.391005
     5  C   -0.013931
     6  H    0.000000
     7  H    0.000000
     8  H    0.000000
     9  C    0.200716
    10  H    0.000000
    11  H    0.000000
    12  O   -0.118785
    13  O   -0.161209
    14  H    0.000000
    15  O   -0.300715
    16  H    0.000000
 Sum of APT charges=   0.00000
 Electronic spatial extent (au):  <R**2>=  3743.7562
 Charge=     0.0000 electrons
 Dipole moment (field-independent basis, Debye):
    X=     1.2174    Y=     0.1302    Z=    -1.8191  Tot=     2.1927
 Quadrupole moment (field-independent basis, Debye-Ang):
   XX=   -48.2532   YY=   -43.5984   ZZ=   -45.5795
   XY=    -0.5974   XZ=    10.0150   YZ=     5.9994
 Traceless Quadrupole moment (field-independent basis, Debye-Ang):
   XX=    -2.4429   YY=     2.2120   ZZ=     0.2309
   XY=    -0.5974   XZ=    10.0150   YZ=     5.9994
 Octapole moment (field-independent basis, Debye-Ang**2):
  XXX=   475.4904  YYY=    43.5174  ZZZ=    30.7548  XYY=   164.5132
  XXY=    14.8422  XXZ=   -48.2401  XZZ=   165.5722  YZZ=     8.9868
  YYZ=     4.8438  XYZ=   -29.3745
 Hexadecapole moment (field-independent basis, Debye-Ang**3):
 XXXX= -3663.0316 YYYY=  -338.9924 ZZZZ=  -365.2685 XXXY=  -171.6141
 XXXZ=   218.9172 YYYX=  -197.8699 YYYZ=    30.0511 ZZZX=  -119.9551
 ZZZY=    43.2953 XXYY=  -740.3060 XXZZ=  -702.6721 YYZZ=  -113.8350
 XXYZ=   153.1960 YYXZ=   -20.8244 ZZXY=   -34.5337
 N-N= 3.263149872081D+02 E-N=-1.552372933535D+03  KE= 3.821995775805D+02
  Exact polarizability:  68.876  10.753  64.024   1.806  -1.641  64.038
 Approx polarizability: 107.261  30.307  99.474  -1.529  -5.707 104.687
                          Isotropic Fermi Contact Couplings
        Atom                 a.u.       MegaHertz       Gauss      10(-4) cm-1
     1  C(13)              0.00232       2.60300       0.92882       0.86827
     2  H(1)              -0.00049      -2.20453      -0.78663      -0.73535
     3  H(1)              -0.00168      -7.49160      -2.67319      -2.49893
     4  C(13)             -0.00472      -5.30106      -1.89155      -1.76824
     5  C(13)              0.00217       2.44335       0.87185       0.81501
     6  H(1)              -0.00020      -0.89998      -0.32113      -0.30020
     7  H(1)              -0.00144      -6.42288      -2.29184      -2.14244
     8  H(1)              -0.00034      -1.52561      -0.54437      -0.50889
     9  C(13)              0.00226       2.54332       0.90752       0.84836
    10  H(1)              -0.00098      -4.36802      -1.55862      -1.45702
    11  H(1)              -0.00730     -32.62223     -11.64042     -10.88160
    12  O(17)              0.04821     -29.22727     -10.42902      -9.74917
    13  O(17)              0.04156     -25.19564      -8.99043      -8.40436
    14  H(1)              -0.00026      -1.15119      -0.41077      -0.38400
    15  O(17)             -0.00068       0.41243       0.14716       0.13757
    16  H(1)               0.00009       0.38895       0.13879       0.12974
 --------------------------------------------------------
       Center         ----  Spin Dipole Couplings  ----
                      3XX-RR        3YY-RR        3ZZ-RR
 --------------------------------------------------------
     1   Atom       -0.002668      0.004390     -0.001722
     2   Atom       -0.001550      0.006596     -0.005046
     3   Atom       -0.000667      0.001058     -0.000391
     4   Atom        0.006622      0.012895     -0.019517
     5   Atom        0.004736     -0.004606     -0.000130
     6   Atom        0.005428     -0.004738     -0.000690
     7   Atom        0.001575     -0.001224     -0.000352
     8   Atom        0.009803     -0.004405     -0.005397
     9   Atom       -0.004002     -0.004441      0.008443
    10   Atom       -0.002037     -0.003603      0.005640
    11   Atom       -0.025825     -0.026017      0.051842
    12   Atom        0.665477      0.603030     -1.268506
    13   Atom        0.509593      0.452195     -0.961788
    14   Atom       -0.004593      0.006184     -0.001590
    15   Atom       -0.005438     -0.000522      0.005959
    16   Atom       -0.002504     -0.002222      0.004726
 --------------------------------------------------------
                        XY            XZ            YZ
 --------------------------------------------------------
     1   Atom        0.004534     -0.001888     -0.005536
     2   Atom        0.005983     -0.000443     -0.001761
     3   Atom        0.001926     -0.000955     -0.002251
     4   Atom       -0.018305      0.032316      0.027610
     5   Atom        0.003366     -0.006747     -0.001031
     6   Atom       -0.000446     -0.005800      0.001099
     7   Atom        0.001857     -0.002484     -0.000731
     8   Atom        0.004666     -0.002422     -0.000212
     9   Atom        0.007532     -0.011291     -0.010816
    10   Atom       -0.000097     -0.004336     -0.000632
    11   Atom        0.003137     -0.019048     -0.017314
    12   Atom       -2.000035     -0.047498     -0.123331
    13   Atom       -1.576904     -0.045191     -0.102195
    14   Atom        0.000844      0.000291     -0.005462
    15   Atom        0.001627     -0.002673     -0.006329
    16   Atom       -0.000588      0.002268     -0.002557
 --------------------------------------------------------


 ---------------------------------------------------------------------------------
              Anisotropic Spin Dipole Couplings in Principal Axis System
 ---------------------------------------------------------------------------------

       Atom             a.u.   MegaHertz   Gauss  10(-4) cm-1        Axes

              Baa    -0.0055    -0.732    -0.261    -0.244 -0.5549  0.5869  0.5896
     1 C(13)  Bbb    -0.0041    -0.555    -0.198    -0.185  0.7453  0.0360  0.6657
              Bcc     0.0096     1.287     0.459     0.429  0.3695  0.8088 -0.4574
 
              Baa    -0.0055    -2.929    -1.045    -0.977 -0.3806  0.3151  0.8694
     2 H(1)   Bbb    -0.0045    -2.389    -0.853    -0.797  0.8014 -0.3566  0.4801
              Bcc     0.0100     5.319     1.898     1.774  0.4613  0.8795 -0.1168
 
              Baa    -0.0022    -1.191    -0.425    -0.397 -0.4744  0.6691  0.5720
     3 H(1)   Bbb    -0.0015    -0.797    -0.284    -0.266  0.7647 -0.0088  0.6444
              Bcc     0.0037     1.988     0.709     0.663  0.4362  0.7431 -0.5075
 
              Baa    -0.0570    -7.650    -2.730    -2.552 -0.5041 -0.4282  0.7500
     4 C(13)  Bbb     0.0283     3.791     1.353     1.265  0.8203 -0.5091  0.2607
              Bcc     0.0288     3.858     1.377     1.287  0.2702  0.7466  0.6079
 
              Baa    -0.0062    -0.833    -0.297    -0.278 -0.4917  0.7651 -0.4159
     5 C(13)  Bbb    -0.0040    -0.540    -0.193    -0.180  0.3269  0.6048  0.7262
              Bcc     0.0102     1.373     0.490     0.458  0.8071  0.2211 -0.5474
 
              Baa    -0.0053    -2.811    -1.003    -0.938 -0.2357  0.8340 -0.4988
     6 H(1)   Bbb    -0.0037    -1.986    -0.709    -0.663  0.4669  0.5474  0.6945
              Bcc     0.0090     4.798     1.712     1.600  0.8523 -0.0692 -0.5184
 
              Baa    -0.0024    -1.293    -0.461    -0.431 -0.6002  0.6250 -0.4991
     7 H(1)   Bbb    -0.0016    -0.843    -0.301    -0.281  0.1423  0.6975  0.7023
              Bcc     0.0040     2.136     0.762     0.713  0.7871  0.3505 -0.5076
 
              Baa    -0.0063    -3.336    -1.191    -1.113  0.2979 -0.6744  0.6756
     8 H(1)   Bbb    -0.0053    -2.817    -1.005    -0.940 -0.0951  0.6833  0.7240
              Bcc     0.0115     6.153     2.196     2.053  0.9499  0.2799 -0.1394
 
              Baa    -0.0118    -1.578    -0.563    -0.526  0.7163 -0.6972  0.0270
     9 C(13)  Bbb    -0.0100    -1.337    -0.477    -0.446  0.5193  0.5586  0.6468
              Bcc     0.0217     2.915     1.040     0.972 -0.4661 -0.4493  0.7622
 
              Baa    -0.0042    -2.241    -0.800    -0.748  0.7694  0.5191  0.3723
    10 H(1)   Bbb    -0.0034    -1.823    -0.651    -0.608 -0.4908  0.8534 -0.1755
              Bcc     0.0076     4.064     1.450     1.356 -0.4088 -0.0477  0.9114
 
              Baa    -0.0308   -16.448    -5.869    -5.487  0.7754  0.5581  0.2955
    11 H(1)   Bbb    -0.0290   -15.490    -5.527    -5.167 -0.5921  0.8052  0.0329
              Bcc     0.0599    31.938    11.396    10.653 -0.2196 -0.2005  0.9548
 
              Baa    -1.4481   104.786    37.390    34.953  0.5757  0.5951  0.5608
    12 O(17)  Bbb    -1.1871    85.899    30.651    28.653 -0.4016 -0.3917  0.8278
              Bcc     2.6352  -190.684   -68.041   -63.605  0.7123 -0.7018  0.0135
 
              Baa    -1.1535    83.464    29.782    27.841  0.6105  0.6301  0.4799
    13 O(17)  Bbb    -0.9051    65.492    23.369    21.846 -0.3446 -0.3342  0.8772
              Bcc     2.0586  -148.957   -53.152   -49.687  0.7131 -0.7009  0.0130
 
              Baa    -0.0052    -2.757    -0.984    -0.920  0.7621 -0.3259 -0.5595
    14 H(1)   Bbb    -0.0039    -2.060    -0.735    -0.687  0.6459  0.3221  0.6921
              Bcc     0.0090     4.817     1.719     1.607  0.0453  0.8888 -0.4560
 
              Baa    -0.0061     0.438     0.156     0.146  0.9811 -0.0976  0.1669
    15 O(17)  Bbb    -0.0044     0.318     0.113     0.106 -0.0037  0.8536  0.5210
              Bcc     0.0104    -0.756    -0.270    -0.252 -0.1933 -0.5117  0.8371
 
              Baa    -0.0032    -1.731    -0.618    -0.578  0.7602 -0.5238 -0.3843
    16 H(1)   Bbb    -0.0029    -1.573    -0.561    -0.525  0.5955  0.7983  0.0900
              Bcc     0.0062     3.305     1.179     1.102  0.2596 -0.2973  0.9188
 

 ---------------------------------------------------------------------------------

 Use density number 0.
 Entering OneElI...
 Calculate overlap and kinetic energy integrals
    NBasis = 187  MinDer = 2  MaxDer = 2
 Requested accuracy = 0.1000D-12
 PrsmSu:  NPrtUS=   1 ThrOK=F
 PRISM was handed   130759364 working-precision words and  2552 shell-pairs
 Entering OneElI...
 Calculate potential energy integrals
    NBasis = 187  MinDer = 2  MaxDer = 2
 Requested accuracy = 0.1000D-12
 PrsmSu:  NPrtUS=   8 ThrOK=T
 PRISM was handed    16301531 working-precision words and  2402 shell-pairs
 PRISM was handed    16301531 working-precision words and  2402 shell-pairs
 PRISM was handed    16301531 working-precision words and  2402 shell-pairs
 PRISM was handed    16301531 working-precision words and  2402 shell-pairs
 PRISM was handed    16301531 working-precision words and  2402 shell-pairs
 PRISM was handed    16301531 working-precision words and  2402 shell-pairs
 PRISM was handed    16301531 working-precision words and  2402 shell-pairs
 PRISM was handed    16301531 working-precision words and  2402 shell-pairs
 Polarizability after L701:
                1             2             3
      1  0.688761D+02
      2  0.107532D+02  0.640238D+02
      3  0.180579D+01 -0.164090D+01  0.640382D+02
 Dipole Derivatives after L701:
               1            2            3            4            5
      1-0.452733D-01 0.523338D-01 0.316752D-01 0.682153D-01-0.107771D-01
      2 0.112168D-01-0.123762D+00 0.161072D-01 0.110894D-01 0.458890D-01
      3-0.124402D-01-0.203121D-01 0.873216D-01-0.599332D-01 0.153419D-01
               6            7            8            9           10
      1-0.728204D-01 0.275304D-01-0.935938D-01 0.592670D-01 0.410223D+00
      2-0.697764D-01-0.633634D-01-0.679515D-01 0.451562D-01 0.711071D-01
      3-0.890695D-01 0.702521D-01 0.565503D-01 0.156766D-01 0.714060D-01
              11           12           13           14           15
      1 0.612650D-01-0.107380D-01-0.794128D-01-0.200481D-01 0.339920D-01
      2 0.416451D+00 0.221098D-01 0.497621D-01-0.792217D-02 0.239258D-01
      3 0.892577D-01 0.346342D+00-0.199028D-01 0.576489D-02 0.552611D-01
              16           17           18           19           20
      1 0.462981D-01 0.533786D-01-0.126599D-01-0.108394D+00-0.453935D-01
      2-0.213165D-01-0.105206D+00-0.627639D-01-0.803205D-01 0.329878D-01
      3-0.111013D-01-0.428303D-01 0.601040D-01 0.654764D-01 0.565347D-01
              21           22           23           24           25
      1 0.573229D-01 0.470237D-01 0.293789D-01-0.812622D-01 0.214807D+00
      2 0.530552D-01-0.290894D-02 0.777542D-01-0.258577D-01-0.421086D+00
      3 0.299438D-01 0.838990D-02-0.333901D-01-0.902310D-01 0.151797D+00
              26           27           28           29           30
      1-0.588313D+00 0.320869D+00 0.442021D-01 0.161241D+00-0.220494D-01
      2-0.503199D-01-0.213017D-02 0.151728D+00 0.243686D-01-0.100662D+00
      3-0.388744D+00 0.427220D+00 0.485803D-01 0.104187D-01-0.581319D-01
              31           32           33           34           35
      1 0.296930D+00 0.222121D+00-0.257929D+00 0.157415D+00 0.369345D+00
      2 0.180581D+00 0.302069D+00-0.187673D+00 0.330682D+00 0.154480D+00
      3-0.197327D+00-0.138941D+00 0.117701D+00-0.195287D+00-0.223273D+00
              36           37           38           39           40
      1 0.283138D+00-0.634514D+00-0.519788D+00-0.331875D-01-0.516485D-01
      2 0.302755D+00-0.479699D+00-0.626244D+00-0.485263D-01 0.662822D-01
      3-0.668249D+00 0.366884D+00 0.386439D+00 0.604310D-01 0.412581D-02
              41           42           43           44           45
      1 0.901999D-02-0.211812D-01-0.655447D+00 0.405708D+00-0.330835D+00
      2 0.520177D-01-0.129370D-01 0.224156D+00-0.306555D+00-0.612535D-02
      3 0.105038D-01 0.898095D-01-0.281548D+00 0.218110D+00-0.754254D+00
              46           47           48
      1 0.262046D+00-0.858783D-01 0.563991D-01
      2-0.279102D-01 0.181942D+00 0.533428D-01
      3-0.937156D-02-0.143049D-02 0.370124D+00
 Hessian after L701:
                1             2             3             4             5
      1  0.160371D+02
      2  0.362084D+00  0.124926D+02
      3 -0.130884D+00 -0.102986D+01  0.159353D+02
      4 -0.419538D+01  0.123406D+00  0.767164D+00  0.410354D+01
      5  0.189163D+00 -0.433051D+01  0.667600D+00 -0.244364D+00  0.404275D+01
      6  0.751533D+00  0.413132D+00 -0.174985D+01 -0.786773D+00 -0.758230D+00
      7 -0.352464D+01  0.910444D+00 -0.819002D+00  0.984248D-01  0.272796D-02
      8  0.985547D+00 -0.295298D+01 -0.115057D+01 -0.574301D-02  0.856569D-01
      9 -0.769857D+00 -0.998605D+00 -0.333548D+01  0.444284D-01  0.664951D-01
     10 -0.638887D+01 -0.121112D+01 -0.353585D+00  0.782266D-01 -0.250791D-01
     11 -0.105165D+01 -0.140654D+01  0.156227D+01 -0.363543D-02  0.213118D-02
     12 -0.320462D+00  0.159848D+01 -0.615014D+01  0.988654D-02 -0.100259D+00
     13  0.112075D+00 -0.160765D+00 -0.129169D-01 -0.845971D-02  0.158160D-02
     14 -0.244765D+00  0.165398D+00 -0.581606D-03  0.948601D-03 -0.197294D-01
     15 -0.336272D-01  0.197969D-01 -0.576521D-01 -0.396349D-03  0.293267D-02
     16 -0.391035D-02 -0.958750D-01 -0.113549D-01 -0.203228D-02 -0.429980D-02
     17 -0.929160D-01  0.144443D+00  0.201142D-01 -0.972499D-03  0.103340D-01
     18 -0.129703D-01  0.230086D-01 -0.441536D-01 -0.503479D-03  0.488265D-02
     19  0.326399D-01 -0.303456D-01 -0.203023D-01 -0.149391D-02 -0.295895D-02
     20 -0.117440D-01 -0.168213D-01  0.659617D-02  0.929367D-03 -0.275506D-02
     21 -0.342327D-01  0.167493D-01 -0.172348D-01 -0.115085D-03  0.263082D-02
     22 -0.155039D-01  0.804419D-02 -0.460414D-02  0.230170D-02 -0.384953D-01
     23  0.895558D-03 -0.108194D-01  0.404677D-02 -0.277925D-01  0.242310D-01
     24  0.201212D-01 -0.123455D-01  0.359642D-02  0.337214D-02 -0.108142D-01
     25  0.591153D-01  0.137625D+00  0.400727D-01 -0.413804D-01  0.274376D-01
     26  0.125458D+00  0.991566D-01  0.812700D-01  0.276561D-01  0.278665D-01
     27  0.380077D-01  0.628945D-01  0.145729D+00  0.366136D-01  0.114042D+00
     28 -0.466350D-01 -0.820128D-02 -0.108203D-01 -0.158697D-02 -0.246059D-02
     29  0.412659D-02  0.851607D-01  0.995650D-01  0.220549D-02  0.928964D-03
     30  0.115206D-03  0.993090D-01  0.387567D-01  0.182628D-02  0.167335D-02
     31 -0.106684D-01  0.363949D-01  0.226123D-02 -0.847481D-03  0.416824D-02
     32  0.381110D-01  0.436882D-01  0.421822D-02  0.466482D-02  0.511525D-02
     33 -0.562031D-02 -0.193459D-01 -0.383783D-01  0.141486D-02  0.586282D-03
     34 -0.222968D+00  0.196871D+00 -0.134673D+00 -0.174037D-01  0.485075D-01
     35  0.206187D+00  0.161474D+00 -0.326106D+00  0.643241D-01  0.569703D-01
     36 -0.121305D+00 -0.269332D+00 -0.118773D+00 -0.188013D-01 -0.364179D-01
     37 -0.829541D-01  0.173818D+00 -0.345030D-01 -0.553734D-03  0.277326D-01
     38  0.208400D+00  0.223047D+00 -0.767603D-01  0.366838D-01  0.352887D-01
     39 -0.364509D-01 -0.575295D-01 -0.157592D+00  0.681998D-02  0.115125D-01
     40 -0.171635D+01 -0.582423D+00  0.323144D+00 -0.147457D-01 -0.223136D-02
     41 -0.916489D+00 -0.443534D+01 -0.120392D+00  0.908939D-02  0.711974D-01
     42  0.215804D+00 -0.608182D-01 -0.457509D+01 -0.101668D+00  0.624871D-02
     43 -0.485788D-01  0.126000D+00  0.370431D+00 -0.270424D-02  0.145812D-01
     44  0.173878D+00 -0.260043D+00  0.237816D+00  0.916174D-02 -0.109464D-01
     45  0.420931D+00  0.202705D+00  0.114921D+00  0.337585D-01  0.247995D-01
     46  0.155840D-01  0.140383D-01  0.295733D-01  0.409220D-02  0.398945D-02
     47  0.237141D-01 -0.190185D-02  0.207758D-01  0.343743D-02  0.146788D-02
     48  0.188965D-01  0.117620D-01  0.601510D-02  0.297362D-02  0.231782D-02
                6             7             8             9            10
      6  0.165943D+01
      7  0.206349D-01  0.335489D+01
      8  0.720982D-01 -0.106793D+01  0.247527D+01
      9 -0.101571D+00  0.735571D+00  0.109768D+01  0.335121D+01
     10 -0.123167D-01  0.916844D-01 -0.832585D-03 -0.160986D-01  0.141967D+02
     11 -0.200495D-01  0.395662D-01  0.133982D+00 -0.263244D-01  0.410553D+00
     12  0.751316D-01 -0.142871D-01  0.276517D-01  0.954032D-01 -0.490411D+01
     13 -0.127340D-01 -0.217764D-01 -0.103985D-01  0.104863D-01 -0.206314D+01
     14  0.286842D-01  0.117132D-02  0.307379D-01 -0.398068D-01 -0.190687D+01
     15  0.102768D-01  0.401835D-02 -0.263859D-01 -0.104965D-01  0.124791D+01
     16 -0.396518D-02 -0.207020D-02 -0.179383D-02  0.893307D-03  0.609306D-01
     17  0.157135D-01  0.377738D-02  0.111467D-01 -0.636568D-02 -0.305237D-01
     18  0.278948D-02  0.640258D-03  0.115232D-02 -0.220354D-02 -0.223563D-01
     19 -0.116876D-01  0.497926D-02 -0.411199D-01  0.762633D-02  0.102440D+00
     20 -0.233785D-02 -0.200490D-01  0.143456D-01 -0.125644D-02  0.659274D-01
     21  0.779750D-02 -0.560041D-03  0.735567D-02 -0.171227D-01 -0.608612D-01
     22 -0.106372D-01 -0.200295D-02 -0.980810D-03  0.150697D-02 -0.285740D-01
     23  0.101807D-01  0.211525D-02 -0.954364D-03 -0.680463D-03  0.107052D-01
     24 -0.326763D-01 -0.381026D-02 -0.964265D-02  0.791727D-02 -0.493913D-02
     25  0.425069D-01  0.183863D-01  0.490848D-01 -0.118076D-01 -0.580354D+01
     26  0.114822D+00  0.430322D-01  0.299378D-01 -0.347445D-01  0.164203D+01
     27  0.115803D+00  0.443243D-03 -0.166524D-01 -0.289316D-01  0.467514D+01
     28 -0.315316D-02 -0.242830D-02 -0.323031D-02  0.785710D-03  0.345573D+00
     29  0.896683D-02  0.459453D-02  0.478119D-02 -0.540663D-02  0.183071D-01
     30  0.636027D-02  0.317380D-02  0.271469D-02 -0.455360D-02  0.718174D-03
     31  0.465548D-02  0.446198D-03  0.274600D-02 -0.228514D-03  0.161314D+00
     32  0.900556D-02  0.349639D-02  0.402835D-02 -0.134541D-02  0.239373D+00
     33 -0.480356D-02 -0.226432D-02 -0.198974D-02  0.337255D-03  0.578746D-01
     34  0.122495D-01 -0.514825D-02  0.423290D-01 -0.250904D-01 -0.628906D+00
     35  0.290413D-01  0.416815D-01  0.603177D-01 -0.527433D-01  0.378155D+00
     36 -0.433575D-01 -0.276150D-01 -0.544256D-01  0.113140D-01 -0.709718D+00
     37  0.206768D-01  0.144810D-03  0.106604D-01 -0.943899D-02 -0.156306D+00
     38  0.373143D-01  0.168535D-01  0.122846D-01 -0.152454D-01 -0.229697D+00
     39 -0.148662D-01 -0.711483D-02 -0.114982D-01 -0.315207D-02 -0.147681D+00
     40 -0.592964D-01 -0.374323D-01 -0.253303D-01  0.173856D-01  0.111045D+00
     41  0.130222D-01 -0.423743D-01  0.664201D-01  0.140668D-02  0.467028D-01
     42  0.161768D-01  0.588810D-01  0.765695D-02  0.567275D-01  0.304106D-01
     43  0.371177D-01  0.221180D-01  0.612994D-01  0.186733D-01 -0.308165D+00
     44  0.214459D-01  0.576773D-01  0.215413D-01  0.202728D-01  0.517250D+00
     45  0.487515D-01  0.505989D-01  0.538150D-01 -0.171228D-01  0.744051D-01
     46  0.111893D-01  0.443136D-02  0.569281D-02 -0.483583D-02  0.229631D+00
     47  0.719067D-02  0.321611D-02  0.348116D-02 -0.332932D-02  0.751155D-01
     48  0.460717D-02  0.692788D-03  0.104497D-02 -0.227859D-02  0.145207D+00
               11            12            13            14            15
     11  0.148473D+02
     12 -0.373945D+01  0.166592D+02
     13 -0.202618D+01  0.133494D+01  0.123789D+02
     14 -0.556055D+01 -0.518699D+00  0.122863D+01  0.154919D+02
     15 -0.518972D+00 -0.623527D+01 -0.848441D+00  0.367015D+00  0.158451D+02
     16  0.564119D-01 -0.121902D-01 -0.441649D+01 -0.381158D+00 -0.945255D-01
     17  0.634031D-01  0.300846D-01 -0.969176D-01 -0.160755D+01  0.654757D+00
     18  0.475291D-01  0.499331D-01 -0.284397D-01  0.628472D+00 -0.425064D+01
     19  0.238584D-01 -0.285502D-01 -0.256297D+01  0.101501D+01 -0.107095D+01
     20  0.945325D-01 -0.216984D-01  0.892700D+00 -0.356828D+01 -0.592999D+00
     21 -0.157826D-01  0.102770D+00 -0.961949D+00 -0.606972D+00 -0.347944D+01
     22 -0.180739D-02 -0.757492D-01 -0.425965D+01  0.807059D-01  0.796500D+00
     23  0.905380D-01  0.744737D-02  0.470640D-01 -0.435925D+01  0.229294D+00
     24 -0.313969D-01  0.149132D+00  0.515661D+00  0.274374D+00 -0.155994D+01
     25  0.161453D+01  0.442960D+01  0.114338D+00  0.660801D-01  0.160501D+00
     26 -0.760902D+01  0.334871D+01  0.106239D-01 -0.457763D-01 -0.209734D-01
     27  0.341426D+01 -0.558165D+01  0.889577D-01  0.146451D-01  0.770947D-01
     28 -0.506992D-02 -0.129732D-01 -0.125823D-01  0.484779D-02  0.303168D-01
     29  0.144261D+00 -0.293261D+00  0.332123D-01 -0.295557D-01  0.497436D-01
     30 -0.309607D+00 -0.148798D+00  0.579494D-01  0.254103D-01  0.245167D-01
     31  0.221819D+00  0.104818D+00  0.200383D-01  0.265647D-01  0.807435D-02
     32  0.145866D+00  0.110063D+00  0.313683D-01 -0.166274D-01  0.661785D-02
     33  0.582674D-01 -0.103192D-01 -0.188729D-01 -0.823799D-03 -0.342314D-01
     34  0.361004D+00 -0.710202D+00  0.102024D+00  0.994950D-01 -0.313182D+00
     35 -0.751005D+00 -0.609993D+00  0.821231D-01 -0.248047D+00 -0.665549D-01
     36 -0.583651D+00  0.301653D-02 -0.236720D+00 -0.657009D-01 -0.684501D-01
     37 -0.224818D+00 -0.734707D-01  0.322137D+00  0.223355D+00 -0.113782D+00
     38 -0.514535D-01 -0.119262D+00  0.179655D+00 -0.126680D+00 -0.383383D-01
     39 -0.184373D+00  0.229754D+00 -0.956974D-01 -0.490434D-01 -0.187059D+00
     40 -0.558917D-01 -0.153172D-02  0.102199D+00 -0.118171D+00 -0.187283D-02
     41  0.467250D-01 -0.119580D-02 -0.115867D+00  0.405912D-01 -0.594551D-03
     42 -0.124397D-01  0.504544D-01 -0.206912D-02 -0.487750D-03 -0.469947D-01
     43  0.573407D+00  0.102810D+00  0.179861D+00 -0.977254D-01  0.215824D+00
     44 -0.134710D+00  0.236699D+00 -0.104449D+00 -0.141616D+00 -0.714070D-01
     45  0.326172D+00  0.707113D+00  0.203916D+00 -0.563917D-01 -0.233031D-01
     46  0.679002D-01  0.171477D+00  0.135486D-01  0.187957D-02  0.136338D-01
     47 -0.554777D-01  0.446864D-01  0.761514D-02 -0.496938D-02  0.606753D-02
     48  0.335461D-01  0.427639D-02  0.593372D-02 -0.943697D-04 -0.353910D-02
               16            17            18            19            20
     16  0.409752D+01
     17  0.511262D+00  0.149405D+01
     18  0.139561D+00 -0.658743D+00  0.423425D+01
     19  0.520715D-01 -0.599649D-01  0.112460D-01  0.208511D+01
     20 -0.683194D-01 -0.517059D-01  0.430348D-01 -0.966088D+00  0.348475D+01
     21 -0.187063D-02  0.121217D-01  0.713907D-01  0.109956D+01  0.552598D+00
     22  0.729382D-01 -0.174125D-01 -0.163336D-01  0.827984D-01 -0.544164D-02
     23 -0.678498D-02  0.168537D-01 -0.100028D+00 -0.153913D-01  0.834679D-01
     24  0.989911D-03 -0.580702D-01 -0.373950D-02  0.668193D-01  0.320766D-01
     25  0.619213D-02 -0.441926D-01 -0.671008D-03  0.594195D-01  0.441772D-01
     26  0.511053D-02 -0.522699D-02  0.678559D-02  0.270532D-01 -0.540089D-02
     27  0.102280D-01 -0.183876D-01 -0.268190D-01 -0.100657D-01  0.347824D-02
     28  0.302349D-02 -0.652090D-02  0.160236D-01 -0.198025D-02  0.674603D-03
     29  0.430851D-02 -0.246355D-01  0.105077D-02  0.113105D-01  0.402240D-02
     30  0.272224D-01 -0.194424D-01  0.547750D-02  0.881329D-02  0.570012D-02
     31  0.163876D-01 -0.100760D-01 -0.133644D-03  0.192519D-02  0.202334D-02
     32  0.846236D-03 -0.871065D-02  0.299609D-03  0.297692D-02  0.285954D-03
     33 -0.213333D-02  0.448599D-02 -0.616475D-02 -0.287533D-02 -0.206718D-02
     34  0.239435D-01 -0.596935D-01 -0.526493D-01  0.716146D-01  0.326103D-01
     35 -0.117104D-01 -0.202378D-01  0.126444D-01  0.339947D-01 -0.158849D-01
     36 -0.422243D-01  0.397622D-01  0.298635D-02 -0.593770D-01 -0.212296D-01
     37  0.711743D-01 -0.361905D-01 -0.439494D-01  0.163794D-01  0.168633D-01
     38  0.103031D-01 -0.335505D-01 -0.433101D-02  0.968149D-02 -0.148523D-02
     39 -0.332540D-01  0.121548D-01 -0.210368D-01 -0.128331D-01 -0.640531D-02
     40 -0.202175D-03 -0.800094D-02 -0.228951D-02  0.108602D-01  0.267868D-02
     41  0.440493D-02 -0.206223D-03  0.116707D-02 -0.378971D-02 -0.212835D-02
     42  0.930602D-03 -0.130010D-02  0.188519D-03 -0.197590D-03  0.236382D-04
     43  0.165013D-01 -0.415754D-01  0.128898D-01  0.378202D-01  0.920535D-02
     44 -0.241832D-01  0.163794D-01 -0.652087D-02 -0.847363D-02 -0.181195D-01
     45  0.200299D-01 -0.239751D-01 -0.114236D-01  0.203750D-01  0.367665D-02
     46  0.402657D-02 -0.100829D-01 -0.644796D-04  0.838787D-02  0.385202D-02
     47  0.147683D-02 -0.478304D-02 -0.403441D-03  0.425076D-02  0.117461D-02
     48  0.166265D-02 -0.291009D-02 -0.834698D-03  0.239696D-02  0.809519D-03
               21            22            23            24            25
     21  0.345429D+01
     22  0.694232D-01  0.395674D+01
     23  0.611638D-01 -0.702698D-01  0.428254D+01
     24 -0.802076D-01 -0.853290D+00 -0.197489D+00  0.144557D+01
     25 -0.308317D-01  0.212248D-01 -0.655348D-02  0.113836D+00  0.154082D+02
     26 -0.305951D-02 -0.102122D-01 -0.450097D-01 -0.133337D-01  0.201134D+01
     27 -0.275942D-01  0.978532D-01 -0.102470D-01  0.108103D+00 -0.561619D+01
     28 -0.190548D-03  0.958701D-04  0.130716D-02  0.543066D-02 -0.414954D+01
     29 -0.268773D-02  0.662592D-02 -0.136569D-02  0.153062D-01 -0.110509D+01
     30 -0.432936D-02  0.115437D-01  0.566234D-02  0.200799D-01 -0.874610D+00
     31 -0.458230D-03  0.166326D-02  0.105348D-02  0.681750D-02 -0.229716D+01
     32 -0.347518D-04  0.195592D-02 -0.268102D-02  0.409781D-02  0.805518D+00
     33 -0.130847D-03 -0.126470D-02  0.963689D-03 -0.555840D-02 -0.960527D+00
     34 -0.559378D-01  0.964343D-01  0.429522D-01  0.258412D-01 -0.246761D+00
     35 -0.186043D-01  0.379260D-01 -0.519704D-01  0.353285D-02  0.301532D-01
     36  0.102761D-01 -0.553880D-01 -0.138091D-01 -0.566466D-01 -0.246197D+00
     37 -0.152506D-01  0.513313D-01  0.276095D-01  0.485991D-01 -0.915011D-01
     38 -0.751913D-02  0.210789D-01 -0.142337D-01  0.175850D-01 -0.450007D-01
     39 -0.333307D-02  0.172933D-01  0.567485D-02 -0.177243D-01  0.312939D-01
     40 -0.603755D-02  0.889767D-02 -0.554346D-02  0.148189D-01  0.376811D-03
     41  0.181986D-02 -0.658267D-02  0.774672D-03 -0.681752D-02  0.216225D-02
     42 -0.140941D-02  0.313975D-02 -0.177945D-02  0.461561D-03 -0.286658D-02
     43  0.184752D-02  0.651383D-02 -0.206970D-02  0.289536D-01 -0.304536D+01
     44  0.165513D-02 -0.718967D-02 -0.115547D-01 -0.116402D-01 -0.371399D+01
     45 -0.143994D-01  0.171570D-01 -0.520035D-03  0.179948D-01  0.308997D+01
     46 -0.253758D-02  0.479510D-02  0.702830D-03  0.107783D-01 -0.119772D-01
     47 -0.143427D-02  0.205524D-02 -0.561808D-03  0.457729D-02  0.126720D+00
     48 -0.132484D-02  0.284910D-02  0.119680D-03  0.363309D-02 -0.164074D+00
               26            27            28            29            30
     26  0.177168D+02
     27 -0.468177D+00  0.163555D+02
     28 -0.107553D+01 -0.783406D+00  0.387405D+01
     29 -0.281032D+01  0.140440D+01  0.102420D+01  0.257575D+01
     30  0.154023D+01 -0.369693D+01  0.967939D+00 -0.163637D+01  0.351974D+01
     31  0.784296D+00 -0.108761D+01 -0.888358D-02 -0.900987D-02  0.112803D+00
     32 -0.176939D+01 -0.150992D+01 -0.102788D-02  0.691693D-01  0.360804D-02
     33 -0.127928D+01 -0.119584D+01  0.102056D+00  0.198485D-01 -0.740957D-01
     34  0.383250D-01 -0.263316D+00 -0.301150D-01 -0.161145D-01 -0.395770D-01
     35 -0.238954D+00 -0.261857D+00 -0.913185D-02 -0.351002D-01  0.280438D-01
     36 -0.314111D+00  0.399637D+00 -0.467255D-01  0.657541D-01  0.129901D+00
     37 -0.356297D-02  0.251147D-01  0.372845D-02 -0.153289D-01 -0.433607D-01
     38 -0.171751D+00  0.100457D+00  0.255517D-02 -0.326181D-01 -0.267309D-03
     39  0.145517D-01  0.845758D-01 -0.540862D-01  0.277740D-01  0.458224D-01
     40 -0.287519D-01 -0.272587D-01  0.697521D-03 -0.195771D-01 -0.135381D-01
     41 -0.438714D-01 -0.111327D-01 -0.108241D-01  0.236831D-01  0.206725D-01
     42 -0.205295D-01 -0.129823D-01 -0.601834D-02  0.169231D-01  0.400728D-02
     43 -0.364647D+01  0.295144D+01  0.168641D-01  0.747520D-01 -0.206584D+00
     44 -0.527519D+01 -0.286448D+01  0.802553D-01  0.345131D-01  0.234900D+00
     45 -0.297670D+01 -0.673496D+01 -0.205691D+00  0.230697D+00  0.137701D+00
     46  0.496139D-01 -0.135959D+00  0.972130D-02 -0.185186D-01 -0.144341D-01
     47  0.146094D+00  0.466779D-01  0.816426D-02 -0.867653D-02 -0.223151D-02
     48  0.245469D-01  0.192288D-01  0.512847D-03 -0.229943D-02 -0.365649D-02
               31            32            33            34            35
     31  0.402268D+01
     32 -0.133659D+01  0.344721D+01
     33  0.206191D+01  0.240108D+01  0.156178D+01
     34  0.307905D+00 -0.121737D+00 -0.339890D+00  0.451247D+01
     35 -0.119201D+00  0.277171D+00 -0.371975D+00 -0.685285D+01  0.430683D+01
     36 -0.341354D+00 -0.378572D+00 -0.238305D+00 -0.308303D+01 -0.313588D+01
     37 -0.216456D+01  0.280714D+00 -0.834443D+00 -0.373763D+01  0.623184D+01
     38  0.296633D+00 -0.217731D+01 -0.830057D+00  0.623794D+01 -0.339324D+01
     39 -0.763322D+00 -0.704401D+00  0.853858D-01  0.483309D+01  0.502242D+01
     40 -0.570708D-02 -0.780534D-02  0.342460D-02 -0.361620D-01 -0.599218D-01
     41  0.147010D-02  0.927753D-02 -0.300120D-02 -0.195704D-02  0.488697D-01
     42  0.502747D-03  0.208816D-02 -0.522391D-02  0.176214D-02 -0.520952D-01
     43 -0.402723D-01  0.479894D-01 -0.440053D-01 -0.193252D+00 -0.446280D-01
     44  0.778296D-01 -0.204061D-01 -0.784106D-02 -0.535874D-01 -0.140514D+00
     45 -0.794638D-01  0.292851D-01 -0.108418D-01  0.128074D+00 -0.190836D+00
     46 -0.426615D-02  0.101454D-01 -0.147866D-01  0.395434D-02 -0.894030D-02
     47  0.198780D-01 -0.669689D-02  0.311485D-01  0.590647D-02 -0.166706D-01
     48 -0.292780D-01  0.239060D-01 -0.236090D-01  0.165368D-01 -0.903654D-02
               36            37            38            39            40
     36  0.385071D+01
     37  0.480838D+01  0.609126D+01
     38  0.500101D+01 -0.671482D+01  0.566847D+01
     39 -0.423763D+01 -0.375686D+01 -0.361232D+01  0.388614D+01
     40  0.305104D-01 -0.301744D-01 -0.268757D-01  0.622213D-02  0.174895D+01
     41 -0.522856D-01  0.153560D-01  0.678701D-01 -0.189127D-01  0.951426D+00
     42 -0.101740D-01 -0.508574D-02 -0.221493D-01 -0.240537D-01 -0.267357D+00
     43  0.104229D+00 -0.272706D+00  0.312524D-01 -0.603798D-01 -0.132045D+00
     44 -0.195888D+00 -0.858179D-02  0.247612D-01 -0.432577D+00 -0.578137D-02
     45  0.339188D+00 -0.208985D-02 -0.374799D+00  0.255470D+00 -0.110332D-01
     46  0.453388D-01 -0.197649D-01 -0.346409D-01  0.729625D-01 -0.102052D-01
     47  0.147749D-01 -0.464576D-02 -0.293956D-01 -0.170300D-01 -0.779930D-02
     48  0.263090D-01  0.294627D-01 -0.553237D-01  0.793044D-01 -0.529012D-02
               41            42            43            44            45
     41  0.412061D+01
     42  0.680191D-02  0.450851D+01
     43  0.617939D-01  0.723048D-01  0.649099D+01
     44 -0.178876D-01  0.130559D+00  0.723893D+00  0.112213D+02
     45  0.168237D+00  0.409227D-01 -0.469626D+01  0.212351D+01  0.115433D+02
     46  0.547789D-02  0.152724D-02 -0.272758D+01  0.228629D+01  0.935327D+00
     47  0.341637D-02  0.129825D-02  0.210829D+01 -0.528746D+01  0.460317D+00
     48  0.120398D-02 -0.151850D-02  0.109071D+01  0.583493D+00 -0.639330D+01
               46            47            48
     46  0.247562D+01
     47 -0.237740D+01  0.526096D+01
     48 -0.111919D+01 -0.613085D+00  0.628668D+01
 ReadGW:  IGet=0 IStart=         114 Next=        7227 LGW=        7113.
 ICntrl=12127.
 Symmetry not used in FoFDir.
 MinBra= 0 MaxBra= 2 Meth= 1.
 IRaf=       0 NMat=   1 IRICut=       1 DoRegI=T DoRafI=F ISym2E= 0 JSym2E=0.
 PrsmSu:  NPrtUS=   8 ThrOK=T
 PRISM was handed    16287106 working-precision words and  2484 shell-pairs
 PRISM was handed    16287106 working-precision words and  2484 shell-pairs
 PRISM was handed    16287106 working-precision words and  2484 shell-pairs
 PRISM was handed    16287106 working-precision words and  2484 shell-pairs
 PRISM was handed    16287106 working-precision words and  2484 shell-pairs
 PRISM was handed    16287106 working-precision words and  2484 shell-pairs
 PRISM was handed    16287106 working-precision words and  2484 shell-pairs
 PRISM was handed    16287106 working-precision words and  2484 shell-pairs
 Pruned (  75, 302) grid will be used in CalDFT.
 CkSvGd:  ISavGI=        -1 IRadAn=       4 IRASav=       4 ISavGd=        -1.
 CalDSu:  NPrtUS=   8 ThrOK=T
 IPart= 0 IRanGd=          0 ScrnBf=T ScrnGd=T RCrit=4.00D+00 DoMicB=T.
 IPart= 4 IRanGd=          0 ScrnBf=T ScrnGd=T RCrit=4.00D+00 DoMicB=T.
 IPart= 2 IRanGd=          0 ScrnBf=T ScrnGd=T RCrit=4.00D+00 DoMicB=T.
 IPart= 6 IRanGd=          0 ScrnBf=T ScrnGd=T RCrit=4.00D+00 DoMicB=T.
 CutRad = 1000.00    CtRdIn =    0.00    XCrit =  15.00   ICut = 0
 CutRad = 1000.00    CtRdIn =    0.00    XCrit =  15.00   ICut = 0
 CutRad = 1000.00    CtRdIn =    0.00    XCrit =  15.00   ICut = 0
 IPart= 7 IRanGd=          0 ScrnBf=T ScrnGd=T RCrit=4.00D+00 DoMicB=T.
 IPart= 3 IRanGd=          0 ScrnBf=T ScrnGd=T RCrit=4.00D+00 DoMicB=T.
 CutRad = 1000.00    CtRdIn =    0.00    XCrit =  15.00   ICut = 0
 CutRad = 1000.00    CtRdIn =    0.00    XCrit =  15.00   ICut = 0
 CutRad = 1000.00    CtRdIn =    0.00    XCrit =  15.00   ICut = 0
 IPart= 1 IRanGd=          0 ScrnBf=T ScrnGd=T RCrit=4.00D+00 DoMicB=T.
 IPart= 5 IRanGd=          0 ScrnBf=T ScrnGd=T RCrit=4.00D+00 DoMicB=T.
 CutRad = 1000.00    CtRdIn =    0.00    XCrit =  15.00   ICut = 0
 CutRad = 1000.00    CtRdIn =    0.00    XCrit =  15.00   ICut = 0
 IPart= 5        14443 of        16096 points in      34 batches and      101 microbatches, Max-NSigAt=      16 Max-NSgAt2=      16
 IPart= 4        13835 of        15436 points in      31 batches and      102 microbatches, Max-NSigAt=      16 Max-NSgAt2=      16
 IPart= 3        14110 of        15878 points in      32 batches and       93 microbatches, Max-NSigAt=      16 Max-NSgAt2=      16
 IPart= 6        13041 of        14618 points in      30 batches and       91 microbatches, Max-NSigAt=      16 Max-NSgAt2=      16
 IPart= 7        14390 of        16908 points in      36 batches and      108 microbatches, Max-NSigAt=      16 Max-NSgAt2=      16
 IPart= 1        14394 of        16884 points in      35 batches and       89 microbatches, Max-NSigAt=      16 Max-NSgAt2=      16
 IPart= 2        14273 of        16824 points in      35 batches and      106 microbatches, Max-NSigAt=      16 Max-NSgAt2=      16
 IPart= 0        13621 of        15146 points in      29 batches and       94 microbatches, Max-NSigAt=      16 Max-NSgAt2=      16
 Polarizability after L703:
                1             2             3
      1  0.688761D+02
      2  0.107532D+02  0.640238D+02
      3  0.180579D+01 -0.164090D+01  0.640382D+02
 Dipole Derivatives after L703:
               1            2            3            4            5
      1-0.452733D-01 0.523338D-01 0.316752D-01 0.682153D-01-0.107771D-01
      2 0.112168D-01-0.123762D+00 0.161072D-01 0.110894D-01 0.458890D-01
      3-0.124402D-01-0.203121D-01 0.873216D-01-0.599332D-01 0.153419D-01
               6            7            8            9           10
      1-0.728204D-01 0.275304D-01-0.935938D-01 0.592670D-01 0.410223D+00
      2-0.697764D-01-0.633634D-01-0.679515D-01 0.451562D-01 0.711071D-01
      3-0.890695D-01 0.702521D-01 0.565503D-01 0.156766D-01 0.714060D-01
              11           12           13           14           15
      1 0.612650D-01-0.107380D-01-0.794128D-01-0.200481D-01 0.339920D-01
      2 0.416451D+00 0.221098D-01 0.497621D-01-0.792217D-02 0.239258D-01
      3 0.892577D-01 0.346342D+00-0.199028D-01 0.576489D-02 0.552611D-01
              16           17           18           19           20
      1 0.462981D-01 0.533786D-01-0.126599D-01-0.108394D+00-0.453935D-01
      2-0.213165D-01-0.105206D+00-0.627639D-01-0.803205D-01 0.329878D-01
      3-0.111013D-01-0.428303D-01 0.601040D-01 0.654764D-01 0.565347D-01
              21           22           23           24           25
      1 0.573229D-01 0.470237D-01 0.293789D-01-0.812622D-01 0.214807D+00
      2 0.530552D-01-0.290894D-02 0.777542D-01-0.258577D-01-0.421086D+00
      3 0.299438D-01 0.838990D-02-0.333901D-01-0.902310D-01 0.151797D+00
              26           27           28           29           30
      1-0.588313D+00 0.320869D+00 0.442021D-01 0.161241D+00-0.220494D-01
      2-0.503199D-01-0.213017D-02 0.151728D+00 0.243686D-01-0.100662D+00
      3-0.388744D+00 0.427220D+00 0.485803D-01 0.104187D-01-0.581319D-01
              31           32           33           34           35
      1 0.296930D+00 0.222121D+00-0.257929D+00 0.157415D+00 0.369345D+00
      2 0.180581D+00 0.302069D+00-0.187673D+00 0.330682D+00 0.154480D+00
      3-0.197327D+00-0.138941D+00 0.117701D+00-0.195287D+00-0.223273D+00
              36           37           38           39           40
      1 0.283138D+00-0.634514D+00-0.519788D+00-0.331875D-01-0.516485D-01
      2 0.302755D+00-0.479699D+00-0.626244D+00-0.485263D-01 0.662822D-01
      3-0.668249D+00 0.366884D+00 0.386439D+00 0.604310D-01 0.412581D-02
              41           42           43           44           45
      1 0.901999D-02-0.211812D-01-0.655447D+00 0.405708D+00-0.330835D+00
      2 0.520177D-01-0.129370D-01 0.224156D+00-0.306555D+00-0.612535D-02
      3 0.105038D-01 0.898095D-01-0.281548D+00 0.218110D+00-0.754254D+00
              46           47           48
      1 0.262046D+00-0.858783D-01 0.563991D-01
      2-0.279102D-01 0.181942D+00 0.533428D-01
      3-0.937156D-02-0.143049D-02 0.370124D+00
 Hessian after L703:
                1             2             3             4             5
      1  0.573010D+00
      2 -0.774738D-02  0.471078D+00
      3  0.268194D-01  0.545002D-03  0.552162D+00
      4 -0.709784D-01 -0.638656D-02 -0.730424D-01  0.704691D-01
      5 -0.722633D-02 -0.483099D-01 -0.324119D-01  0.919525D-02  0.564669D-01
      6 -0.737897D-01 -0.350876D-01 -0.283841D+00  0.804140D-01  0.382608D-01
      7 -0.108121D+00 -0.784115D-01  0.745911D-01  0.449778D-02  0.691610D-02
      8 -0.820505D-01 -0.143581D+00  0.940148D-01  0.287583D-02  0.292736D-02
      9  0.743559D-01  0.890047D-01 -0.126950D+00  0.162429D-01  0.194834D-01
     10 -0.896208D-01  0.300318D-01  0.441493D-03  0.919782D-03 -0.113051D-01
     11  0.311062D-01 -0.190150D+00 -0.495507D-01 -0.256356D-02 -0.828959D-02
     12 -0.501993D-04 -0.437480D-01 -0.894483D-01  0.623697D-02 -0.325215D-01
     13 -0.247346D-02  0.765490D-02 -0.766153D-03  0.581726D-04 -0.126475D-02
     14  0.321419D-01 -0.110744D-01  0.511899D-02 -0.765303D-04  0.121703D-02
     15  0.728101D-02 -0.323429D-02  0.363359D-02  0.915203D-03 -0.255329D-03
     16 -0.508954D-02  0.522370D-03 -0.199084D-02  0.350343D-05 -0.280562D-03
     17  0.288080D-02  0.869742D-03  0.852431D-03 -0.183880D-03  0.202803D-03
     18 -0.165767D-02 -0.216680D-03  0.421720D-03 -0.750571D-04  0.358826D-03
     19  0.146011D-02 -0.455136D-03 -0.141070D-03 -0.573877D-04 -0.113690D-04
     20 -0.860829D-03 -0.254585D-03  0.187286D-03  0.143661D-03  0.431984D-04
     21  0.139904D-03 -0.303979D-03  0.338066D-03  0.152072D-03  0.144401D-03
     22  0.663246D-03 -0.161211D-02 -0.665057D-04  0.230285D-03  0.745015D-03
     23 -0.222699D-03  0.396224D-03  0.104089D-02  0.253635D-03 -0.108315D-03
     24  0.401067D-03 -0.644061D-03  0.467990D-03 -0.162715D-03  0.747801D-03
     25  0.108407D-01 -0.202828D-02 -0.254780D-02  0.530298D-03  0.290390D-02
     26 -0.163983D-01 -0.164852D-01 -0.237231D-01  0.319511D-02 -0.436078D-02
     27 -0.629846D-02 -0.124550D-01 -0.760042D-03 -0.152799D-02 -0.115161D-03
     28 -0.113655D-02 -0.191300D-03 -0.342378D-02  0.101173D-03 -0.110707D-02
     29 -0.208425D-03  0.203563D-02 -0.401317D-02 -0.627607D-04 -0.109390D-02
     30 -0.329693D-02 -0.108801D-02  0.180013D-02 -0.901079D-04 -0.291365D-03
     31  0.291895D-03  0.137625D-02 -0.127326D-02 -0.220140D-04  0.295046D-03
     32 -0.705936D-03 -0.913901D-04 -0.241547D-03 -0.388653D-05  0.301377D-03
     33  0.145536D-02 -0.329046D-03 -0.416263D-02  0.869307D-03 -0.733234D-03
     34  0.156892D-02  0.344005D-03 -0.164013D-02 -0.438270D-03  0.399806D-03
     35 -0.284250D-02 -0.486198D-02  0.408303D-02 -0.553544D-04  0.647631D-03
     36  0.300382D-02  0.343142D-02 -0.422885D-02  0.115420D-03 -0.386989D-04
     37 -0.394322D-02 -0.336038D-02  0.394463D-02  0.394776D-03 -0.384269D-03
     38 -0.258535D-02 -0.139168D-02  0.181368D-02  0.333690D-03 -0.512343D-03
     39 -0.178687D-02 -0.440611D-03  0.312447D-02 -0.290967D-03  0.467217D-03
     40 -0.305168D+00  0.582613D-01 -0.253872D-01 -0.558155D-02  0.521843D-03
     41  0.544765D-01 -0.568677D-01  0.371519D-02 -0.469952D-02 -0.202235D-03
     42 -0.276628D-01  0.274285D-02 -0.501820D-01 -0.291294D-01  0.678524D-02
     43 -0.135956D-02  0.183607D-02  0.319000D-02 -0.206203D-03  0.460153D-03
     44  0.285473D-03 -0.128802D-02 -0.974571D-03 -0.192479D-02  0.100295D-02
     45  0.124032D-02  0.179701D-02 -0.214459D-02 -0.489037D-03  0.786254D-04
     46  0.557850D-04  0.165944D-03  0.129256D-02  0.789971D-04  0.142393D-03
     47 -0.426496D-04 -0.242498D-04 -0.456264D-03 -0.403433D-04  0.677618D-04
     48 -0.154188D-03  0.263409D-04 -0.229786D-03 -0.138108D-03  0.407979D-04
                6             7             8             9            10
      6  0.307872D+00
      7 -0.528286D-02  0.115642D+00
      8 -0.204310D-02  0.897574D-01  0.160708D+00
      9 -0.172878D-01 -0.831826D-01 -0.101136D+00  0.137238D+00
     10 -0.298273D-02  0.232944D-02 -0.164103D-01 -0.631708D-02  0.507360D+00
     11 -0.175205D-02  0.148332D-02 -0.242866D-01 -0.484714D-02 -0.329878D-01
     12 -0.881132D-02 -0.518608D-02  0.154565D-01  0.588730D-02  0.179293D+00
     13 -0.502059D-03 -0.477680D-03 -0.348320D-03 -0.144679D-04 -0.176926D+00
     14  0.686263D-03 -0.464384D-03  0.106277D-02  0.289827D-03  0.538037D-01
     15  0.540851D-03  0.167494D-03 -0.237086D-03  0.165724D-03 -0.376245D-01
     16 -0.306892D-04  0.661939D-04  0.135339D-03 -0.225521D-03 -0.676730D-03
     17  0.115243D-03 -0.207869D-03  0.267815D-03  0.827104D-04 -0.273389D-03
     18  0.388100D-03  0.906990D-04 -0.494105D-03  0.732394D-05  0.307603D-02
     19  0.102660D-04 -0.133813D-03  0.954436D-03 -0.133339D-03 -0.256402D-01
     20 -0.292777D-04  0.310562D-03 -0.219781D-03  0.856505D-04  0.726661D-02
     21 -0.110379D-03  0.122188D-03 -0.138840D-03  0.133908D-03 -0.648957D-02
     22  0.632459D-03  0.134215D-03 -0.132557D-03  0.140525D-03 -0.100018D-01
     23 -0.420365D-03  0.157669D-03  0.150538D-04  0.809020D-05 -0.796803D-04
     24  0.553490D-03  0.556585D-04 -0.850165D-04 -0.435264D-04 -0.305326D-02
     25  0.964114D-03  0.806665D-03  0.357262D-02  0.178782D-03 -0.150147D+00
     26 -0.991623D-03  0.302148D-03 -0.966205D-03 -0.190006D-02 -0.355152D-01
     27  0.685305D-03  0.209125D-03 -0.332516D-03 -0.948412D-03 -0.126838D+00
     28 -0.672453D-04 -0.297897D-03  0.175278D-03  0.190239D-03  0.422225D-02
     29 -0.149948D-03 -0.213524D-03  0.457717D-03  0.499987D-03  0.367279D-02
     30 -0.414037D-04  0.124262D-03 -0.993644D-03 -0.729709D-03  0.130040D-01
     31  0.378504D-03 -0.120982D-03  0.168758D-03  0.800689D-03 -0.198319D-01
     32  0.539738D-03 -0.327488D-04 -0.203050D-03  0.767961D-03 -0.196936D-01
     33 -0.951249D-03  0.189097D-03  0.176522D-02 -0.444055D-03  0.217638D-01
     34  0.369026D-03  0.330121D-03  0.220047D-02  0.445341D-03 -0.752049D-02
     35  0.701585D-03 -0.121647D-03  0.586116D-03  0.417533D-03  0.511255D-02
     36  0.133268D-02 -0.246239D-03  0.620039D-03  0.159909D-02 -0.117480D-01
     37 -0.372379D-03  0.465561D-03 -0.266844D-02 -0.848429D-03  0.234880D-02
     38 -0.441173D-03  0.688083D-03 -0.194050D-02 -0.601114D-03 -0.483382D-02
     39  0.218643D-03 -0.138924D-03 -0.167320D-02 -0.772585D-04 -0.861045D-02
     40 -0.303749D-04 -0.154813D-01  0.306031D-02 -0.160787D-02 -0.447107D-02
     41  0.408217D-03 -0.204580D-01  0.472485D-02 -0.263651D-02  0.330170D-01
     42 -0.666827D-03  0.188075D-01 -0.453982D-02  0.121631D-02  0.106704D-01
     43  0.166456D-03  0.458484D-03 -0.116882D-02 -0.351731D-04 -0.288296D-01
     44  0.188423D-03  0.218606D-03  0.292647D-03  0.349441D-03 -0.144124D-01
     45  0.759925D-05 -0.350077D-03 -0.341930D-03  0.326464D-03 -0.191893D-01
     46  0.123272D-03 -0.978124D-04 -0.121571D-03  0.101295D-04 -0.351527D-02
     47  0.148762D-04  0.757963D-04  0.154581D-03  0.131288D-03  0.260696D-02
     48  0.111760D-03  0.297119D-04  0.158460D-03 -0.929844D-04 -0.539652D-02
               11            12            13            14            15
     11  0.512131D+00
     12  0.149946D+00  0.378504D+00
     13  0.504277D-01 -0.363591D-01  0.475588D+00
     14 -0.107598D+00  0.615858D-02  0.138914D-01  0.561512D+00
     15  0.560053D-02 -0.826685D-01  0.324431D-02  0.221441D-01  0.554603D+00
     16  0.312197D-01  0.921032D-02 -0.465210D-01  0.700932D-02 -0.339608D-03
     17 -0.127060D-01 -0.310009D-02  0.103827D-01 -0.294816D+00 -0.608709D-01
     18  0.791528D-02  0.114715D-02 -0.446936D-03 -0.613453D-01 -0.631862D-01
     19 -0.133804D-01  0.118958D-01 -0.172761D+00 -0.869927D-01  0.934080D-01
     20  0.682905D-02 -0.745695D-02 -0.824716D-01 -0.101994D+00  0.603293D-01
     21 -0.489451D-02  0.355616D-02  0.900750D-01  0.606286D-01 -0.107439D+00
     22 -0.436132D-02 -0.316792D-01 -0.507182D-01 -0.344184D-02 -0.451758D-01
     23  0.164238D-02  0.129979D-01 -0.235910D-02 -0.518557D-01 -0.281544D-01
     24 -0.116256D-02 -0.699369D-02 -0.478259D-01 -0.284494D-01 -0.299466D+00
     25 -0.506181D-01 -0.839294D-01 -0.221887D-01 -0.748211D-02 -0.196291D-01
     26 -0.134396D+00 -0.590402D-01  0.536371D-02  0.792507D-02  0.799476D-02
     27 -0.117732D+00 -0.214523D+00 -0.860313D-02 -0.586465D-03 -0.295488D-02
     28 -0.179711D-01 -0.157273D-01  0.290039D-03 -0.154255D-02  0.228007D-04
     29 -0.144408D-01 -0.169849D-01 -0.240578D-03  0.272463D-03  0.373927D-02
     30 -0.865265D-02 -0.460878D-02  0.132605D-02 -0.801123D-03 -0.105114D-02
     31 -0.168497D-01 -0.197630D-01 -0.779691D-03 -0.748214D-03  0.357926D-03
     32 -0.218236D-01 -0.222462D-01  0.203901D-02  0.106837D-02 -0.135503D-02
     33  0.176361D-01  0.546946D-01 -0.132783D-02  0.884609D-03 -0.180865D-02
     34  0.618593D-02  0.164139D-02 -0.587893D-02 -0.230215D-02  0.373844D-02
     35 -0.709698D-02  0.322042D-02  0.145382D-02  0.314513D-02 -0.220776D-02
     36 -0.104790D-01  0.237700D-01  0.378338D-02  0.372880D-02 -0.492310D-02
     37 -0.650321D-02  0.510548D-02 -0.796510D-03 -0.238009D-02  0.103882D-02
     38  0.176853D-02  0.374314D-02 -0.365644D-02 -0.444542D-02  0.335847D-02
     39 -0.744589D-02 -0.528858D-01 -0.147752D-03 -0.190341D-02  0.278229D-02
     40  0.223467D-02  0.554270D-03  0.893618D-03  0.862642D-03  0.667909D-03
     41 -0.712951D-02  0.449872D-02 -0.813351D-03 -0.549994D-02 -0.241321D-02
     42  0.273291D-02  0.103656D-02 -0.556718D-03 -0.171212D-02  0.494369D-04
     43  0.197328D-01 -0.195821D-01  0.202687D-02 -0.232929D-02 -0.636192D-02
     44  0.836148D-02 -0.113707D-01 -0.262786D-03  0.717281D-03 -0.524097D-02
     45  0.216795D-01 -0.695597D-02 -0.166139D-02 -0.455795D-02  0.297720D-02
     46  0.284495D-02 -0.166118D-02  0.664021D-03  0.509160D-04 -0.171110D-02
     47 -0.281457D-02  0.447002D-03  0.203678D-03  0.362900D-03  0.802518D-03
     48  0.100619D-02 -0.170039D-02 -0.217417D-03 -0.284048D-03 -0.125436D-02
               16            17            18            19            20
     16  0.514384D-01
     17 -0.118777D-01  0.320666D+00
     18  0.274881D-03  0.671453D-01  0.626789D-01
     19  0.116900D-02  0.480505D-03 -0.139529D-02  0.192618D+00
     20 -0.223967D-01 -0.140144D-01  0.163574D-01  0.936807D-01  0.107791D+00
     21 -0.675921D-02 -0.363404D-02  0.360030D-02 -0.100607D+00 -0.678422D-01
     22 -0.822261D-03 -0.451174D-03  0.128266D-02  0.447506D-02  0.312434D-02
     23 -0.578663D-02 -0.174689D-02 -0.306307D-01  0.313019D-02  0.107585D-02
     24 -0.521116D-03 -0.340403D-03 -0.532230D-02 -0.224728D-02 -0.171605D-02
     25 -0.216586D-03 -0.108595D-02 -0.153506D-02  0.633584D-05  0.218127D-03
     26  0.261132D-03  0.105815D-02  0.964751D-03  0.191889D-02  0.978979D-03
     27  0.956379D-03 -0.150442D-02  0.139176D-03  0.888747D-03 -0.231375D-03
     28  0.228138D-03  0.154726D-03  0.795493D-04 -0.126329D-03 -0.103046D-03
     29 -0.239155D-04  0.212889D-03 -0.316581D-03 -0.456579D-03 -0.535603D-03
     30 -0.752881D-03  0.971121D-03 -0.319731D-03 -0.539205D-04  0.180464D-03
     31 -0.550765D-04  0.160877D-03 -0.667709D-04 -0.683029D-04  0.171092D-03
     32  0.267451D-03 -0.158073D-03 -0.905378D-04  0.335590D-03 -0.448862D-03
     33 -0.348487D-03  0.679650D-04  0.253355D-04  0.119735D-02 -0.497401D-04
     34  0.890238D-03 -0.826892D-03 -0.206185D-03  0.573151D-03 -0.127040D-03
     35  0.544840D-03 -0.202459D-03  0.933121D-04  0.254893D-02 -0.488400D-03
     36 -0.173748D-03 -0.125026D-04 -0.261829D-03  0.931840D-03 -0.759508D-03
     37 -0.739341D-03  0.998315D-03  0.115530D-03 -0.153099D-02  0.118658D-02
     38 -0.797045D-03  0.799298D-03  0.922429D-04 -0.267190D-02  0.136317D-02
     39  0.102376D-03  0.167887D-03  0.284272D-04 -0.153712D-02  0.243643D-03
     40 -0.220271D-03 -0.778513D-04 -0.154966D-03  0.187760D-03 -0.207711D-03
     41  0.160507D-02 -0.746912D-03  0.250903D-03 -0.566120D-04  0.241831D-03
     42  0.291286D-03 -0.309311D-03  0.585656D-03 -0.466588D-03  0.939950D-04
     43  0.604716D-03 -0.118219D-03  0.627664D-03 -0.343997D-03  0.123438D-03
     44 -0.377388D-03  0.315284D-03 -0.591892D-04  0.937507D-03 -0.311692D-03
     45  0.182379D-03  0.439609D-03 -0.812763D-04 -0.197794D-02  0.685357D-03
[...]
    X8       -2.99222   0.00000   0.00000  -0.00076  -0.00060  -2.99283
    Y8       -0.93369   0.00000   0.00000  -0.00125  -0.00122  -0.93491
    Z8        1.94827   0.00001   0.00000   0.00015   0.00001   1.94828
    X9       -7.42082   0.00000   0.00000  -0.00026  -0.00035  -7.42117
    Y9       -1.21414  -0.00001   0.00000  -0.00008  -0.00004  -1.21418
    Z9       -2.51895   0.00001   0.00000   0.00006   0.00017  -2.51878
   X10       -6.51193   0.00001   0.00000  -0.00038  -0.00054  -6.51247
   Y10       -2.63105   0.00000   0.00000  -0.00018  -0.00015  -2.63120
   Z10       -3.72146   0.00000   0.00000   0.00009   0.00015  -3.72131
   X11       -8.60886   0.00000   0.00000  -0.00017  -0.00016  -8.60902
   Y11       -2.65454   0.00001   0.00000   0.00043   0.00046  -2.65408
   Z11       -0.84253  -0.00002   0.00000   0.00002   0.00020  -0.84233
   X12       -7.95142  -0.00001   0.00000   0.00048   0.00069  -7.95073
   Y12       -1.88574  -0.00001   0.00000   0.00018   0.00021  -1.88553
   Z12        2.65329  -0.00001   0.00000   0.00010   0.00025   2.65353
   X13       -9.37079   0.00001   0.00000   0.00013   0.00027  -9.37052
   Y13       -3.35633   0.00000   0.00000   0.00028   0.00031  -3.35602
   Z13        1.36809   0.00000   0.00000   0.00046   0.00068   1.36877
   X14       -8.43098   0.00000   0.00000   0.00007   0.00012  -8.43087
   Y14        3.08483   0.00000   0.00000   0.00011   0.00014   3.08497
   Z14       -0.09481   0.00000   0.00000  -0.00055  -0.00038  -0.09519
   X15       -9.25133  -0.00001   0.00000  -0.00024  -0.00041  -9.25174
   Y15        0.26874  -0.00001   0.00000   0.00000   0.00003   0.26877
   Z15       -3.75773   0.00000   0.00000   0.00011   0.00032  -3.75741
   X16      -10.71643   0.00002   0.00000   0.00058   0.00040 -10.71603
   Y16       -0.76166   0.00001   0.00000  -0.00058  -0.00055  -0.76221
   Z16       -4.06474  -0.00001   0.00000  -0.00167  -0.00136  -4.06611
         Item               Value     Threshold  Converged?
 Maximum Force            0.000022     0.000450     YES
 RMS     Force            0.000007     0.000300     YES
 Maximum Displacement     0.001407     0.001800     YES
 RMS     Displacement     0.000483     0.001200     YES
 Predicted change in Energy=-6.508930D-09
 Optimization completed.
    -- Stationary point found.
 GradGradGradGradGradGradGradGradGradGradGradGradGradGradGradGradGradGrad


 Test job not archived.
 1\1\GINC-NODE23\Freq\UB3LYP\CBSB7\C4H9O3(2)\NYEE\09-Jun-2013\0\\# freq
  nosymm b3lyp/cbsb7 iop(7/33=1)\\Title Card Required\\0,2\C,-3.404823,
 1.393471,0.055772\H,-3.089593,1.550161,1.089125\H,-2.846023,2.096841,-
 0.577004\C,-3.116596,-0.002948,-0.392123\C,-1.791687,-0.604486,-0.0349
 9\H,-1.740746,-1.664618,-0.292428\H,-0.994592,-0.087594,-0.585882\H,-1
 .583417,-0.49409,1.030982\C,-3.926928,-0.642494,-1.332972\H,-3.445967,
 -1.392291,-1.969311\H,-4.555612,-1.404722,-0.445848\O,-4.207709,-0.997
 893,1.40406\O,-4.958808,-1.776093,0.72396\H,-4.461483,1.632421,-0.0501
 72\O,-4.895593,0.142213,-1.988507\H,-5.67089,-0.403051,-2.150969\\Vers
 ion=AM64L-G03RevD.01\HF=-383.4475405\S2=0.760011\S2-1=0.\S2A=0.750057\
 RMSD=3.842e-09\RMSF=6.903e-06\ZeroPoint=0.1250083\Thermal=0.1338569\Di
 pole=0.4789665,0.0512057,-0.7156752\DipoleDeriv=-0.0452733,0.0112168,-
 0.0124402,0.0523338,-0.123762,-0.0203121,0.0316752,0.0161072,0.0873216
 ,0.0682153,0.0110894,-0.0599332,-0.0107771,0.045889,0.0153419,-0.07282
 04,-0.0697764,-0.0890695,0.0275304,-0.0633634,0.0702521,-0.0935938,-0.
 0679515,0.0565503,0.059267,0.0451562,0.0156766,0.4102226,0.0711071,0.0
 71406,0.061265,0.4164513,0.0892577,-0.010738,0.0221098,0.3463423,-0.07
 94128,0.0497621,-0.0199028,-0.0200481,-0.0079222,0.0057649,0.033992,0.
 0239258,0.0552611,0.0462981,-0.0213165,-0.0111013,0.0533786,-0.1052058
 ,-0.0428303,-0.0126599,-0.0627639,0.060104,-0.1083943,-0.0803205,0.065
 4764,-0.0453935,0.0329878,0.0565347,0.0573229,0.0530552,0.0299438,0.04
 70237,-0.0029089,0.0083899,0.0293789,0.0777542,-0.0333901,-0.0812622,-
 0.0258577,-0.090231,0.2148072,-0.4210856,0.1517966,-0.5883131,-0.05031
 99,-0.3887444,0.3208689,-0.0021302,0.4272204,0.0442021,0.1517281,0.048
 5803,0.1612415,0.0243686,0.0104187,-0.0220494,-0.1006616,-0.0581319,0.
 2969303,0.1805805,-0.1973274,0.2221213,0.302069,-0.1389407,-0.2579288,
 -0.1876734,0.1177014,0.1574151,0.3306824,-0.1952867,0.3693449,0.154479
 8,-0.2232729,0.2831377,0.3027548,-0.6682487,-0.6345144,-0.4796994,0.36
 68844,-0.5197883,-0.6262439,0.3864392,-0.0331875,-0.0485263,0.060431,-
 0.0516485,0.0662822,0.0041258,0.00902,0.0520177,0.0105038,-0.0211812,-
 0.012937,0.0898095,-0.6554473,0.2241559,-0.2815484,0.4057083,-0.306554
 7,0.2181099,-0.3308354,-0.0061253,-0.7542544,0.2620457,-0.0279102,-0.0
 093716,-0.0858783,0.1819423,-0.0014305,0.0563991,0.0533428,0.3701238\P
 olar=68.8760933,10.7531986,64.0237932,1.8057855,-1.640898,64.0381919\P
 G=C01 [X(C4H9O3)]\NImag=1\\0.57301040,-0.00774738,0.47107827,0.0268194
 2,0.00054500,0.55216151,-0.07097844,-0.00638656,-0.07304242,0.07046910
 ,-0.00722633,-0.04830990,-0.03241192,0.00919525,0.05646695,-0.07378972
 ,-0.03508765,-0.28384126,0.08041396,0.03826083,0.30787182,-0.10812101,
 -0.07841151,0.07459109,0.00449778,0.00691610,-0.00528286,0.11564207,-0
 .08205049,-0.14358055,0.09401477,0.00287583,0.00292736,-0.00204310,0.0
 8975742,0.16070775,0.07435592,0.08900465,-0.12695001,0.01624289,0.0194
 8342,-0.01728781,-0.08318265,-0.10113573,0.13723765,-0.08962084,0.0300
 3184,0.00044149,0.00091978,-0.01130515,-0.00298273,0.00232944,-0.01641
 026,-0.00631708,0.50736034,0.03110619,-0.19015025,-0.04955068,-0.00256
 356,-0.00828959,-0.00175205,0.00148332,-0.02428657,-0.00484714,-0.0329
 8781,0.51213058,-0.00005020,-0.04374798,-0.08944830,0.00623697,-0.0325
 2145,-0.00881132,-0.00518608,0.01545649,0.00588730,0.17929324,0.149946
 24,0.37850374,-0.00247346,0.00765490,-0.00076615,0.00005817,-0.0012647
 5,-0.00050206,-0.00047768,-0.00034832,-0.00001447,-0.17692576,0.050427
 68,-0.03635905,0.47558817,0.03214186,-0.01107436,0.00511899,-0.0000765
 3,0.00121703,0.00068626,-0.00046438,0.00106277,0.00028983,0.05380371,-
 0.10759832,0.00615858,0.01389143,0.56151238,0.00728101,-0.00323429,0.0
 0363359,0.00091520,-0.00025533,0.00054085,0.00016749,-0.00023709,0.000
 16572,-0.03762445,0.00560053,-0.08266847,0.00324431,0.02214410,0.55460
 259,-0.00508954,0.00052237,-0.00199084,0.00000350,-0.00028056,-0.00003
 069,0.00006619,0.00013534,-0.00022552,-0.00067673,0.03121970,0.0092103
 2,-0.04652105,0.00700932,-0.00033961,0.05143844,0.00288080,0.00086974,
 0.00085243,-0.00018388,0.00020280,0.00011524,-0.00020787,0.00026782,0.
 00008271,-0.00027339,-0.01270596,-0.00310009,0.01038270,-0.29481586,-0
 .06087088,-0.01187772,0.32066604,-0.00165767,-0.00021668,0.00042172,-0
 .00007506,0.00035883,0.00038810,0.00009070,-0.00049411,0.00000732,0.00
 307603,0.00791528,0.00114715,-0.00044694,-0.06134532,-0.06318625,0.000
 27488,0.06714526,0.06267885,0.00146011,-0.00045514,-0.00014107,-0.0000
 5739,-0.00001137,0.00001027,-0.00013381,0.00095444,-0.00013334,-0.0256
 4019,-0.01338044,0.01189578,-0.17276091,-0.08699271,0.09340805,0.00116
 900,0.00048051,-0.00139529,0.19261847,-0.00086083,-0.00025459,0.000187
 29,0.00014366,0.00004320,-0.00002928,0.00031056,-0.00021978,0.00008565
 ,0.00726661,0.00682905,-0.00745695,-0.08247160,-0.10199380,0.06032932,
 -0.02239670,-0.01401443,0.01635735,0.09368067,0.10779127,0.00013990,-0
 .00030398,0.00033807,0.00015207,0.00014440,-0.00011038,0.00012219,-0.0
 0013884,0.00013391,-0.00648957,-0.00489451,0.00355616,0.09007503,0.060
 62865,-0.10743933,-0.00675921,-0.00363404,0.00360030,-0.10060674,-0.06
 784217,0.11568111,0.00066325,-0.00161211,-0.00006651,0.00023029,0.0007
 4502,0.00063246,0.00013422,-0.00013256,0.00014052,-0.01000183,-0.00436
 132,-0.03167921,-0.05071818,-0.00344184,-0.04517580,-0.00082226,-0.000
 45117,0.00128266,0.00447506,0.00312434,0.02304098,0.05961008,-0.000222
 70,0.00039622,0.00104089,0.00025363,-0.00010832,-0.00042037,0.00015767
 ,0.00001505,0.00000809,-0.00007968,0.00164238,0.01299785,-0.00235910,-
 0.05185571,-0.02815441,-0.00578663,-0.00174689,-0.03063068,0.00313019,
 0.00107585,0.01567481,0.00268523,0.05041845,0.00040107,-0.00064406,0.0
 0046799,-0.00016271,0.00074780,0.00055349,0.00005566,-0.00008502,-0.00
 004353,-0.00305326,-0.00116256,-0.00699369,-0.04782588,-0.02844937,-0.
 29946551,-0.00052112,-0.00034040,-0.00532230,-0.00224728,-0.00171605,-
 0.01548899,0.05235355,0.02986174,0.32477505,0.01084073,-0.00202828,-0.
 00254780,0.00053030,0.00290390,0.00096411,0.00080666,0.00357262,0.0001
 7878,-0.15014691,-0.05061814,-0.08392941,-0.02218873,-0.00748211,-0.01
 962908,-0.00021659,-0.00108595,-0.00153506,0.00000634,0.00021813,-0.00
 120409,-0.00167920,0.00220946,0.00025759,0.44052342,-0.01639825,-0.016
 48525,-0.02372312,0.00319511,-0.00436078,-0.00099162,0.00030215,-0.000
 96621,-0.00190006,-0.03551522,-0.13439581,-0.05904015,0.00536371,0.007
 92507,0.00799476,0.00026113,0.00105815,0.00096475,0.00191889,0.0009789
 8,-0.00039407,0.00412733,0.00028075,0.00089479,-0.11008610,0.43480738,
 -0.00629846,-0.01245496,-0.00076004,-0.00152799,-0.00011516,0.00068531
 ,0.00020912,-0.00033252,-0.00094841,-0.12683761,-0.11773225,-0.2145228
 8,-0.00860313,-0.00058646,-0.00295488,0.00095638,-0.00150442,0.0001391
 8,0.00088875,-0.00023137,0.00037764,-0.00011875,-0.00160739,0.00067109
 ,0.13571163,0.18281961,0.51765389,-0.00113655,-0.00019130,-0.00342378,
 0.00010117,-0.00110707,-0.00006725,-0.00029790,0.00017528,0.00019024,0
 .00422225,-0.01797108,-0.01572726,0.00029004,-0.00154255,0.00002280,0.
 00022814,0.00015473,0.00007955,-0.00012633,-0.00010305,0.00002628,0.00
 027077,-0.00026969,0.00028683,-0.08011597,0.08932716,0.06133284,0.0998
 1181,-0.00020843,0.00203563,-0.00401317,-0.00006276,-0.00109390,-0.000
 14995,-0.00021352,0.00045772,0.00049999,0.00367279,-0.01444083,-0.0169
 8491,-0.00024058,0.00027246,0.00373927,-0.00002392,0.00021289,-0.00031
 658,-0.00045658,-0.00053560,-0.00031628,0.00032479,0.00009072,0.000470
 75,0.07721535,-0.14616076,-0.10763472,-0.09132590,0.17265717,-0.003296
 93,-0.00108801,0.00180013,-0.00009011,-0.00029136,-0.00004140,0.000124
 26,-0.00099364,-0.00072971,0.01300401,-0.00865265,-0.00460878,0.001326
 05,-0.00080112,-0.00105114,-0.00075288,0.00097112,-0.00031973,-0.00005
 392,0.00018046,0.00000898,-0.00014374,0.00045322,0.00005764,0.05468230
 ,-0.11861901,-0.14456282,-0.06009793,0.11552456,0.15027489,0.00029190,
 0.00137625,-0.00127326,-0.00002201,0.00029505,0.00037850,-0.00012098,0
 .00016876,0.00080069,-0.01983194,-0.01684973,-0.01976297,-0.00077969,-
 0.00074821,0.00035793,-0.00005508,0.00016088,-0.00006677,-0.00006830,0
 .00017109,0.00088409,0.00057983,-0.00014313,0.00076131,-0.01141441,0.0
 1358467,0.00862205,-0.00603814,-0.00550417,0.00666650,0.05920193,-0.00
 070594,-0.00009139,-0.00024155,-0.00000389,0.00030138,0.00053974,-0.00
 003275,-0.00020305,0.00076796,-0.01969362,-0.02182365,-0.02224617,0.00
 203901,0.00106837,-0.00135503,0.00026745,-0.00015807,-0.00009054,0.000
 33559,-0.00044886,0.00101989,0.00022678,-0.00030248,0.00041650,0.02328
 863,-0.00608070,0.00276781,0.00377194,0.00326285,-0.00504308,-0.000979
 89,0.05532655,0.00145536,-0.00032905,-0.00416263,0.00086931,-0.0007332
 3,-0.00095125,0.00018910,0.00176522,-0.00044406,0.02176380,0.01763605,
 0.05469463,-0.00132783,0.00088461,-0.00180865,-0.00034849,0.00006797,0
 .00002534,0.00119735,-0.00004974,-0.00103216,-0.00032747,0.00090111,-0
 .00087281,-0.05636830,-0.05931347,-0.01086874,0.01368755,0.01105229,-0
 .01211241,0.03546469,0.03248813,0.01826951,0.00156892,0.00034400,-0.00
 164013,-0.00043827,0.00039981,0.00036903,0.00033012,0.00220047,0.00044
 534,-0.00752049,0.00618593,0.00164139,-0.00587893,-0.00230215,0.003738
 44,0.00089024,-0.00082689,-0.00020619,0.00057315,-0.00012704,0.0006752
 1,0.00046925,-0.00020009,0.00111012,0.00135969,0.00048158,0.00890887,-
 0.00149026,-0.00120133,0.00015399,0.00138348,-0.00751254,-0.01373309,0
 .19612567,-0.00284250,-0.00486198,0.00408303,-0.00005535,0.00064763,0.
 00070158,-0.00012165,0.00058612,0.00041753,0.00511255,-0.00709698,0.00
 322042,0.00145382,0.00314513,-0.00220776,0.00054484,-0.00020246,0.0000
 9331,0.00254893,-0.00048840,0.00006848,0.00038286,-0.00050398,0.000079
 50,-0.00148121,0.00024479,0.01072045,-0.00123901,-0.00119929,0.0002753
 0,-0.00889248,0.00293960,-0.01680651,0.18615552,0.20725516,0.00300382,
 0.00343142,-0.00422885,0.00011542,-0.00003870,0.00133268,-0.00024624,0
 .00062004,0.00159909,-0.01174803,-0.01047898,0.02377001,0.00378338,0.0
 0372880,-0.00492310,-0.00017375,-0.00001250,-0.00026183,0.00093184,-0.
 00075951,0.00109845,0.00006688,0.00017143,0.00126373,-0.02177551,-0.03
 611087,0.00139579,0.00272340,0.00445573,-0.00453122,-0.00772749,-0.006
 51626,-0.08152770,0.15515928,0.16173764,0.22213975,-0.00394322,-0.0033
 6038,0.00394463,0.00039478,-0.00038427,-0.00037238,0.00046556,-0.00266
 844,-0.00084843,0.00234880,-0.00650321,0.00510548,-0.00079651,-0.00238
 009,0.00103882,-0.00073934,0.00099832,0.00011553,-0.00153099,0.0011865
 8,-0.00031700,-0.00067958,0.00034078,-0.00059625,-0.01819468,-0.021369
 92,0.00517783,0.00214470,0.00180418,-0.00067748,-0.02128394,0.00250394
 ,-0.00600224,-0.18809859,-0.18100533,-0.12298722,0.22623441,-0.0025853
 5,-0.00139168,0.00181368,0.00033369,-0.00051234,-0.00044117,0.00068808
 ,-0.00194050,-0.00060111,-0.00483382,0.00176853,0.00374314,-0.00365644
 ,-0.00444542,0.00335847,-0.00079705,0.00079930,0.00009224,-0.00267190,
 0.00136317,-0.00046610,-0.00055135,0.00041684,-0.00022636,-0.02293244,
 -0.01466833,0.00517932,0.00071968,0.00113567,-0.00004624,0.00269862,-0
 .02251938,-0.00344274,-0.18154480,-0.19971572,-0.12681276,0.21166265,0
 .23809306,-0.00178687,-0.00044061,0.00312447,-0.00029097,0.00046722,0.
 00021864,-0.00013892,-0.00167320,-0.00007726,-0.00861045,-0.00744589,-
 0.05288576,-0.00014775,-0.00190341,0.00278229,0.00010238,0.00016789,0.
 00002843,-0.00153712,0.00024364,0.00042295,0.00032742,-0.00048321,0.00
 028795,0.07478811,0.07888482,-0.04292811,-0.00365694,-0.00514717,0.003
 92618,-0.00996811,-0.01384804,0.05261030,-0.15814396,-0.16277230,-0.15
 183351,0.11486303,0.11919926,0.18063042,-0.30516847,0.05826128,-0.0253
 8723,-0.00558155,0.00052184,-0.00003037,-0.01548134,0.00306031,-0.0016
 0787,-0.00447107,0.00223467,0.00055427,0.00089362,0.00086264,0.0006679
 1,-0.00022027,-0.00007785,-0.00015497,0.00018776,-0.00020771,-0.000009
 12,0.00005149,-0.00013096,0.00004836,-0.00072988,0.00045709,-0.0013533
 9,-0.00011205,-0.00000089,0.00005743,0.00005896,-0.00016103,0.00000416
 ,0.00021018,-0.00073828,0.00006430,0.00019395,0.00064787,0.00002391,0.
 33011612,0.05447653,-0.05686765,0.00371519,-0.00469952,-0.00020224,0.0
 0040822,-0.02045802,0.00472485,-0.00263651,0.03301696,-0.00712951,0.00
 449872,-0.00081335,-0.00549994,-0.00241321,0.00160507,-0.00074691,0.00
 025090,-0.00005661,0.00024183,-0.00020132,-0.00028301,0.00012142,-0.00
 006384,0.00077601,-0.00105158,0.00112581,0.00012144,0.00031478,0.00033
 364,0.00022702,-0.00010839,-0.00058257,0.00049256,0.00110171,-0.000147
 69,-0.00075803,-0.00090787,0.00009043,-0.06219598,0.06488510,-0.027662
 79,0.00274285,-0.05018203,-0.02912943,0.00678524,-0.00066683,0.0188075
 0,-0.00453982,0.00121631,0.01067041,0.00273291,0.00103656,-0.00055672,
 -0.00171212,0.00004944,0.00029129,-0.00030931,0.00058566,-0.00046659,0
 .00009399,-0.00006289,0.00023207,-0.00021989,0.00029909,0.00041023,-0.
 00236469,0.00083967,-0.00010783,0.00056304,-0.00011819,0.00010902,0.00
 016397,-0.00035721,0.00040269,0.00010684,-0.00026225,-0.00050335,-0.00
 043865,0.00017073,0.02842362,-0.00428774,0.04870236,-0.00135956,0.0018
 3607,0.00319000,-0.00020620,0.00046015,0.00016646,0.00045848,-0.001168
 82,-0.00003517,-0.02882958,0.01973284,-0.01958209,0.00202687,-0.002329
 29,-0.00636192,0.00060472,-0.00011822,0.00062766,-0.00034400,0.0001234
 4,0.00012090,-0.00215642,0.00030581,-0.00084776,-0.14841852,0.07813549
 ,-0.07061801,-0.01688181,0.01743481,-0.01165211,-0.00356583,-0.0023362
 4,0.00179601,0.00060218,0.00025599,-0.00276658,0.00358380,0.00219370,-
 0.00345363,0.00000576,-0.00127150,-0.00063746,0.53018870,0.00028547,-0
 .00128802,-0.00097457,-0.00192479,0.00100295,0.00018842,0.00021861,0.0
 0029265,0.00034944,-0.01441244,0.00836148,-0.01137073,-0.00026279,0.00
 071728,-0.00524097,-0.00037739,0.00031528,-0.00005919,0.00093751,-0.00
 031169,0.00063021,-0.00104790,0.00006633,0.00003017,0.05787487,-0.1321
 9481,0.03013682,0.01825935,-0.01641171,0.01782576,0.01262084,-0.012363
 75,0.01574720,-0.00212546,-0.00151303,0.00683910,0.00030900,0.00270610
 ,-0.00562704,-0.00205337,0.00101768,0.00056204,0.13859183,0.35530715,0
 .00124032,0.00179701,-0.00214459,-0.00048904,0.00007863,0.00000760,-0.
 00035008,-0.00034193,0.00032646,-0.01918929,0.02167953,-0.00695597,-0.
 00166139,-0.00455795,0.00297720,0.00018238,0.00043961,-0.00008128,-0.0
 0197794,0.00068536,-0.00111315,-0.00024363,0.00044678,-0.00029300,-0.0
 6417634,0.03957888,-0.09454131,0.00424663,-0.00170731,0.01121120,-0.01
 362435,0.01211209,-0.01352796,0.00195412,0.00102700,-0.00603059,0.0004
 6770,-0.00194382,0.00469918,-0.00101855,-0.00003269,-0.00141349,0.1729
 9009,-0.02469591,0.12700657,0.00005578,0.00016594,0.00129256,0.0000790
 0,0.00014239,0.00012327,-0.00009781,-0.00012157,0.00001013,-0.00351527
 ,0.00284495,-0.00166118,0.00066402,0.00005092,-0.00171110,-0.00005938,
 0.00004502,-0.00000908,0.00017202,-0.00005815,0.00014907,-0.00042676,0
 .00010920,-0.00002022,-0.02096227,-0.01378481,-0.00645015,-0.00086988,
 -0.00121385,0.00075056,0.00166424,-0.00100745,0.00168009,-0.00008634,-
 0.00007869,0.00157649,-0.00009914,0.00062886,-0.00237014,0.00004679,-0
 .00017957,-0.00028266,-0.33570860,-0.20689334,-0.07835064,0.35914359,-
 0.00004265,-0.00002425,-0.00045626,-0.00004034,0.00006776,0.00001488,0
 .00007580,0.00015458,0.00013129,0.00260696,-0.00281457,0.00044700,0.00
 020368,0.00036290,0.00080252,-0.00002525,-0.00000143,-0.00002484,0.000
 03802,-0.00005619,0.00002487,0.00026492,-0.00000665,0.00018642,0.02765
 528,0.01106910,0.00944945,0.00122007,-0.00059781,-0.00002893,0.0018144
 3,0.00120097,0.00071473,-0.00041956,-0.00033829,-0.00010691,-0.0003757
 7,-0.00018142,0.00028761,-0.00047963,0.00010670,0.00012134,-0.25184607
 ,-0.20570390,-0.04456527,0.21935012,0.19676249,-0.00015419,0.00002634,
 -0.00022979,-0.00013811,0.00004080,0.00011176,0.00002971,0.00015846,-0
 .00009298,-0.00539652,0.00100619,-0.00170039,-0.00021742,-0.00028405,-
 0.00125436,0.00012448,-0.00007059,0.00014934,0.00022725,-0.00007800,0.
 00002934,-0.00032144,-0.00003998,0.00010379,-0.01582716,-0.00868055,-0
 .00967538,0.00048487,-0.00003554,0.00079637,-0.00162183,-0.00093541,0.
 00206579,-0.00083510,-0.00074452,0.00099954,0.00159133,0.00103284,-0.0
 0117691,-0.00028247,-0.00005735,0.00016307,-0.06293641,-0.02434075,-0.
 02012687,0.08527301,0.03300211,0.02983769\\0.00000569,-0.00000100,-0.0
 0000264,0.00000788,0.00000072,-0.00000290,0.00000289,-0.00000120,-0.00
 000493,-0.00000406,-0.00000385,0.00000433,0.00000054,-0.00000014,-0.00
 000770,-0.00000254,-0.00000321,-0.00000332,-0.00000037,-0.00000468,-0.
 00000998,0.00000476,-0.00000099,-0.00000677,0.00000069,0.00001264,-0.0
 0000522,-0.00000566,0.00000157,-0.00000138,-0.00000218,-0.00001277,0.0
 0001789,0.00000873,0.00000618,0.00000593,-0.00000864,-0.00000004,0.000
 00307,0.00000411,0.00000222,0.00000173,0.00001023,0.00001143,0.0000048
 1,-0.00002206,-0.00000689,0.00000709\\\@


 DEPRESSION IS WAITING FOR YOUR SHIP TO COME IN,
 AND FINDING OUT IT'S THE TITANIC.
 Job cpu time:  0 days  1 hours  7 minutes 51.3 seconds.
 File lengths (MBytes):  RWF=    125 Int=      0 D2E=      0 Chk=      8 Scr=      1
 Normal termination of Gaussian 03 at Sun Jun  9 18:18:31 2013.
