 Entering Gaussian System, Link 0=g03
 Input=p10freq.gjf
 Output=p10freq.log
 Initial command:
 /opt/g03/l1.exe /scratch/nyee/Gau-16679.inp -scrdir=/scratch/nyee/
 Entering Link 1 = /opt/g03/l1.exe PID=     16681.
  
 Copyright (c) 1988,1990,1992,1993,1995,1998,2003,2004, Gaussian, Inc.
                  All Rights Reserved.
  
 This is the Gaussian(R) 03 program.  It is based on the
 the Gaussian(R) 98 system (copyright 1998, Gaussian, Inc.),
 the Gaussian(R) 94 system (copyright 1995, Gaussian, Inc.),
 the Gaussian 92(TM) system (copyright 1992, Gaussian, Inc.),
 the Gaussian 90(TM) system (copyright 1990, Gaussian, Inc.),
 the Gaussian 88(TM) system (copyright 1988, Gaussian, Inc.),
 the Gaussian 86(TM) system (copyright 1986, Carnegie Mellon
 University), and the Gaussian 82(TM) system (copyright 1983,
 Carnegie Mellon University). Gaussian is a federally registered
 trademark of Gaussian, Inc.
  
 This software contains proprietary and confidential information,
 including trade secrets, belonging to Gaussian, Inc.
  
 This software is provided under written license and may be
 used, copied, transmitted, or stored only in accord with that
 written license.
  
 The following legend is applicable only to US Government
 contracts under FAR:
  
                    RESTRICTED RIGHTS LEGEND
  
 Use, reproduction and disclosure by the US Government is
 subject to restrictions as set forth in subparagraphs (a)
 and (c) of the Commercial Computer Software - Restricted
 Rights clause in FAR 52.227-19.
  
 Gaussian, Inc.
 340 Quinnipiac St., Bldg. 40, Wallingford CT 06492
  
  
 ---------------------------------------------------------------
 Warning -- This program may not be used in any manner that
 competes with the business of Gaussian, Inc. or will provide
 assistance to any competitor of Gaussian, Inc.  The licensee
 of this program is prohibited from giving any competitor of
 Gaussian, Inc. access to this program.  By using this program,
 the user acknowledges that Gaussian, Inc. is engaged in the
 business of creating and licensing software in the field of
 computational chemistry and represents and warrants to the
 licensee that it is not a competitor of Gaussian, Inc. and that
 it will not use this program in any manner prohibited above.
 ---------------------------------------------------------------
  

 Cite this work as:
 Gaussian 03, Revision D.01,
 M. J. Frisch, G. W. Trucks, H. B. Schlegel, G. E. Scuseria, 
 M. A. Robb, J. R. Cheeseman, J. A. Montgomery, Jr., T. Vreven, 
 K. N. Kudin, J. C. Burant, J. M. Millam, S. S. Iyengar, J. Tomasi, 
 V. Barone, B. Mennucci, M. Cossi, G. Scalmani, N. Rega, 
 G. A. Petersson, H. Nakatsuji, M. Hada, M. Ehara, K. Toyota, 
 R. Fukuda, J. Hasegawa, M. Ishida, T. Nakajima, Y. Honda, O. Kitao, 
 H. Nakai, M. Klene, X. Li, J. E. Knox, H. P. Hratchian, J. B. Cross, 
 V. Bakken, C. Adamo, J. Jaramillo, R. Gomperts, R. E. Stratmann, 
 O. Yazyev, A. J. Austin, R. Cammi, C. Pomelli, J. W. Ochterski, 
 P. Y. Ayala, K. Morokuma, G. A. Voth, P. Salvador, J. J. Dannenberg, 
 V. G. Zakrzewski, S. Dapprich, A. D. Daniels, M. C. Strain, 
 O. Farkas, D. K. Malick, A. D. Rabuck, K. Raghavachari, 
 J. B. Foresman, J. V. Ortiz, Q. Cui, A. G. Baboul, S. Clifford, 
 J. Cioslowski, B. B. Stefanov, G. Liu, A. Liashenko, P. Piskorz, 
 I. Komaromi, R. L. Martin, D. J. Fox, T. Keith, M. A. Al-Laham, 
 C. Y. Peng, A. Nanayakkara, M. Challacombe, P. M. W. Gill, 
 B. Johnson, W. Chen, M. W. Wong, C. Gonzalez, and J. A. Pople, 
 Gaussian, Inc., Wallingford CT, 2004.
 
 ******************************************
 Gaussian 03:  AM64L-G03RevD.01 13-Oct-2005
                15-Jul-2014 
 ******************************************
 %chk=p10freq.chk
 %mem=1000mb
 %nproc=8
 Will use up to    8 processors via shared memory.
 -------------------------------------
 # freq nosymm b3lyp/cbsb7 iop(7/33=1)
 -------------------------------------
 1/10=4,30=1,38=1/1,3;
 2/15=1,17=6,18=5,40=1/2;
 3/5=4,6=6,7=700,11=2,16=1,25=1,30=1,74=-5/1,2,3;
 4//1;
 5/5=2,38=5/2;
 8/6=4,10=90,11=11/1;
 11/6=1,8=1,9=11,15=111,16=1,31=1/1,2,10;
 10/6=1,31=1/2;
 6/7=2,8=2,9=2,10=2,18=1,28=1/1;
 7/8=1,10=1,25=1,30=1,33=1/1,2,3,16;
 1/10=4,30=1/3;
 99//99;
 -------------------
 Title Card Required
 -------------------
 Symbolic Z-matrix:
 Charge =  0 Multiplicity = 2
 O                     2.43683  -0.58094   0.21929 
 H                     2.81112  -0.17755   1.01354 
 O                     1.01019  -0.56394   0.59879 
 C                     0.3169    0.07155  -0.49109 
 H                     0.55731  -0.50469  -1.39575 
 O                     0.71155   1.40631  -0.63391 
 H                     1.64991   1.38511  -0.85368 
 C                    -1.1295   -0.03238  -0.14168 
 C                    -1.77593   1.03237   0.67815 
 H                    -1.78644   0.76194   1.74611 
 H                    -1.24884   1.98106   0.58199 
 H                    -2.82185   1.17373   0.38359 
 C                    -1.81495  -1.34201  -0.3435 
 H                    -1.33332  -1.94185  -1.12021 
 H                    -1.80918  -1.94577   0.57714 
 H                    -2.8665   -1.20055  -0.6174 
 

 GradGradGradGradGradGradGradGradGradGradGradGradGradGradGradGradGradGrad
 Berny optimization.
 Initialization pass.
 Trust Radius=3.00D-01 FncErr=1.00D-07 GrdErr=1.00D-07
 Number of steps in this run=   2 maximum allowed number of steps=   2.
 GradGradGradGradGradGradGradGradGradGradGradGradGradGradGradGradGradGrad

                          Input orientation:                          
 ---------------------------------------------------------------------
 Center     Atomic     Atomic              Coordinates (Angstroms)
 Number     Number      Type              X           Y           Z
 ---------------------------------------------------------------------
    1          8             0        2.436834   -0.580940    0.219287
    2          1             0        2.811124   -0.177552    1.013542
    3          8             0        1.010192   -0.563940    0.598790
    4          6             0        0.316901    0.071546   -0.491089
    5          1             0        0.557312   -0.504691   -1.395749
    6          8             0        0.711551    1.406310   -0.633907
    7          1             0        1.649912    1.385108   -0.853684
    8          6             0       -1.129495   -0.032383   -0.141679
    9          6             0       -1.775928    1.032367    0.678151
   10          1             0       -1.786443    0.761937    1.746114
   11          1             0       -1.248839    1.981063    0.581992
   12          1             0       -2.821852    1.173726    0.383590
   13          6             0       -1.814949   -1.342005   -0.343501
   14          1             0       -1.333323   -1.941850   -1.120205
   15          1             0       -1.809178   -1.945765    0.577142
   16          1             0       -2.866503   -1.200549   -0.617397
 ---------------------------------------------------------------------
                    Distance matrix (angstroms):
                    1          2          3          4          5
     1  O    0.000000
     2  H    0.966259   0.000000
     3  O    1.476353   1.888034   0.000000
     4  C    2.329053   2.923545   1.439559   0.000000
     5  H    2.479266   3.315324   2.046166   1.099207   0.000000
     6  O    2.766533   3.103371   2.343206   1.399193   2.063036
     7  H    2.373996   2.697564   2.513506   1.906263   2.249211
     8  C    3.626281   4.109025   2.325749   1.491627   2.154318
     9  C    4.534389   4.755779   3.212002   2.582679   3.479600
    10  H    4.687279   4.749413   3.300829   3.147344   4.119325
    11  H    4.503288   4.618350   3.403020   2.692452   3.654123
    12  H    5.546136   5.826938   4.213117   3.439714   4.171556
    13  C    4.355871   4.959644   3.078103   2.562166   2.726893
    14  H    4.226156   4.984181   3.216464   2.678206   2.390785
    15  H    4.474307   4.966308   3.139866   3.119435   3.401363
    16  H    5.404566   5.995159   4.112560   3.430487   3.579464
                    6          7          8          9         10
     6  O    0.000000
     7  H    0.963988   0.000000
     8  C    2.387797   3.200209   0.000000
     9  C    2.837055   3.769260   1.491204   0.000000
    10  H    3.509942   4.353829   2.150881   1.101720   0.000000
    11  H    2.377368   3.289238   2.142874   1.089538   1.769312
    12  H    3.684336   4.644589   2.143520   1.095767   1.760146
    13  C    3.744432   4.438772   1.491874   2.585138   2.965447
    14  H    3.953248   4.476536   2.155255   3.503705   3.966304
    15  H    4.365446   5.010717   2.153997   2.980030   2.949350
    16  H    4.427014   5.209555   2.146652   2.802448   3.256388
                   11         12         13         14         15
    11  H    0.000000
    12  H    1.779193   0.000000
    13  C    3.495683   2.805605   0.000000
    14  H    4.277132   3.766156   1.093182   0.000000
    15  H    3.966608   3.285452   1.100974   1.762793   0.000000
    16  H    3.765372   2.577043   1.095808   1.775664   1.760740
                   16
    16  H    0.000000
 Symmetry turned off by external request.
 Stoichiometry    C4H9O3(2)
 Framework group  C1[X(C4H9O3)]
 Deg. of freedom    42
 Full point group                 C1
 Rotational constants (GHZ):      4.0118292      1.7909726      1.4684930
 Standard basis: CBSB7 (5D, 7F)
 Integral buffers will be    131072 words long.
 Raffenetti 2 integral format.
 Two-electron integral symmetry is turned off.
   180 basis functions,   296 primitive gaussians,   187 cartesian basis functions
    29 alpha electrons       28 beta electrons
       nuclear repulsion energy       328.6528860827 Hartrees.
 NAtoms=   16 NActive=   16 NUniq=   16 SFac= 7.50D-01 NAtFMM=   80 NAOKFM=F Big=F
 One-electron integrals computed using PRISM.
 NBasis=   180 RedAO= T  NBF=   180
 NBsUse=   180 1.00D-06 NBFU=   180
 Harris functional with IExCor=  402 diagonalized for initial guess.
 ExpMin= 1.03D-01 ExpMax= 8.59D+03 ExpMxC= 1.30D+03 IAcc=1 IRadAn=         1 AccDes= 1.00D-06
 HarFok:  IExCor= 402 AccDes= 1.00D-06 IRadAn=         1 IDoV=1
 ScaDFX=  1.000000  1.000000  1.000000  1.000000
 <S**2> of initial guess= 0.7500
 Requested convergence on RMS density matrix=1.00D-08 within 128 cycles.
 Requested convergence on MAX density matrix=1.00D-06.
 Requested convergence on             energy=1.00D-06.
 No special actions if energy rises.
 Integral accuracy reduced to 1.0D-05 until final iterations.
 Initial convergence to 1.0D-05 achieved.  Increase integral accuracy.
 SCF Done:  E(UB+HF-LYP) =  -383.479078189     A.U. after   17 cycles
             Convg  =    0.5158D-08             -V/T =  2.0032
             S**2   =   0.7541
 Annihilation of the first spin contaminant:
 S**2 before annihilation     0.7541,   after     0.7500
 Range of M.O.s used for correlation:     1   180
 NBasis=   180 NAE=    29 NBE=    28 NFC=     0 NFV=     0
 NROrb=    180 NOA=    29 NOB=    28 NVA=   151 NVB=   152
 Symmetrizing basis deriv contribution to polar:
 IMax=3 JMax=2 DiffMx= 0.00D+00
 G2DrvN: will do   17 centers at a time, making    1 passes doing MaxLOS=2.
 FoFDir/FoFCou used for L=0 through L=2.
 DoAtom=TTTTTTTTTTTTTTTT
          Differentiating once with respect to electric field.
                with respect to dipole field.
          Differentiating once with respect to nuclear coordinates.
 Symmetry not used in FoFDir.
 MinBra= 0 MaxBra= 2 Meth= 1.
 IRaf=       0 NMat=  51 IRICut=      51 DoRegI=T DoRafI=T ISym2E= 0 JSym2E=0.
          There are  51 degrees of freedom in the 1st order CPHF.
    48 vectors were produced by pass  0.
 AX will form  48 AO Fock derivatives at one time.
    48 vectors were produced by pass  1.
    48 vectors were produced by pass  2.
    48 vectors were produced by pass  3.
    48 vectors were produced by pass  4.
    48 vectors were produced by pass  5.
    32 vectors were produced by pass  6.
     4 vectors were produced by pass  7.
     3 vectors were produced by pass  8.
 Inv2:  IOpt= 1 Iter= 1 AM= 4.10D-15 Conv= 1.00D-12.
 Inverted reduced A of dimension  327 with in-core refinement.
 Isotropic polarizability for W=    0.000000       61.37 Bohr**3.
 End of Minotr Frequency-dependent properties file   721 does not exist.

 **********************************************************************

            Population analysis using the SCF density.

 **********************************************************************

 Alpha  occ. eigenvalues --  -19.17512 -19.17301 -19.12486 -10.27220 -10.19175
 Alpha  occ. eigenvalues --  -10.16912 -10.16224  -1.12151  -1.03691  -0.91731
 Alpha  occ. eigenvalues --   -0.80353  -0.70043  -0.67355  -0.55632  -0.53958
 Alpha  occ. eigenvalues --   -0.53056  -0.47939  -0.46334  -0.43444  -0.42369
 Alpha  occ. eigenvalues --   -0.40729  -0.39293  -0.37714  -0.36027  -0.35593
 Alpha  occ. eigenvalues --   -0.33605  -0.29653  -0.27100  -0.19789
 Alpha virt. eigenvalues --    0.00242   0.03524   0.05566   0.07383   0.08013
 Alpha virt. eigenvalues --    0.10493   0.10809   0.12228   0.13960   0.15927
 Alpha virt. eigenvalues --    0.18181   0.19997   0.22512   0.26294   0.27460
 Alpha virt. eigenvalues --    0.28947   0.31847   0.32757   0.36633   0.38845
 Alpha virt. eigenvalues --    0.39598   0.40788   0.44656   0.47356   0.49767
 Alpha virt. eigenvalues --    0.50897   0.53357   0.55275   0.56733   0.57806
 Alpha virt. eigenvalues --    0.58853   0.60064   0.60785   0.64717   0.65613
 Alpha virt. eigenvalues --    0.66298   0.67333   0.71493   0.76989   0.79962
 Alpha virt. eigenvalues --    0.83784   0.85495   0.88336   0.88646   0.93800
 Alpha virt. eigenvalues --    0.94164   0.95669   0.98869   1.00542   1.07015
 Alpha virt. eigenvalues --    1.16451   1.18689   1.24591   1.31798   1.32147
 Alpha virt. eigenvalues --    1.34249   1.36530   1.37779   1.41920   1.42713
 Alpha virt. eigenvalues --    1.43856   1.45707   1.46750   1.47831   1.49757
 Alpha virt. eigenvalues --    1.51986   1.54010   1.57129   1.58378   1.60430
 Alpha virt. eigenvalues --    1.62674   1.63157   1.67132   1.70294   1.72320
 Alpha virt. eigenvalues --    1.77123   1.77573   1.82983   1.86644   1.91692
 Alpha virt. eigenvalues --    1.93054   1.94561   1.95110   2.02451   2.03698
 Alpha virt. eigenvalues --    2.07772   2.09264   2.10975   2.26345   2.28329
 Alpha virt. eigenvalues --    2.30023   2.33160   2.35350   2.39499   2.43621
 Alpha virt. eigenvalues --    2.44462   2.46880   2.48838   2.49362   2.52155
 Alpha virt. eigenvalues --    2.52858   2.53531   2.55890   2.58902   2.63947
 Alpha virt. eigenvalues --    2.66501   2.68019   2.72015   2.72629   2.82452
 Alpha virt. eigenvalues --    2.84579   2.90789   2.91401   2.95531   3.04819
 Alpha virt. eigenvalues --    3.08663   3.11709   3.14017   3.17617   3.19708
 Alpha virt. eigenvalues --    3.23400   3.33496   3.37449   3.52010   3.63939
 Alpha virt. eigenvalues --    3.73642   3.74695   3.79091   3.81342   3.82676
 Alpha virt. eigenvalues --    3.85285   3.89425   3.96126   4.25668   4.27287
 Alpha virt. eigenvalues --    4.69493   4.77442   4.86774   4.92089   5.16495
 Alpha virt. eigenvalues --    5.30806   5.39954   5.55969   5.68933  23.63862
 Alpha virt. eigenvalues --   23.77397  23.91730  23.95073  49.76893  49.82965
 Alpha virt. eigenvalues --   49.91408
  Beta  occ. eigenvalues --  -19.17381 -19.17188 -19.12463 -10.27296 -10.17815
  Beta  occ. eigenvalues --  -10.16993 -10.16300  -1.11849  -1.03596  -0.91338
  Beta  occ. eigenvalues --   -0.78625  -0.69800  -0.67004  -0.54932  -0.53587
  Beta  occ. eigenvalues --   -0.52121  -0.47567  -0.45967  -0.42189  -0.41935
  Beta  occ. eigenvalues --   -0.40241  -0.38664  -0.37484  -0.35657  -0.35152
  Beta  occ. eigenvalues --   -0.33472  -0.29440  -0.26944
  Beta virt. eigenvalues --   -0.06709   0.01284   0.03653   0.05763   0.07495
  Beta virt. eigenvalues --    0.08079   0.10645   0.11104   0.12430   0.14241
  Beta virt. eigenvalues --    0.15988   0.19352   0.20791   0.22804   0.26740
  Beta virt. eigenvalues --    0.27767   0.29597   0.32273   0.33715   0.36859
  Beta virt. eigenvalues --    0.39008   0.39831   0.41612   0.45303   0.48356
  Beta virt. eigenvalues --    0.50137   0.52572   0.53664   0.56537   0.57902
  Beta virt. eigenvalues --    0.58310   0.59253   0.60174   0.60968   0.64865
  Beta virt. eigenvalues --    0.66135   0.66746   0.68003   0.71768   0.77579
  Beta virt. eigenvalues --    0.81012   0.84080   0.85811   0.88595   0.88813
  Beta virt. eigenvalues --    0.93945   0.94431   0.96012   0.99414   1.01239
  Beta virt. eigenvalues --    1.07291   1.17233   1.18718   1.24874   1.32179
  Beta virt. eigenvalues --    1.32547   1.34686   1.36806   1.39173   1.42328
  Beta virt. eigenvalues --    1.42982   1.44069   1.46040   1.47289   1.48264
  Beta virt. eigenvalues --    1.50420   1.52685   1.54696   1.58200   1.58772
  Beta virt. eigenvalues --    1.60917   1.63026   1.64426   1.67354   1.70980
  Beta virt. eigenvalues --    1.72730   1.77614   1.77954   1.84817   1.87162
  Beta virt. eigenvalues --    1.92873   1.93513   1.94920   1.96035   2.03089
  Beta virt. eigenvalues --    2.04449   2.08346   2.09673   2.11421   2.26903
  Beta virt. eigenvalues --    2.29581   2.31147   2.33499   2.35680   2.39680
  Beta virt. eigenvalues --    2.44100   2.44940   2.47094   2.49344   2.49777
  Beta virt. eigenvalues --    2.52433   2.53165   2.54032   2.56286   2.59177
  Beta virt. eigenvalues --    2.64349   2.67129   2.68477   2.72273   2.72962
  Beta virt. eigenvalues --    2.82933   2.86094   2.91111   2.94182   2.96701
  Beta virt. eigenvalues --    3.05151   3.09102   3.11816   3.14370   3.17887
  Beta virt. eigenvalues --    3.20107   3.23760   3.33868   3.37578   3.52265
  Beta virt. eigenvalues --    3.64114   3.73971   3.74918   3.79194   3.81821
  Beta virt. eigenvalues --    3.82844   3.85429   3.89597   3.96262   4.26894
  Beta virt. eigenvalues --    4.28608   4.69705   4.77596   4.86855   4.92198
  Beta virt. eigenvalues --    5.16764   5.30865   5.40077   5.56119   5.69025
  Beta virt. eigenvalues --   23.64042  23.78680  23.91668  23.94996  49.77007
  Beta virt. eigenvalues --   49.83098  49.91445
          Condensed to atoms (all electrons):
              1          2          3          4          5          6
     1  O    7.971238   0.285716   0.055012  -0.054802   0.002422  -0.001934
     2  H    0.285716   0.463733  -0.020773   0.001604   0.000363   0.003750
     3  O    0.055012  -0.020773   8.179386   0.195844  -0.055832  -0.054947
     4  C   -0.054802   0.001604   0.195844   4.665447   0.410456   0.298667
     5  H    0.002422   0.000363  -0.055832   0.410456   0.635361  -0.043290
     6  O   -0.001934   0.003750  -0.054947   0.298667  -0.043290   7.896211
     7  H    0.023346  -0.000727  -0.002332  -0.044771  -0.007471   0.313436
     8  C    0.009560  -0.001965  -0.061353   0.343730  -0.054089  -0.042039
     9  C   -0.000230   0.000168   0.003037  -0.042218   0.009755  -0.013131
    10  H   -0.000115   0.000055   0.002393  -0.000792  -0.000274  -0.000274
    11  H   -0.000054   0.000016   0.000566  -0.011716   0.001745   0.022521
    12  H    0.000012  -0.000007  -0.000131   0.006850  -0.000027  -0.000200
    13  C   -0.000227   0.000014   0.013446  -0.058310  -0.013160   0.004360
    14  H   -0.000070   0.000014  -0.000674  -0.005928   0.006219   0.000026
    15  H   -0.000198   0.000060   0.003170  -0.001916  -0.000445  -0.000066
    16  H    0.000014  -0.000004   0.000043   0.006394  -0.000139  -0.000027
              7          8          9         10         11         12
     1  O    0.023346   0.009560  -0.000230  -0.000115  -0.000054   0.000012
     2  H   -0.000727  -0.001965   0.000168   0.000055   0.000016  -0.000007
     3  O   -0.002332  -0.061353   0.003037   0.002393   0.000566  -0.000131
     4  C   -0.044771   0.343730  -0.042218  -0.000792  -0.011716   0.006850
     5  H   -0.007471  -0.054089   0.009755  -0.000274   0.001745  -0.000027
     6  O    0.313436  -0.042039  -0.013131  -0.000274   0.022521  -0.000200
     7  H    0.471300   0.011527   0.000109   0.000098  -0.001453   0.000024
     8  C    0.011527   5.555204   0.317697  -0.047725  -0.037244  -0.044595
     9  C    0.000109   0.317697   4.842932   0.393473   0.405485   0.405608
    10  H    0.000098  -0.047725   0.393473   0.600728  -0.026775  -0.038266
    11  H   -0.001453  -0.037244   0.405485  -0.026775   0.531652  -0.023645
    12  H    0.000024  -0.044595   0.405608  -0.038266  -0.023645   0.587257
    13  C   -0.000647   0.342710  -0.060132  -0.001065   0.006486  -0.006969
    14  H   -0.000096  -0.033317   0.007238  -0.000413  -0.000301   0.000142
    15  H    0.000057  -0.042484  -0.000520   0.004945  -0.000407  -0.001351
    16  H    0.000033  -0.044205  -0.007889  -0.001512   0.000029   0.004938
             13         14         15         16
     1  O   -0.000227  -0.000070  -0.000198   0.000014
     2  H    0.000014   0.000014   0.000060  -0.000004
     3  O    0.013446  -0.000674   0.003170   0.000043
     4  C   -0.058310  -0.005928  -0.001916   0.006394
     5  H   -0.013160   0.006219  -0.000445  -0.000139
     6  O    0.004360   0.000026  -0.000066  -0.000027
     7  H   -0.000647  -0.000096   0.000057   0.000033
     8  C    0.342710  -0.033317  -0.042484  -0.044205
     9  C   -0.060132   0.007238  -0.000520  -0.007889
    10  H   -0.001065  -0.000413   0.004945  -0.001512
    11  H    0.006486  -0.000301  -0.000407   0.000029
    12  H   -0.006969   0.000142  -0.001351   0.004938
    13  C    4.824179   0.399936   0.391185   0.406536
    14  H    0.399936   0.574302  -0.029406  -0.025904
    15  H    0.391185  -0.029406   0.590142  -0.036599
    16  H    0.406536  -0.025904  -0.036599   0.583998
 Mulliken atomic charges:
              1
     1  O   -0.289691
     2  H    0.267981
     3  O   -0.256855
     4  C    0.291459
     5  H    0.108407
     6  O   -0.383065
     7  H    0.237566
     8  C   -0.171412
     9  C   -0.261384
    10  H    0.115520
    11  H    0.133095
    12  H    0.110360
    13  C   -0.248342
    14  H    0.108233
    15  H    0.123834
    16  H    0.114294
 Sum of Mulliken charges=   0.00000
 Atomic charges with hydrogens summed into heavy atoms:
              1
     1  O   -0.021710
     2  H    0.000000
     3  O   -0.256855
     4  C    0.399866
     5  H    0.000000
     6  O   -0.145499
     7  H    0.000000
     8  C   -0.171412
     9  C    0.097591
    10  H    0.000000
    11  H    0.000000
    12  H    0.000000
    13  C    0.098019
    14  H    0.000000
    15  H    0.000000
    16  H    0.000000
 Sum of Mulliken charges=   0.00000
          Atomic-Atomic Spin Densities.
              1          2          3          4          5          6
     1  O    0.052658  -0.001317  -0.021818   0.004013   0.002149  -0.000011
     2  H   -0.001317   0.000652   0.001997  -0.000537  -0.000331   0.000018
     3  O   -0.021818   0.001997   0.083002  -0.017884  -0.008273  -0.000632
     4  C    0.004013  -0.000537  -0.017884  -0.037763   0.007909   0.002242
     5  H    0.002149  -0.000331  -0.008273   0.007909   0.016509   0.002110
     6  O   -0.000011   0.000018  -0.000632   0.002242   0.002110   0.009979
     7  H   -0.000850   0.000264   0.001067   0.000039  -0.000589  -0.000077
     8  C    0.002394  -0.000462  -0.021700   0.009942  -0.010060  -0.009832
     9  C   -0.000009   0.000006   0.000006  -0.000814   0.000207   0.001136
    10  H   -0.000121   0.000071   0.001008  -0.001066  -0.000425  -0.000218
    11  H    0.000046  -0.000025  -0.000372   0.000930   0.000221   0.000175
    12  H    0.000008  -0.000005  -0.000152   0.000138   0.000229   0.000172
    13  C   -0.000029   0.000007   0.000077  -0.000043   0.001205   0.000078
    14  H    0.000075  -0.000013  -0.000689   0.001687   0.001385   0.000064
    15  H   -0.000179   0.000048   0.001736  -0.002183  -0.001371  -0.000070
    16  H    0.000011  -0.000003  -0.000224   0.000513   0.000619   0.000049
              7          8          9         10         11         12
     1  O   -0.000850   0.002394  -0.000009  -0.000121   0.000046   0.000008
     2  H    0.000264  -0.000462   0.000006   0.000071  -0.000025  -0.000005
     3  O    0.001067  -0.021700   0.000006   0.001008  -0.000372  -0.000152
     4  C    0.000039   0.009942  -0.000814  -0.001066   0.000930   0.000138
     5  H   -0.000589  -0.010060   0.000207  -0.000425   0.000221   0.000229
     6  O   -0.000077  -0.009832   0.001136  -0.000218   0.000175   0.000172
     7  H   -0.000284   0.000729  -0.000108   0.000083  -0.000065  -0.000030
     8  C    0.000729   1.132567  -0.039146  -0.031462  -0.004143  -0.015172
     9  C   -0.000108  -0.039146  -0.061381   0.012261   0.004743   0.008478
    10  H    0.000083  -0.031462   0.012261   0.099358  -0.007672  -0.017184
    11  H   -0.000065  -0.004143   0.004743  -0.007672   0.007944   0.003946
    12  H   -0.000030  -0.015172   0.008478  -0.017184   0.003946   0.038900
    13  C   -0.000009  -0.033976   0.003128   0.000134  -0.000020   0.001385
    14  H   -0.000012  -0.005553   0.000011  -0.000380   0.000057   0.000327
    15  H    0.000024  -0.029675   0.000332   0.006471  -0.000346  -0.002448
    16  H   -0.000010  -0.016226   0.001311  -0.002605   0.000306   0.003830
             13         14         15         16
     1  O   -0.000029   0.000075  -0.000179   0.000011
     2  H    0.000007  -0.000013   0.000048  -0.000003
     3  O    0.000077  -0.000689   0.001736  -0.000224
     4  C   -0.000043   0.001687  -0.002183   0.000513
     5  H    0.001205   0.001385  -0.001371   0.000619
     6  O    0.000078   0.000064  -0.000070   0.000049
     7  H   -0.000009  -0.000012   0.000024  -0.000010
     8  C   -0.033976  -0.005553  -0.029675  -0.016226
     9  C    0.003128   0.000011   0.000332   0.001311
    10  H    0.000134  -0.000380   0.006471  -0.002605
    11  H   -0.000020   0.000057  -0.000346   0.000306
    12  H    0.001385   0.000327  -0.002448   0.003830
    13  C   -0.066224   0.003989   0.011865   0.008281
    14  H    0.003989   0.009816  -0.008465   0.004488
    15  H    0.011865  -0.008465   0.098579  -0.017588
    16  H    0.008281   0.004488  -0.017588   0.040591
 Mulliken atomic spin densities:
              1
     1  O    0.037020
     2  H    0.000370
     3  O    0.017147
     4  C   -0.032878
     5  H    0.011495
     6  O    0.005184
     7  H    0.000169
     8  C    0.928225
     9  C   -0.069838
    10  H    0.058252
    11  H    0.005723
    12  H    0.022421
    13  C   -0.070150
    14  H    0.006786
    15  H    0.056728
    16  H    0.023345
 Sum of Mulliken spin densities=   1.00000
 APT atomic charges:
              1
     1  O   -0.492422
     2  H    0.253042
     3  O   -0.202099
     4  C    0.881740
     5  H   -0.084542
     6  O   -0.647143
     7  H    0.273463
     8  C   -0.008434
     9  C    0.024349
    10  H   -0.021290
    11  H    0.031935
    12  H   -0.019392
    13  C    0.055523
    14  H   -0.008761
    15  H   -0.018271
    16  H   -0.017699
 Sum of APT charges=   0.00000
 APT Atomic charges with hydrogens summed into heavy atoms:
              1
     1  O   -0.239379
     2  H    0.000000
     3  O   -0.202099
     4  C    0.797198
     5  H    0.000000
     6  O   -0.373680
     7  H    0.000000
     8  C   -0.008434
     9  C    0.015601
    10  H    0.000000
    11  H    0.000000
    12  H    0.000000
    13  C    0.010792
    14  H    0.000000
    15  H    0.000000
    16  H    0.000000
 Sum of APT charges=   0.00000
 Electronic spatial extent (au):  <R**2>=   876.4533
 Charge=     0.0000 electrons
 Dipole moment (field-independent basis, Debye):
    X=     0.3274    Y=     0.2604    Z=     0.2240  Tot=     0.4745
 Quadrupole moment (field-independent basis, Debye-Ang):
   XX=   -36.3546   YY=   -45.8360   ZZ=   -41.4969
   XY=     4.2461   XZ=     1.4192   YZ=     1.3054
 Traceless Quadrupole moment (field-independent basis, Debye-Ang):
   XX=     4.8746   YY=    -4.6068   ZZ=    -0.2678
   XY=     4.2461   XZ=     1.4192   YZ=     1.3054
 Octapole moment (field-independent basis, Debye-Ang**2):
  XXX=    34.3141  YYY=    -0.0645  ZZZ=     2.6780  XYY=     5.1162
  XXY=    10.9569  XXZ=     9.2484  XZZ=    13.4109  YZZ=    -0.5940
  YYZ=     0.2081  XYZ=    -1.6908
 Hexadecapole moment (field-independent basis, Debye-Ang**3):
 XXXX=  -611.2026 YYYY=  -299.2060 ZZZZ=  -129.4765 XXXY=    20.1797
 XXXZ=    38.5419 YYYX=     3.6249 YYYZ=    -3.8902 ZZZX=     6.1221
 ZZZY=    -5.3337 XXYY=  -162.6064 XXZZ=  -119.2560 YYZZ=   -71.0555
 XXYZ=    -7.5644 YYXZ=    -2.7786 ZZXY=     1.5843
 N-N= 3.286528860827D+02 E-N=-1.557368591557D+03  KE= 3.822428428979D+02
  Exact polarizability:  78.229   0.634  56.063  -0.971   2.749  49.815
 Approx polarizability: 101.570  -0.985  74.333  -1.870   1.133  70.971
                          Isotropic Fermi Contact Couplings
        Atom                 a.u.       MegaHertz       Gauss      10(-4) cm-1
     1  O(17)              0.01475      -8.94377      -3.19136      -2.98332
     2  H(1)              -0.00038      -1.70376      -0.60794      -0.56831
     3  O(17)              0.14470     -87.71925     -31.30041     -29.25999
     4  C(13)             -0.02239     -25.16749      -8.98038      -8.39497
     5  H(1)               0.00594      26.56855       9.48032       8.86232
     6  O(17)              0.00782      -4.74208      -1.69209      -1.58179
     7  H(1)               0.00022       0.99103       0.35363       0.33057
     8  C(13)              0.08141      91.51952      32.65644      30.52763
     9  C(13)             -0.02621     -29.47015     -10.51568      -9.83019
    10  H(1)               0.02744     122.64629      43.76324      40.91040
    11  H(1)               0.00299      13.37952       4.77415       4.46293
    12  H(1)               0.01119      50.03910      17.85520      16.69125
    13  C(13)             -0.02800     -31.47414     -11.23076     -10.49864
    14  H(1)               0.00296      13.24899       4.72757       4.41939
    15  H(1)               0.02672     119.41860      42.61152      39.83376
    16  H(1)               0.01147      51.27943      18.29778      17.10498
 --------------------------------------------------------
       Center         ----  Spin Dipole Couplings  ----
                      3XX-RR        3YY-RR        3ZZ-RR
 --------------------------------------------------------
     1   Atom        0.154540     -0.073440     -0.081100
     2   Atom        0.003467     -0.005253      0.001787
     3   Atom       -0.105441     -0.037578      0.143018
     4   Atom        0.011916     -0.002845     -0.009071
     5   Atom        0.009984     -0.009304     -0.000680
     6   Atom        0.011925     -0.007694     -0.004230
     7   Atom        0.005110     -0.001784     -0.003326
     8   Atom       -0.405299     -0.311667      0.716967
     9   Atom       -0.009837     -0.001046      0.010882
    10   Atom       -0.005827     -0.002335      0.008161
    11   Atom       -0.008339      0.012023     -0.003683
    12   Atom        0.006463     -0.000889     -0.005573
    13   Atom       -0.007834      0.014453     -0.006619
    14   Atom       -0.007796      0.012146     -0.004350
    15   Atom       -0.005501      0.009474     -0.003974
    16   Atom        0.006902      0.000516     -0.007418
 --------------------------------------------------------
                        XY            XZ            YZ
 --------------------------------------------------------
     1   Atom       -0.062918     -0.028499      0.011842
     2   Atom        0.000830      0.004312      0.004385
     3   Atom       -0.008374      0.028046     -0.048352
     4   Atom        0.003928     -0.006466     -0.008200
     5   Atom       -0.005840     -0.010740      0.001506
     6   Atom        0.023179      0.021403      0.010407
     7   Atom        0.003612     -0.002253     -0.001103
     8   Atom       -0.185684      0.428641     -0.550231
     9   Atom       -0.009887     -0.005512      0.009292
    10   Atom       -0.004131     -0.006231      0.006479
    11   Atom       -0.001775     -0.000039      0.008907
    12   Atom       -0.009940     -0.006606      0.004385
    13   Atom        0.010524      0.004108     -0.004648
    14   Atom        0.002401      0.001746      0.007966
    15   Atom        0.007643     -0.001484     -0.004880
    16   Atom        0.011531      0.002462      0.002249
 --------------------------------------------------------


 ---------------------------------------------------------------------------------
              Anisotropic Spin Dipole Couplings in Principal Axis System
 ---------------------------------------------------------------------------------

       Atom             a.u.   MegaHertz   Gauss  10(-4) cm-1        Axes

              Baa    -0.0922     6.670     2.380     2.225  0.1593  0.8511 -0.5003
     1 O(17)  Bbb    -0.0822     5.950     2.123     1.985  0.2260  0.4619  0.8577
              Bcc     0.1744   -12.620    -4.503    -4.210  0.9610 -0.2496 -0.1188
 
              Baa    -0.0075    -3.996    -1.426    -1.333  0.1181  0.8754 -0.4688
     2 H(1)   Bbb    -0.0005    -0.256    -0.091    -0.085  0.7123 -0.4036 -0.5742
              Bcc     0.0080     4.252     1.517     1.418  0.6919  0.2661  0.6712
 
              Baa    -0.1087     7.866     2.807     2.624  0.9937  0.0480 -0.1015
     3 O(17)  Bbb    -0.0497     3.595     1.283     1.199 -0.0217  0.9690  0.2463
              Bcc     0.1584   -11.461    -4.090    -3.823  0.1102 -0.2425  0.9639
 
              Baa    -0.0151    -2.029    -0.724    -0.677  0.1257  0.5229  0.8431
     4 C(13)  Bbb    -0.0008    -0.102    -0.036    -0.034 -0.4569  0.7848 -0.4187
              Bcc     0.0159     2.131     0.760     0.711  0.8806  0.3326 -0.3375
 
              Baa    -0.0113    -6.032    -2.152    -2.012  0.3705  0.8952  0.2477
     5 H(1)   Bbb    -0.0066    -3.502    -1.250    -1.168  0.3985 -0.3941  0.8282
              Bcc     0.0179     9.534     3.402     3.180  0.8390 -0.2082 -0.5027
 
              Baa    -0.0241     1.747     0.623     0.583 -0.6399  0.6971  0.3235
     6 O(17)  Bbb    -0.0158     1.142     0.408     0.381 -0.1782 -0.5441  0.8199
              Bcc     0.0399    -2.889    -1.031    -0.964  0.7475  0.4670  0.4723
 
              Baa    -0.0039    -2.104    -0.751    -0.702  0.1292  0.2709  0.9539
     7 H(1)   Bbb    -0.0033    -1.763    -0.629    -0.588 -0.4301  0.8821 -0.1922
              Bcc     0.0072     3.868     1.380     1.290  0.8935  0.3854 -0.2305
 
              Baa    -0.5507   -73.904   -26.371   -24.652 -0.5062  0.7154  0.4817
     8 C(13)  Bbb    -0.5500   -73.802   -26.334   -24.618  0.8100  0.5862 -0.0195
              Bcc     1.1007   147.706    52.705    49.269  0.2963 -0.3803  0.8761
 
              Baa    -0.0163    -2.183    -0.779    -0.728  0.8328  0.5532 -0.0202
     9 C(13)  Bbb    -0.0030    -0.403    -0.144    -0.134 -0.4474  0.6510 -0.6132
              Bcc     0.0193     2.586     0.923     0.863 -0.3260  0.5197  0.7897
 
              Baa    -0.0089    -4.732    -1.688    -1.578  0.9025  0.3905  0.1817
    10 H(1)   Bbb    -0.0052    -2.749    -0.981    -0.917 -0.2506  0.8192 -0.5159
              Bcc     0.0140     7.480     2.669     2.495 -0.3503  0.4201  0.8371
 
              Baa    -0.0089    -4.729    -1.687    -1.577  0.8562  0.2625 -0.4450
    11 H(1)   Bbb    -0.0073    -3.890    -1.388    -1.297  0.5123 -0.3204  0.7968
              Bcc     0.0162     8.619     3.075     2.875 -0.0666  0.9102  0.4088
 
              Baa    -0.0085    -4.531    -1.617    -1.511  0.4068  0.0050  0.9135
    12 H(1)   Bbb    -0.0078    -4.146    -1.479    -1.383  0.4871  0.8448 -0.2215
              Bcc     0.0163     8.677     3.096     2.894  0.7728 -0.5351 -0.3413
 
              Baa    -0.0155    -2.086    -0.744    -0.696  0.7669 -0.3522 -0.5365
    13 C(13)  Bbb    -0.0034    -0.458    -0.164    -0.153  0.5392 -0.1000  0.8362
              Bcc     0.0190     2.544     0.908     0.849  0.3482  0.9306 -0.1132
 
              Baa    -0.0086    -4.604    -1.643    -1.536  0.8237  0.1175 -0.5548
    14 H(1)   Bbb    -0.0071    -3.782    -1.349    -1.261  0.5539 -0.3767  0.7425
              Bcc     0.0157     8.386     2.992     2.797  0.1217  0.9189  0.3753
 
              Baa    -0.0088    -4.689    -1.673    -1.564  0.8988 -0.4144 -0.1431
    15 H(1)   Bbb    -0.0053    -2.840    -1.013    -0.947  0.2394  0.1904  0.9521
              Bcc     0.0141     7.529     2.686     2.511  0.3673  0.8900 -0.2703
 
              Baa    -0.0084    -4.493    -1.603    -1.499 -0.4766  0.7360 -0.4807
    16 H(1)   Bbb    -0.0077    -4.120    -1.470    -1.374 -0.3916  0.3118  0.8657
              Bcc     0.0161     8.613     3.073     2.873  0.7870  0.6009  0.1396
 

 ---------------------------------------------------------------------------------

 Use density number 0.
 Entering OneElI...
 Calculate overlap and kinetic energy integrals
    NBasis = 187  MinDer = 2  MaxDer = 2
 Requested accuracy = 0.1000D-12
 PrsmSu:  NPrtUS=   1 ThrOK=F
 PRISM was handed   130760900 working-precision words and  2544 shell-pairs
 Entering OneElI...
 Calculate potential energy integrals
    NBasis = 187  MinDer = 2  MaxDer = 2
 Requested accuracy = 0.1000D-12
 PrsmSu:  NPrtUS=   8 ThrOK=T
 PRISM was handed    16302981 working-precision words and  2330 shell-pairs
 PRISM was handed    16302981 working-precision words and  2330 shell-pairs
 PRISM was handed    16302981 working-precision words and  2330 shell-pairs
 PRISM was handed    16302981 working-precision words and  2330 shell-pairs
 PRISM was handed    16302981 working-precision words and  2330 shell-pairs
 PRISM was handed    16302981 working-precision words and  2330 shell-pairs
 PRISM was handed    16302981 working-precision words and  2330 shell-pairs
 PRISM was handed    16302981 working-precision words and  2330 shell-pairs
 Polarizability after L701:
                1             2             3
      1  0.782291D+02
      2  0.634442D+00  0.560632D+02
      3 -0.971038D+00  0.274940D+01  0.498150D+02
 Dipole Derivatives after L701:
               1            2            3            4            5
      1-0.995099D+00 0.195088D-02-0.499670D-01 0.262565D+00-0.123010D-02
      2 0.900818D-01-0.303797D+00 0.130188D+00-0.149963D-02 0.290525D+00
      3-0.971919D-01 0.136336D+00-0.178369D+00 0.332729D-01-0.722457D-01
               6            7            8            9           10
      1 0.876843D-01 0.294942D+00 0.455933D-02-0.136849D+00 0.855868D+00
      2-0.822605D-01 0.218862D-01-0.403317D+00 0.140619D+00 0.133716D+00
      3 0.206036D+00-0.604885D-01 0.540082D-01-0.497920D+00 0.153026D-01
              11           12           13           14           15
      1 0.190642D-01 0.230413D+00-0.339242D-01 0.242345D-01-0.184910D-01
      2 0.100080D+01-0.239969D+00 0.324781D-01-0.933016D-01-0.735680D-01
      3-0.232195D+00 0.788551D+00 0.634629D-01-0.954676D-01-0.126400D+00
              16           17           18           19           20
      1-0.485854D+00-0.196803D+00-0.468766D-01 0.185722D+00 0.903072D-01
      2-0.293243D+00-0.923529D+00 0.104536D+00 0.910652D-02 0.291313D+00
      3 0.213099D-01 0.193519D+00-0.532045D+00 0.399223D-01-0.618781D-01
              21           22           23           24           25
      1 0.857544D-02-0.909731D-01 0.137047D+00-0.226878D+00 0.268909D-01
      2-0.523766D-01 0.188642D-01 0.187618D+00 0.183732D+00-0.187664D-01
      3 0.343353D+00-0.465758D-01 0.164634D+00-0.121947D+00 0.419859D-01
              26           27           28           29           30
      1-0.771334D-01 0.620615D-01 0.621581D-01 0.249903D-01 0.538196D-01
      2-0.375351D-01-0.121230D+00 0.288790D-01 0.228566D-01 0.675798D-02
      3-0.532595D-01 0.836910D-01 0.154377D-02 0.639079D-01-0.148885D+00
              31           32           33           34           35
      1 0.808682D-01-0.455510D-01-0.935680D-02-0.159756D+00 0.311954D-01
      2-0.721825D-01-0.614519D-01 0.111343D-01 0.508142D-01 0.549381D-01
      3-0.542062D-02-0.109788D-01 0.763893D-01-0.406549D-01-0.219069D-01
              36           37           38           39           40
      1-0.617854D-01 0.641836D-01-0.152274D-01 0.962935D-01 0.271224D-01
      2 0.310161D-02-0.374404D-01-0.235970D-01 0.153936D-02 0.580068D-01
      3 0.466406D-01 0.239587D-01-0.589222D-01 0.125982D+00 0.882433D-01
              41           42           43           44           45
      1 0.261060D-01 0.531302D-01 0.626271D-01-0.560902D-01 0.192441D-01
      2-0.115004D-01-0.107767D+00-0.155595D-01-0.313206D-01 0.108024D+00
      3-0.729156D-01-0.419049D-01-0.179990D-01 0.540628D-01-0.861190D-01
              46           47           48
      1-0.157340D+00 0.325794D-01-0.610187D-01
      2-0.514220D-02 0.412965D-01-0.124601D-01
      3-0.606717D-01 0.133018D-01 0.629459D-01
 Hessian after L701:
                1             2             3             4             5
      1  0.215679D+01
      2  0.334070D+00  0.977068D+01
      3 -0.534492D+00 -0.120492D+01  0.885209D+01
      4 -0.516957D+01  0.983773D+00  0.173999D+01  0.520957D+01
      5  0.838935D+00 -0.555483D+01  0.164029D+01 -0.990268D+00  0.551420D+01
      6  0.154454D+01  0.170051D+01 -0.334259D+01 -0.193856D+01 -0.172461D+01
      7  0.229503D+01 -0.996902D-01 -0.165883D+01 -0.171002D+00  0.119030D+00
      8 -0.835751D-01 -0.416681D+01  0.431436D-01  0.635454D-01  0.116072D+00
      9 -0.145631D+01  0.402045D-01 -0.450223D+01  0.646567D-01  0.654067D-01
     10 -0.172971D+00 -0.263387D+00  0.114217D+00  0.577292D-01  0.299778D-01
     11 -0.286146D+00  0.812145D-01 -0.824689D-01  0.124148D-01 -0.343125D-01
     12  0.289132D-01 -0.503362D-01 -0.102620D+00  0.580802D-01  0.165097D-01
     13  0.471789D-01 -0.424829D-01  0.502541D-01 -0.895720D-03  0.626164D-03
     14 -0.380178D-03 -0.687830D-01 -0.457162D-02  0.506057D-02 -0.746102D-03
     15  0.981991D-01 -0.510040D-01 -0.195841D-01  0.123145D-01  0.581318D-02
     16  0.948945D-01 -0.694672D+00  0.261988D+00  0.503570D-01 -0.344278D-01
     17 -0.527799D+00  0.174453D+00 -0.255831D+00 -0.754080D-01 -0.179738D-01
     18  0.200926D+00 -0.251634D+00 -0.367966D+00  0.562737D-01 -0.205124D-01
     19 -0.151732D+00 -0.213546D-01  0.229924D-01 -0.100659D-01  0.214601D-02
     20 -0.153579D+00  0.128355D+00 -0.156251D+00  0.151472D-02 -0.584533D-02
     21  0.912349D-01 -0.195489D+00 -0.841961D-01  0.942138D-03  0.767451D-02
     22  0.604182D+00 -0.141562D+00  0.359782D-01 -0.193840D-01  0.119081D-01
     23 -0.891707D-01 -0.200473D+00 -0.242907D-02  0.236897D-02 -0.268492D-02
     24  0.164253D-01 -0.683339D-02 -0.213796D+00 -0.471827D-02  0.324350D-02
     25  0.911803D-01 -0.877242D-01 -0.400681D-01  0.217415D-01  0.230490D-02
     26 -0.583542D-01 -0.606490D-01  0.850386D-02 -0.509790D-02 -0.655435D-02
     27 -0.126155D-01  0.126843D-02 -0.886154D-01  0.462957D-02  0.210174D-02
     28  0.821975D-02 -0.857537D-02 -0.109766D-01  0.344161D-02  0.648059D-03
     29 -0.964675D-03 -0.102015D-01 -0.375190D-03  0.243853D-03 -0.515906D-03
     30 -0.192222D-01  0.121589D-01  0.554248D-02 -0.496898D-02 -0.257826D-02
     31  0.879836D-03 -0.924113D-02 -0.120257D-02  0.513974D-03 -0.110466D-02
     32 -0.259641D-01  0.167366D-01  0.953586D-02 -0.606628D-02 -0.296081D-02
     33 -0.754271D-03  0.396710D-03 -0.123582D-01  0.691794D-03  0.220194D-03
     34  0.185301D-01 -0.140230D-01 -0.572937D-02  0.434873D-02  0.260277D-02
     35 -0.590263D-02 -0.314128D-02  0.127067D-02 -0.799045D-03 -0.991784D-03
     36  0.217118D-02 -0.150078D-02 -0.699509D-02  0.109058D-02  0.579976D-03
     37  0.137227D+00  0.477197D-01  0.210874D-01  0.153857D-01  0.115197D-01
     38  0.227687D-01 -0.879944D-01  0.264692D-02  0.152608D-02 -0.620324D-02
     39  0.288257D-01  0.421530D-02 -0.967881D-01  0.709917D-02  0.403850D-02
     40  0.743245D-02  0.837947D-02  0.819021D-02  0.238714D-03  0.311743D-03
     41  0.215745D-01 -0.652575D-02  0.650906D-02  0.343722D-02  0.202320D-02
     42  0.244374D-01  0.865415D-02 -0.731758D-02  0.438572D-02  0.364858D-02
     43  0.107688D-01  0.823007D-02 -0.456506D-02  0.328600D-02  0.235891D-02
     44  0.142493D-01 -0.592990D-02 -0.512335D-02  0.378410D-02  0.187221D-02
     45 -0.173790D-01 -0.528129D-02 -0.548966D-02 -0.316620D-02 -0.277266D-02
     46  0.219581D-01  0.539014D-03  0.116745D-02  0.430617D-02  0.343057D-02
     47  0.237635D-03 -0.609542D-02  0.715099D-04 -0.297603D-04 -0.549855D-03
     48  0.510092D-02 -0.411029D-03 -0.708836D-02  0.125764D-02  0.942325D-03
                6             7             8             9            10
      6  0.314480D+01
      7  0.169314D+00  0.161740D+01
      8  0.754896D-01  0.282495D+01  0.995244D+01
      9  0.164580D+00 -0.268031D+01  0.370453D+01  0.744823D+01
     10  0.734924D-01 -0.508058D+01 -0.237172D+01  0.356970D+01  0.181499D+02
     11  0.900545D-02 -0.245408D+01 -0.631979D+01 -0.381958D+01 -0.955651D+00
     12  0.104370D-01  0.365074D+01 -0.376953D+01 -0.239367D+01 -0.952395D+00
     13  0.314831D-02  0.249667D+00  0.639372D-01 -0.127106D+00 -0.504103D+01
     14  0.811878D-02  0.710034D-01  0.266162D+00  0.308347D+00 -0.373352D+00
     15  0.147298D-01 -0.936473D-01  0.313553D+00 -0.142599D+00 -0.608151D+00
     16  0.990369D-01 -0.200268D+00 -0.237617D+00  0.111438D+00 -0.818923D+01
     17 -0.689730D-01 -0.188005D+00  0.462648D+00 -0.412742D+00  0.318970D+01
     18  0.946928D-02  0.854076D-01 -0.449044D+00  0.780274D-01 -0.598669D+00
     19 -0.156794D-01 -0.166416D-01  0.765756D-01 -0.626609D-01  0.479667D-01
     20 -0.115932D-02  0.744318D-02 -0.174938D-01 -0.170766D-01 -0.152717D+00
     21  0.292598D-02 -0.113942D-01 -0.365655D-01  0.259850D-02  0.206548D-01
     22  0.149374D-01  0.813507D-01 -0.173700D+00  0.238499D+00 -0.648484D+00
     23  0.114681D-02 -0.160425D+00  0.183527D+00  0.774353D-01  0.961850D+00
     24  0.270300D-02  0.212679D+00  0.646952D-01 -0.439519D-01 -0.140439D+01
     25  0.166606D-01  0.362138D+00 -0.277555D+00  0.510299D-01  0.365034D+00
     26 -0.402504D-03 -0.265726D+00 -0.136521D+00 -0.208620D-01 -0.772954D-01
     27 -0.224544D-02  0.676596D-01 -0.359509D-01 -0.252290D+00 -0.157902D+00
     28  0.196491D-02  0.675731D-01 -0.498964D-01 -0.375707D-01 -0.113126D-01
     29  0.918542D-03 -0.347717D-01 -0.237225D-01  0.120708D-01  0.555146D-02
     30 -0.622675D-02 -0.862031D-01  0.394564D-01 -0.973296D-02 -0.523543D-01
     31 -0.117547D-03 -0.210360D-02 -0.281257D-01  0.142965D-02 -0.205512D-01
     32 -0.671079D-02 -0.770258D-01  0.486819D-01 -0.180932D-02  0.120727D-01
     33 -0.251267D-03  0.465745D-02 -0.397969D-02 -0.295658D-01  0.281209D-01
     34  0.596743D-02  0.448282D-01 -0.238430D-01  0.763403D-02  0.166486D+00
     35 -0.104505D-02 -0.189768D-01 -0.572645D-02 -0.236203D-02 -0.764006D-01
     36  0.800164D-03  0.964712D-02 -0.344456D-02 -0.121777D-01 -0.322713D-01
     37  0.167414D-01  0.621832D+00  0.144529D+00  0.274472D+00  0.232253D+00
     38 -0.643140D-03  0.141210D+00 -0.329581D+00  0.295017D-01 -0.487406D-01
     39 -0.254465D-03  0.292523D+00  0.427456D-01 -0.262711D+00 -0.188928D-01
     40  0.201489D-03 -0.683229D-02  0.129329D-01  0.150151D-01 -0.338881D-02
     41  0.465036D-02  0.453268D-01 -0.508455D-02  0.316431D-01  0.238744D-01
     42  0.502785D-02  0.593889D-01  0.316809D-01  0.116849D-01  0.320837D-01
     43  0.228051D-02  0.822102D-01  0.555280D-01  0.762618D-02 -0.120159D-01
     44  0.380266D-02  0.871106D-01 -0.100284D-01  0.457149D-02  0.314363D-01
     45 -0.512526D-02 -0.431551D-01 -0.177581D-01 -0.477570D-01 -0.373048D-01
     46  0.606673D-02  0.553986D-01  0.402740D-02  0.224585D-01  0.160223D+00
     47 -0.105749D-03  0.262474D-02 -0.147701D-01  0.721853D-03  0.647967D-01
     48  0.121854D-02  0.215231D-01  0.977548D-03 -0.843752D-02  0.240550D-01
               11            12            13            14            15
     11  0.166067D+02
     12  0.332412D+01  0.214518D+02
     13 -0.384093D+00 -0.576579D+00  0.455335D+01
     14 -0.404280D+01  0.172140D+01  0.363622D+00  0.409199D+01
     15  0.183679D+01 -0.230320D+01  0.610856D+00 -0.207485D+01  0.195127D+01
     16  0.311282D+01 -0.595136D+00  0.193591D+00 -0.705559D-01 -0.212098D-01
     17  0.959862D+00 -0.125308D+01 -0.740543D-01 -0.277945D+00  0.644942D-01
     18 -0.125054D+01 -0.959614D+01 -0.177391D-01  0.665856D-01  0.349955D+00
     19 -0.120718D-02 -0.166062D-01 -0.221577D-02 -0.485483D-01 -0.294095D-02
     20  0.923433D-01  0.101782D-01 -0.602726D-01 -0.737692D-01 -0.289500D-01
     21 -0.659294D-02  0.117403D+00 -0.134628D-01 -0.246093D-01  0.217819D-01
     22  0.968554D+00 -0.148256D+01 -0.499828D-01  0.180968D+00  0.178059D+00
     23 -0.704720D+01 -0.283452D-01  0.215683D+00  0.919695D-01 -0.172419D+00
     24  0.518423D-02 -0.711297D+01  0.172507D+00 -0.119047D+00  0.700919D-01
     25 -0.611039D-01 -0.120735D+00  0.725084D-01 -0.978294D-01 -0.150757D+00
     26 -0.910898D-01 -0.421313D-02 -0.839249D-01 -0.722694D-02  0.859865D-01
     27  0.873039D-02 -0.181311D-01 -0.119640D+00  0.806231D-01  0.666583D-01
     28  0.287967D-02 -0.249216D-01 -0.166971D-02 -0.552979D-03 -0.449918D-03
     29 -0.256829D-01 -0.206812D-02  0.149858D-02 -0.172239D-02 -0.222392D-02
     30  0.473757D-02  0.390547D-01 -0.180158D-02  0.495160D-02  0.770379D-02
     31  0.502181D-01  0.338555D-01  0.102792D-02 -0.131693D-01 -0.105212D-01
     32 -0.769080D-02 -0.289786D-01 -0.185197D-01  0.203296D-01  0.287195D-01
     33 -0.345598D-01 -0.600364D-02 -0.110807D-01  0.160223D-01  0.651868D-02
     34 -0.705805D-01 -0.432217D-01  0.544760D-02 -0.754379D-02 -0.106436D-01
     35 -0.251427D-01  0.162202D-01 -0.151412D-02  0.723294D-03  0.280870D-02
     36  0.110656D-01 -0.389204D-01  0.376409D-04  0.333435D-03 -0.145789D-02
     37 -0.160906D-01  0.340013D-01 -0.673393D-01 -0.428730D-01  0.310091D-01
     38 -0.127978D+00  0.487490D-01 -0.425467D-01  0.477988D-02  0.224751D-01
     39 -0.971906D-03 -0.755985D-02  0.355438D-01  0.189744D-01  0.736328D-02
     40 -0.121943D-01  0.338100D-02  0.295807D-01  0.393899D-01 -0.159179D-01
     41 -0.136026D-01  0.191650D-01  0.576999D-01  0.239947D-02 -0.233106D-01
     42  0.279644D-01  0.370615D-02  0.217382D-02 -0.383374D-02 -0.367463D-01
     43  0.167680D-01 -0.126515D-01  0.101511D-02 -0.597595D-03 -0.439405D-02
     44  0.181298D-01 -0.204082D-01  0.396529D-02 -0.344692D-02 -0.780134D-02
     45 -0.411250D-01  0.650752D-03 -0.678362D-02  0.218568D-02  0.103027D-01
     46  0.774907D-01  0.158285D-01  0.976778D-02 -0.464111D-02 -0.118048D-01
     47 -0.229456D-01  0.618960D-03  0.376149D-03 -0.191719D-02 -0.758073D-04
     48  0.824803D-02 -0.438125D-01 -0.328448D-03 -0.624622D-03 -0.278601D-02
               16            17            18            19            20
     16  0.902127D+01
     17 -0.313472D+01  0.625839D+01
     18  0.228286D+01  0.225206D+01  0.166337D+02
     19 -0.164082D+01  0.215891D+00 -0.119541D+01  0.145268D+01
     20  0.602657D+00 -0.689699D+01 -0.109592D+00 -0.415638D+00  0.678969D+01
     21 -0.135171D+01 -0.355945D-01 -0.674325D+01  0.137484D+01  0.339059D+00
     22  0.233977D+00  0.943509D-01 -0.356765D+00  0.246689D+00  0.158118D+00
     23  0.316116D-01 -0.491645D+00 -0.178990D+00  0.161834D+00  0.294272D-03
     24 -0.336691D+00 -0.223734D+00  0.100327D+00 -0.722465D-01 -0.325398D-01
     25  0.213360D+00  0.129563D+00 -0.208481D+00  0.516916D-01  0.378012D-02
     26  0.201342D+00 -0.207064D+00 -0.843766D-01  0.107697D-01 -0.148573D-01
     27 -0.193834D+00 -0.335977D-01 -0.215885D+00 -0.247722D-01 -0.132508D-02
     28  0.815998D-02  0.110552D-01 -0.336789D-01  0.494761D-02  0.111713D-02
     29  0.140550D-01 -0.171138D-01 -0.176397D-01  0.333849D-02 -0.834203D-03
     30 -0.515649D-01 -0.221360D-01  0.344283D-01 -0.136940D-01 -0.180581D-02
     31  0.805887D-01 -0.238383D-01 -0.156513D+00 -0.190644D-01  0.147945D-02
     32 -0.130325D+00 -0.154533D+00  0.843360D-01 -0.771935D-02  0.276369D-02
     33 -0.171078D+00  0.192535D-01 -0.653656D-01  0.895472D-02 -0.359693D-03
     34  0.632889D-01  0.102029D-01 -0.206826D-01  0.139679D-01  0.130864D-02
     35 -0.861174D-03 -0.215206D-01  0.142181D-02 -0.105664D-02 -0.108688D-02
     36 -0.810789D-02  0.270190D-03 -0.176452D-01  0.381551D-03 -0.191579D-04
     37  0.601227D-01  0.310367D+00 -0.364375D-01  0.105976D-01  0.468725D-03
     38  0.281386D+00  0.166964D+00 -0.438974D-01  0.748444D-02 -0.530392D-02
     39 -0.293927D-01 -0.391816D-01 -0.170967D+00 -0.339185D-02  0.112306D-03
     40 -0.106075D-01  0.119890D-01  0.249451D-02 -0.211826D-02 -0.517981D-03
     41  0.277604D-01  0.423158D-01  0.117005D-01  0.806524D-02  0.115437D-02
     42  0.121936D-01  0.319664D-01 -0.124561D-01  0.679379D-02  0.179831D-02
     43 -0.315379D-02  0.159297D-01 -0.439627D-02  0.272959D-02  0.201919D-02
     44  0.191576D-01  0.210264D-01 -0.958163D-02  0.777832D-02  0.191622D-02
     45 -0.129355D-01 -0.272781D-01 -0.394887D-02 -0.829115D-02 -0.237230D-02
     46  0.244723D-01  0.347787D-01  0.811134D-03  0.113972D-01  0.281909D-02
     47  0.123881D-01 -0.880290D-03 -0.296763D-03  0.164160D-02 -0.332032D-03
     48  0.413983D-02  0.409868D-02 -0.122910D-01  0.172548D-02  0.303293D-03
               21            22            23            24            25
     21  0.674975D+01
     22 -0.806135D-01  0.957314D+01
     23 -0.397540D-01 -0.157839D+01  0.121520D+02
     24 -0.557195D-01  0.226567D+01 -0.242819D+01  0.171461D+02
     25 -0.254393D-01 -0.530795D+01 -0.190226D+01 -0.143522D+01  0.137854D+02
     26 -0.345146D-02 -0.173784D+01 -0.313912D+01  0.231916D+01  0.136157D+01
     27 -0.512771D-02 -0.132884D+01  0.234480D+01 -0.453478D+01  0.135901D+01
     28 -0.344252D-02  0.822476D-01  0.586859D-01  0.441062D-01 -0.415414D+01
     29 -0.135151D-02  0.511728D-01  0.314312D-01 -0.113678D+00  0.308910D-02
     30  0.451265D-02  0.270910D-01 -0.888791D-01  0.274223D+00  0.307034D-01
     31  0.103661D-01  0.893062D-01  0.675653D-01  0.141206D-01 -0.384659D+01
     32  0.219487D-02 -0.257642D-01  0.100948D+00 -0.486907D-01  0.140056D+01
     33 -0.226202D-02 -0.210233D-01 -0.850974D-01  0.235185D-01 -0.438702D-01
     34 -0.399616D-02  0.485255D-01 -0.916309D-02  0.112339D+00 -0.156090D+01
     35  0.516139D-03  0.465359D-01  0.105641D+00 -0.595090D-01 -0.482877D+00
     36 -0.127168D-02  0.123616D+00 -0.593846D-01  0.492950D-01  0.567063D+00
     37 -0.427739D-02 -0.513100D+01  0.241432D+01  0.354142D+00 -0.235491D-01
     38 -0.136060D-02  0.227853D+01 -0.183789D+01  0.730369D+00  0.521947D-01
     39 -0.519561D-02  0.332527D+00  0.751124D+00 -0.620349D+01  0.197144D-01
     40  0.179695D-03  0.757391D-01 -0.358977D-01 -0.261509D-01 -0.450472D-01
     41 -0.179340D-02  0.373437D-01 -0.303446D-01  0.114665D-01 -0.345756D-01
     42 -0.234495D-02  0.121956D-01  0.371792D-01  0.115853D+00 -0.214363D-01
     43 -0.130073D-02  0.603774D-01 -0.746676D-01 -0.182716D-01 -0.292874D-01
     44 -0.269867D-02 -0.553561D-01  0.600344D-01 -0.140098D+00  0.125348D-02
     45  0.165921D-02 -0.263646D-01 -0.162586D+00  0.243471D+00 -0.229937D-02
     46 -0.259019D-02  0.612653D-01 -0.639400D-01  0.105690D+00  0.446341D-02
     47 -0.183320D-03 -0.114872D+00  0.235621D-01  0.382018D-01 -0.103893D-01
     48 -0.126585D-02  0.675834D-01  0.343941D-01  0.139120D+00  0.411998D-02
               26            27            28            29            30
     26  0.134799D+02
     27 -0.163991D+01  0.148441D+02
     28  0.377137D-01 -0.134544D+00  0.393485D+01
     29 -0.402934D+01 -0.515419D+00 -0.547778D-01  0.394303D+01
     30 -0.642163D+00 -0.143099D+01  0.264059D+00  0.474718D+00  0.105820D+01
     31  0.107489D+01 -0.880617D-01  0.638906D-01 -0.151465D-01  0.155696D-01
     32 -0.209953D+01 -0.261477D+00 -0.426672D-01  0.563369D-02  0.671079D-01
     33 -0.125161D+00 -0.441538D+01  0.500445D-01  0.868361D-01  0.152822D-01
     34 -0.388458D+00  0.660711D+00  0.384681D-01  0.236000D-01 -0.114522D+00
     35 -0.404797D+01 -0.135889D+00  0.400809D-01  0.958993D-01  0.537171D-01
     36 -0.972273D-01 -0.395005D+01 -0.120061D+00  0.342449D-01 -0.304234D-01
     37 -0.390493D-01 -0.200765D-01 -0.279144D-01  0.274800D-02  0.516232D-03
     38  0.200094D+00  0.915812D-01  0.626185D-02 -0.206551D-02  0.562243D-01
     39  0.115230D+00  0.768053D-02  0.664039D-02  0.314754D-01  0.431631D-01
     40 -0.295988D-01 -0.175331D-01 -0.626095D-03 -0.399509D-05 -0.391594D-02
     41  0.118331D+00  0.105315D+00  0.100877D-03 -0.223053D-02  0.587214D-02
     42  0.112975D+00  0.240305D-01 -0.541914D-04 -0.111704D-02  0.713497D-02
     43 -0.682742D-02  0.379083D-03 -0.177109D-01  0.205993D-02  0.639733D-03
     44  0.666346D-01 -0.470364D-02 -0.108015D-02  0.409679D-01  0.412813D-01
     45 -0.306223D-01 -0.265229D-01 -0.665205D-03  0.175640D-01 -0.145324D-01
     46  0.588555D-02  0.542525D-02  0.157260D-02 -0.169248D-02  0.966789D-02
     47 -0.250696D-01 -0.615009D-02 -0.993398D-03 -0.353218D-02 -0.266286D-02
     48  0.652754D-02 -0.245351D-02 -0.450696D-03 -0.395529D-02  0.266499D-02
               31            32            33            34            35
     31  0.372626D+01
     32 -0.108296D+01  0.184521D+01
     33  0.166896D+00  0.100925D+00  0.446045D+01
     34 -0.370844D-01 -0.475854D-01 -0.242390D-01  0.121425D+01
     35 -0.716667D-01  0.477958D-01 -0.188050D-01  0.565863D+00  0.381964D+01
     36 -0.144427D-02 -0.392420D-02  0.610880D-01 -0.552785D+00  0.116222D+00
     37 -0.404714D-01  0.423412D-01  0.114473D-01  0.462838D-02 -0.211150D-02
     38  0.398657D-01  0.163160D+00  0.456654D-01 -0.145074D-01 -0.768701D-02
     39  0.123920D-01  0.551396D-01 -0.332890D-01 -0.155775D-02 -0.535531D-02
     40 -0.124558D-02 -0.450885D-02 -0.699214D-03  0.439970D-02 -0.531752D-02
     41  0.401002D-02  0.268183D-02 -0.233331D-02 -0.119810D-01  0.733487D-02
     42  0.322259D-02  0.583424D-02 -0.793213D-03 -0.933669D-02  0.654729D-02
     43 -0.643633D-03 -0.340821D-03 -0.107859D-03  0.157666D-02  0.298265D-03
     44  0.331711D-02  0.527176D-02 -0.108172D-02 -0.649871D-02 -0.210355D-02
     45 -0.314007D-02 -0.811607D-02 -0.196282D-03  0.783473D-02 -0.441716D-02
     46  0.528750D-02  0.144690D-01  0.203995D-02 -0.307621D-01  0.147052D-01
     47  0.390655D-02  0.550338D-02  0.205812D-02 -0.939406D-02  0.383297D-01
     48  0.314841D-02  0.591323D-02 -0.139907D-02 -0.777171D-02  0.286584D-01
               36            37            38            39            40
     36  0.397599D+01
     37  0.903520D-02  0.135864D+02
     38 -0.185092D-01 -0.187047D+01  0.124262D+02
     39 -0.184786D-01 -0.474310D+00 -0.727550D+00  0.156461D+02
     40 -0.955748D-03 -0.377729D+01 -0.608318D+00 -0.753130D+00  0.370018D+01
     41  0.244666D-02 -0.802644D+00 -0.330563D+01  0.119027D+01  0.567216D+00
     42 -0.162444D-02 -0.928617D+00  0.110356D+01 -0.281612D+01  0.711969D+00
     43  0.468667D-03 -0.411304D+01  0.461564D-01 -0.887227D-01  0.687014D-01
     44 -0.261449D-02 -0.530023D-01 -0.318989D+01 -0.139198D+01 -0.898402D-03
     45  0.234035D-02  0.518353D-01 -0.125260D+01 -0.220231D+01  0.199660D-01
     46  0.211446D-02 -0.148781D+01 -0.292804D+00  0.634133D+00 -0.391074D-01
     47  0.214614D-01 -0.147772D+00 -0.406099D+01 -0.482926D-01  0.570366D-01
     48 -0.104649D-01  0.659431D+00 -0.862123D-01 -0.388713D+01  0.569057D-01
               41            42            43            44            45
     41  0.305117D+01
     42 -0.135211D+01  0.270914D+01
     43 -0.619225D-02  0.615606D-01  0.391136D+01
     44  0.915027D-01 -0.979321D-02 -0.120814D+00  0.283947D+01
     45  0.936143D-02 -0.666228D-01  0.166619D+00  0.147421D+01  0.211286D+01
     46  0.589833D-01  0.290391D-01  0.338270D-01  0.655976D-01 -0.847702D-01
     47  0.445033D-01 -0.495470D-02  0.600912D-01  0.645732D-01  0.516124D-01
     48 -0.188542D-01  0.674459D-01 -0.105164D+00  0.720185D-01  0.122919D-02
               46            47            48
     46  0.116374D+01
     47  0.803518D-01  0.396061D+01
     48 -0.735276D+00 -0.520242D-01  0.376545D+01
 ReadGW:  IGet=0 IStart=         114 Next=        7248 LGW=        7134.
 ICntrl=12127.
 Symmetry not used in FoFDir.
 MinBra= 0 MaxBra= 2 Meth= 1.
 IRaf=       0 NMat=   1 IRICut=       1 DoRegI=T DoRafI=F ISym2E= 0 JSym2E=0.
 PrsmSu:  NPrtUS=   8 ThrOK=T
 PRISM was handed    16289273 working-precision words and  2428 shell-pairs
 PRISM was handed    16289273 working-precision words and  2428 shell-pairs
 PRISM was handed    16289273 working-precision words and  2428 shell-pairs
 PRISM was handed    16289273 working-precision words and  2428 shell-pairs
 PRISM was handed    16289273 working-precision words and  2428 shell-pairs
 PRISM was handed    16289273 working-precision words and  2428 shell-pairs
 PRISM was handed    16289273 working-precision words and  2428 shell-pairs
 PRISM was handed    16289273 working-precision words and  2428 shell-pairs
 Pruned (  75, 302) grid will be used in CalDFT.
 CkSvGd:  ISavGI=        -1 IRadAn=       4 IRASav=       4 ISavGd=        -1.
 CalDSu:  NPrtUS=   8 ThrOK=T
 IPart= 0 IRanGd=          0 ScrnBf=T ScrnGd=T RCrit=4.00D+00 DoMicB=T.
 IPart= 4 IRanGd=          0 ScrnBf=T ScrnGd=T RCrit=4.00D+00 DoMicB=T.
 IPart= 6 IRanGd=          0 ScrnBf=T ScrnGd=T RCrit=4.00D+00 DoMicB=T.
 IPart= 2 IRanGd=          0 ScrnBf=T ScrnGd=T RCrit=4.00D+00 DoMicB=T.
 IPart= 3 IRanGd=          0 ScrnBf=T ScrnGd=T RCrit=4.00D+00 DoMicB=T.
 IPart= 7 IRanGd=          0 ScrnBf=T ScrnGd=T RCrit=4.00D+00 DoMicB=T.
 CutRad = 1000.00    CtRdIn =    0.00    XCrit =  15.00   ICut = 0
 CutRad = 1000.00    CtRdIn =    0.00    XCrit =  15.00   ICut = 0
 CutRad = 1000.00    CtRdIn =    0.00    XCrit =  15.00   ICut = 0
 CutRad = 1000.00    CtRdIn =    0.00    XCrit =  15.00   ICut = 0
 IPart= 1 IRanGd=          0 ScrnBf=T ScrnGd=T RCrit=4.00D+00 DoMicB=T.
 CutRad = 1000.00    CtRdIn =    0.00    XCrit =  15.00   ICut = 0
 CutRad = 1000.00    CtRdIn =    0.00    XCrit =  15.00   ICut = 0
 CutRad = 1000.00    CtRdIn =    0.00    XCrit =  15.00   ICut = 0
 IPart= 5 IRanGd=          0 ScrnBf=T ScrnGd=T RCrit=4.00D+00 DoMicB=T.
 CutRad = 1000.00    CtRdIn =    0.00    XCrit =  15.00   ICut = 0
 IPart= 4        16477 of        19054 points in      40 batches and      119 microbatches, Max-NSigAt=      16 Max-NSgAt2=      16
 IPart= 7        12080 of        13440 points in      28 batches and      107 microbatches, Max-NSigAt=      16 Max-NSgAt2=      16
 IPart= 6        14134 of        16198 points in      33 batches and       91 microbatches, Max-NSigAt=      16 Max-NSgAt2=      16
 IPart= 5        14502 of        16538 points in      34 batches and      109 microbatches, Max-NSigAt=      16 Max-NSgAt2=      16
 IPart= 0        12845 of        14542 points in      28 batches and       72 microbatches, Max-NSigAt=      16 Max-NSgAt2=      16
 IPart= 3        14563 of        16128 points in      32 batches and       85 microbatches, Max-NSigAt=      16 Max-NSgAt2=      16
 IPart= 1        15280 of        17684 points in      39 batches and      116 microbatches, Max-NSigAt=      16 Max-NSgAt2=      16
 IPart= 2        12760 of        14352 points in      29 batches and       99 microbatches, Max-NSigAt=      16 Max-NSgAt2=      16
 Polarizability after L703:
                1             2             3
      1  0.782291D+02
      2  0.634442D+00  0.560632D+02
      3 -0.971038D+00  0.274940D+01  0.498150D+02
 Dipole Derivatives after L703:
               1            2            3            4            5
      1-0.995099D+00 0.195088D-02-0.499670D-01 0.262565D+00-0.123010D-02
      2 0.900818D-01-0.303797D+00 0.130188D+00-0.149963D-02 0.290525D+00
      3-0.971919D-01 0.136336D+00-0.178369D+00 0.332729D-01-0.722457D-01
               6            7            8            9           10
      1 0.876843D-01 0.294942D+00 0.455933D-02-0.136849D+00 0.855868D+00
      2-0.822605D-01 0.218862D-01-0.403317D+00 0.140619D+00 0.133716D+00
      3 0.206036D+00-0.604885D-01 0.540082D-01-0.497920D+00 0.153026D-01
              11           12           13           14           15
      1 0.190642D-01 0.230413D+00-0.339242D-01 0.242345D-01-0.184910D-01
      2 0.100080D+01-0.239969D+00 0.324781D-01-0.933016D-01-0.735680D-01
      3-0.232195D+00 0.788551D+00 0.634629D-01-0.954676D-01-0.126400D+00
              16           17           18           19           20
      1-0.485854D+00-0.196803D+00-0.468766D-01 0.185722D+00 0.903072D-01
      2-0.293243D+00-0.923529D+00 0.104536D+00 0.910652D-02 0.291313D+00
      3 0.213099D-01 0.193519D+00-0.532045D+00 0.399223D-01-0.618781D-01
              21           22           23           24           25
      1 0.857544D-02-0.909731D-01 0.137047D+00-0.226878D+00 0.268909D-01
      2-0.523766D-01 0.188642D-01 0.187618D+00 0.183732D+00-0.187664D-01
      3 0.343353D+00-0.465758D-01 0.164634D+00-0.121947D+00 0.419859D-01
              26           27           28           29           30
      1-0.771334D-01 0.620615D-01 0.621581D-01 0.249903D-01 0.538196D-01
      2-0.375351D-01-0.121230D+00 0.288790D-01 0.228566D-01 0.675798D-02
      3-0.532595D-01 0.836910D-01 0.154377D-02 0.639079D-01-0.148885D+00
              31           32           33           34           35
      1 0.808682D-01-0.455510D-01-0.935680D-02-0.159756D+00 0.311954D-01
      2-0.721825D-01-0.614519D-01 0.111343D-01 0.508142D-01 0.549381D-01
      3-0.542062D-02-0.109788D-01 0.763893D-01-0.406549D-01-0.219069D-01
              36           37           38           39           40
      1-0.617854D-01 0.641836D-01-0.152274D-01 0.962935D-01 0.271224D-01
      2 0.310161D-02-0.374404D-01-0.235970D-01 0.153936D-02 0.580068D-01
      3 0.466406D-01 0.239587D-01-0.589222D-01 0.125982D+00 0.882433D-01
              41           42           43           44           45
      1 0.261060D-01 0.531302D-01 0.626271D-01-0.560902D-01 0.192441D-01
      2-0.115004D-01-0.107767D+00-0.155595D-01-0.313206D-01 0.108024D+00
      3-0.729156D-01-0.419049D-01-0.179990D-01 0.540628D-01-0.861190D-01
              46           47           48
      1-0.157340D+00 0.325794D-01-0.610187D-01
      2-0.514220D-02 0.412965D-01-0.124601D-01
      3-0.606717D-01 0.133018D-01 0.629459D-01
 Hessian after L703:
                1             2             3             4             5
      1  0.292505D+00
      2  0.653291D-01  0.112663D+00
      3  0.119518D+00  0.185662D+00  0.432557D+00
      4 -0.903978D-01 -0.629571D-01 -0.112635D+00  0.126732D+00
      5 -0.808013D-01 -0.932499D-01 -0.183566D+00  0.763442D-01  0.917777D-01
      6 -0.161757D+00 -0.184104D+00 -0.369000D+00  0.141974D+00  0.177732D+00
      7 -0.156201D+00 -0.219564D-01  0.271886D-01 -0.286389D-01  0.127418D-02
      8  0.547823D-02 -0.179051D-01  0.148854D-02 -0.123999D-01  0.112516D-02
      9  0.445394D-01 -0.382899D-03 -0.807754D-01 -0.310456D-01  0.458383D-02
     10 -0.446785D-01  0.125506D-01 -0.274092D-01 -0.866098D-02  0.341986D-02
     11  0.433061D-02 -0.843113D-02 -0.245697D-02 -0.236788D-02  0.260742D-02
     12  0.886102D-02  0.403543D-03  0.138993D-01  0.182899D-02  0.841784D-04
     13  0.380675D-02 -0.804104D-03 -0.160869D-04  0.333931D-03  0.893720D-04
     14 -0.796867D-03 -0.285603D-03 -0.124989D-02 -0.306812D-03 -0.354168D-03
     15  0.112536D-02  0.162834D-03  0.281126D-02  0.722868D-03  0.583329D-04
     16  0.430710D-02  0.664435D-02 -0.238034D-02  0.143577D-02 -0.100280D-02
     17 -0.111628D-02  0.294346D-02 -0.922339D-03 -0.568171D-03 -0.163705D-02
     18  0.880315D-03 -0.122152D-03  0.281482D-03  0.744539D-03 -0.996422D-03
     19 -0.890328D-03 -0.436120D-03  0.301647D-05  0.961960D-04  0.496911D-03
     20  0.105980D-02  0.195363D-02 -0.189696D-02  0.864901D-03  0.275061D-03
     21 -0.146574D-02 -0.306550D-02  0.615129D-03 -0.897165D-03  0.175137D-02
     22 -0.695308D-02  0.111172D-02 -0.265100D-02 -0.548033D-03  0.915462D-04
     23  0.763327D-02  0.177918D-02  0.324882D-02  0.135851D-02 -0.526703D-03
     24 -0.146505D-01  0.144798D-02 -0.817476D-03 -0.811953D-03  0.606458D-03
     25 -0.268199D-03 -0.311854D-03 -0.638572D-03 -0.166876D-03  0.170485D-04
     26 -0.179001D-02 -0.456893D-05 -0.118109D-03 -0.607826D-04  0.174488D-03
     27 -0.232132D-03 -0.219951D-03 -0.105396D-03 -0.165773D-03 -0.146109D-03
     28 -0.797998D-04  0.746763D-05 -0.436119D-03 -0.137944D-03  0.505363D-04
     29  0.465632D-03 -0.539594D-04  0.182333D-03  0.519012D-04 -0.769921D-05
     30  0.133549D-02 -0.216543D-04  0.237306D-03  0.873018D-04 -0.446035D-04
     31 -0.365337D-03 -0.119914D-03  0.557508D-04 -0.983860D-04  0.988069D-04
     32  0.462144D-03  0.152191D-03 -0.106338D-03  0.877582D-04 -0.849594D-04
     33  0.689054D-04  0.655078D-04 -0.148481D-03 -0.297568D-05  0.936385D-05
     34 -0.591216D-03 -0.179913D-04 -0.303394D-03 -0.322892D-04  0.565358D-05
     35  0.890355D-03  0.791922D-04  0.139530D-03  0.976135D-04 -0.569488D-04
     36  0.432247D-03  0.596068D-04  0.226503D-03  0.118177D-03 -0.237321D-04
     37  0.649788D-03  0.431188D-03  0.819064D-04  0.143952D-03 -0.599227D-04
     38  0.140825D-02 -0.197032D-03 -0.135163D-03 -0.950508D-05 -0.201800D-04
     39  0.155853D-02  0.251098D-03  0.379732D-03  0.153984D-03 -0.844126D-04
     40 -0.226375D-03 -0.521230D-05 -0.407681D-05 -0.503465D-04 -0.270620D-05
     41 -0.448333D-03 -0.708352D-05 -0.260577D-04 -0.584209D-04  0.000000D+00
     42 -0.484676D-03  0.107930D-03 -0.327376D-04 -0.245435D-04 -0.120720D-04
     43 -0.582927D-04  0.349619D-03 -0.339175D-03 -0.543874D-04 -0.402595D-04
     44 -0.132779D-02  0.275618D-03 -0.228724D-03 -0.704363D-04 -0.236087D-05
     45  0.626645D-03 -0.162091D-03 -0.110202D-03 -0.283854D-04  0.249020D-04
     46 -0.559104D-03  0.184573D-03 -0.340649D-04  0.439928D-04  0.189404D-04
     47 -0.776822D-03  0.287826D-03 -0.144187D-04 -0.591528D-05 -0.198507D-04
     48 -0.355669D-03 -0.825683D-04 -0.181941D-04 -0.180199D-04  0.237926D-04
                6             7             8             9            10
      6  0.359741D+00
      7  0.198682D-01  0.268132D+00
      8  0.571467D-02 -0.572220D-03  0.111871D+00
      9  0.116735D-01  0.408628D-02 -0.759494D-01  0.260943D+00
     10 -0.509242D-03 -0.548685D-01 -0.181665D-01  0.215695D-01  0.513511D+00
     11  0.920960D-03  0.780662D-02 -0.577960D-01  0.165450D-01  0.408960D-01
     12 -0.388257D-02 -0.404336D-01  0.241198D-01 -0.147868D+00 -0.111374D+00
     13  0.306309D-04 -0.402795D-03 -0.499273D-03 -0.260453D-01 -0.684263D-01
     14  0.263183D-03  0.302632D-02  0.875750D-02  0.199930D-01  0.250933D-01
     15  0.957388D-03 -0.535109D-02 -0.105658D-02 -0.432886D-01  0.487374D-01
     16  0.301712D-03  0.487867D-02  0.142288D-01 -0.227201D-02 -0.108817D+00
     17 -0.533527D-03  0.674933D-02 -0.472162D-01  0.393725D-01 -0.110855D-01
     18  0.947092D-03  0.128517D-02  0.475401D-01 -0.685900D-02  0.959871D-02
     19 -0.513651D-03 -0.109884D-02  0.332017D-02 -0.275808D-02 -0.152952D-01
     20  0.120088D-03 -0.154500D-02 -0.520825D-03  0.100855D-02 -0.492916D-01
     21 -0.140813D-02  0.247758D-02 -0.454845D-03 -0.117934D-02  0.559579D-02
     22  0.520264D-03 -0.312993D-01  0.103406D-01 -0.106446D-01 -0.192174D+00
     23 -0.242711D-03  0.495154D-02  0.131266D-02 -0.563942D-02 -0.481433D-02
     24  0.130532D-02 -0.788282D-02 -0.158504D-02  0.700542D-02  0.521293D-01
     25 -0.116455D-03  0.100042D-02 -0.383800D-03  0.175197D-02 -0.129046D-01
     26  0.158142D-03  0.248605D-03 -0.405141D-03  0.193699D-03  0.628487D-02
     27 -0.369292D-04  0.101141D-02 -0.219382D-04  0.809219D-04  0.281572D-02
     28  0.667830D-04 -0.536962D-03  0.118483D-03 -0.122658D-03  0.776645D-03
     29 -0.280212D-04  0.948756D-04  0.101559D-04 -0.111710D-03 -0.155269D-02
     30 -0.144700D-03 -0.803959D-03  0.498494D-04  0.572173D-03 -0.268570D-02
     31 -0.431066D-04  0.236835D-03 -0.537052D-03  0.140880D-03  0.716518D-03
     32  0.453961D-05 -0.306314D-03  0.531928D-03  0.493425D-04 -0.240300D-02
     33  0.697226D-04 -0.277381D-03  0.325610D-03 -0.291353D-03 -0.352128D-03
     34  0.749172D-04 -0.733592D-04  0.374661D-04  0.404593D-03  0.330537D-03
     35 -0.454499D-04 -0.534145D-03  0.333272D-03 -0.390632D-03 -0.542359D-03
     36 -0.281236D-04 -0.372818D-03  0.146784D-03 -0.167286D-03  0.125856D-02
     37  0.200348D-04 -0.806688D-03 -0.732538D-03  0.303764D-03 -0.110040D-01
     38 -0.135729D-03 -0.803054D-03 -0.324945D-03  0.187957D-03 -0.613486D-02
     39 -0.226473D-03 -0.213800D-03 -0.326120D-03 -0.289762D-03 -0.104001D-02
     40 -0.831068D-05  0.178578D-03  0.451430D-04  0.116913D-03  0.482248D-03
     41  0.400886D-05  0.355671D-03  0.141000D-03  0.561690D-03  0.220585D-02
     42  0.206467D-04  0.144085D-03  0.353867D-03 -0.121986D-03  0.158680D-02
     43  0.127591D-04 -0.464060D-03  0.612480D-04 -0.102049D-03  0.821690D-03
     44  0.110364D-03  0.741305D-03  0.247097D-04 -0.211190D-03  0.334310D-02
     45 -0.291268D-04 -0.751952D-03 -0.264004D-03  0.281469D-03 -0.101564D-02
     46  0.787462D-04 -0.360256D-04 -0.338863D-03  0.768306D-04  0.189521D-03
     47  0.618029D-04  0.468704D-03  0.603783D-04  0.189730D-03  0.197178D-03
     48  0.408759D-04  0.259845D-04 -0.812940D-04  0.283879D-03  0.109370D-02
               11            12            13            14            15
     11  0.475388D+00
     12  0.112072D+00  0.483384D+00
     13  0.272577D-01  0.589394D-01  0.708456D-01
     14 -0.107946D+00 -0.103508D+00 -0.286675D-01  0.134667D+00
     15 -0.104418D+00 -0.203999D+00 -0.479961D-01  0.107029D+00  0.235630D+00
     16 -0.553392D-01  0.115728D-01  0.594395D-02 -0.757246D-03 -0.117921D-03
     17 -0.209691D+00 -0.258286D-01 -0.129265D-01 -0.383768D-01  0.140571D-02
     18 -0.463450D-02 -0.695412D-01 -0.815681D-02 -0.234033D-01  0.910137D-02
     19 -0.309267D-02  0.764939D-02  0.154012D-02  0.202491D-02 -0.524496D-03
     20 -0.573427D-02  0.117761D-01  0.421568D-04  0.141446D-03 -0.282492D-03
     21  0.386922D-03  0.368117D-03 -0.117218D-02  0.191619D-03  0.308010D-03
     22 -0.141112D-01  0.487941D-01 -0.104056D-01  0.232073D-02  0.330812D-02
     23 -0.810112D-01 -0.128610D-01  0.159843D-01  0.156779D-02 -0.450678D-02
     24 -0.150854D-01 -0.729290D-01  0.228894D-01 -0.545791D-03 -0.233037D-02
     25  0.212546D-01  0.209673D-01 -0.371260D-02 -0.926078D-03  0.104138D-03
     26  0.629708D-02 -0.230753D-02 -0.212748D-02  0.503154D-03  0.110143D-02
     27 -0.256953D-02  0.845193D-03  0.764301D-03 -0.471474D-03  0.712591D-05
     28  0.693443D-03  0.331176D-03 -0.340497D-03  0.135096D-03  0.402778D-04
     29 -0.103193D-02  0.362979D-03  0.399698D-03 -0.115841D-03 -0.104210D-03
     30 -0.691820D-03 -0.179998D-02  0.613335D-03 -0.152549D-03 -0.481413D-04
     31  0.148756D-02 -0.552053D-03  0.267483D-03 -0.431313D-03 -0.513170D-04
     32 -0.228477D-02  0.155055D-03  0.255997D-04  0.117028D-03  0.105874D-03
     33 -0.711945D-03  0.750531D-03 -0.124590D-03  0.189144D-03  0.414419D-04
     34  0.233865D-02 -0.725410D-03 -0.300906D-03  0.000000D+00  0.103682D-03
     35 -0.413632D-02 -0.134142D-02  0.659865D-03  0.205886D-03 -0.807829D-04
     36 -0.294055D-02 -0.205623D-02  0.618856D-03  0.135560D-03 -0.982348D-04
     37 -0.278736D-01 -0.169589D-02  0.362618D-03 -0.624578D-03 -0.157815D-03
     38 -0.571178D-03 -0.114068D-03  0.185882D-02  0.408869D-03 -0.652309D-03
     39  0.250049D-02  0.423356D-02  0.694498D-03  0.126994D-02  0.287473D-03
     40 -0.109308D-02 -0.152438D-02  0.227964D-03  0.148384D-03  0.331080D-03
     41 -0.168582D-03 -0.134501D-02 -0.954279D-03  0.539509D-03  0.873980D-03
     42 -0.110251D-03  0.273695D-03 -0.599418D-03  0.145057D-03  0.356669D-03
     43 -0.840434D-03 -0.141597D-03  0.114760D-03 -0.152644D-03 -0.148850D-03
     44 -0.149682D-02  0.127741D-03 -0.221885D-03  0.103006D-03  0.940855D-04
     45  0.819863D-03 -0.815415D-03 -0.227726D-03 -0.229807D-04  0.633974D-05
     46 -0.134716D-02 -0.249753D-02  0.145536D-03 -0.850720D-04 -0.125334D-03
     47 -0.399440D-02 -0.179492D-02 -0.116531D-03  0.675188D-04  0.269129D-03
     48  0.373876D-03 -0.863231D-03 -0.212149D-03  0.137413D-03  0.256936D-03
               16            17            18            19            20
     16  0.597701D+00
     17  0.344220D-01  0.346105D+00
     18 -0.127644D+00 -0.186469D-01  0.979056D-01
     19 -0.478963D+00 -0.359488D-02  0.115212D+00  0.494865D+00
     20  0.462823D-01 -0.443918D-01 -0.107865D-01  0.409773D-02  0.548777D-01
     21  0.113250D+00  0.534929D-03 -0.338660D-01 -0.118058D+00  0.791279D-05
     22 -0.163606D-01 -0.123800D-01  0.532233D-02 -0.327799D-03 -0.608309D-03
     23 -0.418112D-01 -0.967065D-02  0.935287D-02 -0.240072D-02 -0.710297D-02
     24  0.301287D-02  0.307956D-02  0.239066D-02 -0.127713D-02 -0.259743D-03
     25 -0.773226D-03  0.319673D-03  0.556868D-03  0.494272D-03  0.658343D-03
     26  0.595553D-04 -0.183378D-02 -0.168319D-03 -0.155271D-03 -0.289742D-03
     27  0.755234D-03 -0.786800D-03 -0.207783D-03 -0.180704D-03 -0.516021D-03
     28 -0.275885D-03  0.645311D-04 -0.250269D-03 -0.378240D-04  0.133197D-03
     29 -0.372701D-03  0.327472D-03 -0.504307D-04  0.263826D-05  0.212052D-03
     30  0.263059D-03  0.154968D-03  0.132768D-03 -0.490048D-04 -0.598964D-04
     31 -0.250791D-02  0.341394D-03  0.126911D-02 -0.196301D-03 -0.260092D-03
     32 -0.974563D-03  0.144375D-02  0.996818D-03 -0.603795D-04  0.637601D-03
     33  0.905671D-03  0.119116D-04 -0.973860D-03 -0.477298D-04  0.470802D-03
     34 -0.618853D-04  0.162222D-03  0.226540D-03  0.199043D-04  0.164988D-03
     35 -0.568458D-03  0.832958D-03  0.657756D-03 -0.569022D-04  0.994667D-04
     36 -0.219258D-03  0.104073D-03  0.231208D-03  0.393203D-05 -0.823385D-04
     37 -0.548459D-02 -0.150513D-03  0.111782D-02 -0.115997D-03 -0.138268D-02
     38  0.147631D-02  0.851800D-03 -0.886167D-03  0.184428D-03  0.305583D-03
     39  0.238029D-02  0.140457D-02 -0.155420D-03  0.602130D-03  0.471586D-03
     40  0.241672D-03  0.403350D-03  0.409579D-05 -0.215565D-04 -0.963975D-05
     41  0.144428D-03  0.809409D-03  0.668459D-03 -0.798396D-04  0.188816D-04
     42 -0.154373D-03  0.423548D-03  0.252595D-03 -0.345092D-04 -0.282078D-04
     43 -0.604309D-03 -0.237907D-03 -0.311028D-03 -0.973547D-04 -0.110189D-03
     44 -0.107873D-02 -0.289861D-03  0.377196D-04 -0.159886D-03 -0.162243D-03
     45  0.326735D-03  0.146051D-03  0.176784D-03 -0.569867D-04  0.365493D-04
     46 -0.660184D-03 -0.402715D-03  0.144032D-03  0.285734D-04 -0.958932D-04
     47 -0.135280D-02 -0.206649D-03  0.440915D-03 -0.901092D-04 -0.319571D-03
     48  0.191764D-04  0.803513D-04  0.183711D-03  0.297533D-04  0.205486D-04
               21            22            23            24            25
     21  0.344581D-01
     22  0.704570D-04  0.494587D+00
     23  0.358680D-03  0.469013D-01  0.483159D+00
     24  0.289148D-03 -0.109962D+00  0.127938D+00  0.235681D+00
     25  0.276948D-03 -0.106593D+00  0.340955D-01  0.386815D-01  0.542573D+00
     26 -0.184329D-03  0.345413D-01 -0.150851D+00 -0.628429D-01  0.424439D-01
     27  0.237605D-03  0.420405D-01 -0.626091D-01 -0.970388D-01  0.943708D-02
     28  0.103129D-03 -0.309740D-02 -0.118039D-02  0.160953D-01 -0.397708D-01
     29  0.120042D-03  0.238428D-02  0.470503D-02 -0.240305D-01 -0.924904D-03
     30 -0.540301D-04  0.798244D-02 -0.491291D-02 -0.187094D-01 -0.336802D-02
     31 -0.152344D-03  0.957103D-02  0.124245D-01 -0.355085D-02 -0.113662D+00
     32  0.398818D-03 -0.108945D-01 -0.206964D-01  0.556721D-03 -0.111588D+00
     33  0.432360D-04 -0.114505D-01 -0.175153D-01  0.302649D-03  0.122421D-01
     34  0.312398D-04 -0.150474D-01  0.301829D-02  0.219611D-02 -0.274759D+00
[...]
    Z8       -0.26773   0.00000   0.00000  -0.00030  -0.00034  -0.26808
    X9       -3.35602   0.00000   0.00000   0.00079   0.00072  -3.35530
    Y9        1.95089   0.00000   0.00000  -0.00053  -0.00052   1.95037
    Z9        1.28152   0.00001   0.00000   0.00098   0.00089   1.28241
   X10       -3.37589   0.00000   0.00000   0.00378   0.00363  -3.37226
   Y10        1.43985   0.00000   0.00000  -0.00023  -0.00022   1.43963
   Z10        3.29968   0.00000   0.00000   0.00110   0.00100   3.30068
   X11       -2.35996   0.00000   0.00000  -0.00041  -0.00046  -2.36043
   Y11        3.74367   0.00000   0.00000   0.00000   0.00001   3.74367
   Z11        1.09981   0.00000   0.00000  -0.00049  -0.00055   1.09926
   X12       -5.33253   0.00000   0.00000  -0.00005  -0.00010  -5.33263
   Y12        2.21802   0.00000   0.00000  -0.00174  -0.00173   2.21629
   Z12        0.72488   0.00000   0.00000   0.00350   0.00332   0.72820
   X13       -3.42976   0.00000   0.00000  -0.00061  -0.00061  -3.43036
   Y13       -2.53602   0.00000   0.00000   0.00036   0.00037  -2.53565
   Z13       -0.64912   0.00000   0.00000  -0.00104  -0.00114  -0.65026
   X14       -2.51962   0.00000   0.00000   0.00001   0.00008  -2.51954
   Y14       -3.66956   0.00000   0.00000  -0.00004  -0.00003  -3.66960
   Z14       -2.11688   0.00000   0.00000  -0.00033  -0.00039  -2.11727
   X15       -3.41885   0.00000   0.00000  -0.00226  -0.00233  -3.42118
   Y15       -3.67696   0.00000   0.00000   0.00050   0.00050  -3.67646
   Z15        1.09064   0.00000   0.00000  -0.00094  -0.00104   1.08960
   X16       -5.41691   0.00000   0.00000  -0.00017  -0.00014  -5.41705
   Y16       -2.26871   0.00000   0.00000   0.00099   0.00100  -2.26771
   Z16       -1.16671   0.00000   0.00000  -0.00244  -0.00262  -1.16933
         Item               Value     Threshold  Converged?
 Maximum Force            0.000005     0.000450     YES
 RMS     Force            0.000002     0.000300     YES
 Maximum Displacement     0.003627     0.001800     NO 
 RMS     Displacement     0.001146     0.001200     YES
 Predicted change in Energy=-1.414077D-08
 GradGradGradGradGradGradGradGradGradGradGradGradGradGradGradGradGradGrad


 Test job not archived.
 1\1\GINC-NODE49\Freq\UB3LYP\CBSB7\C4H9O3(2)\NYEE\15-Jul-2014\0\\# freq
  nosymm b3lyp/cbsb7 iop(7/33=1)\\Title Card Required\\0,2\O,2.436834,-
 0.58094,0.219287\H,2.811124,-0.177552,1.013542\O,1.010192,-0.56394,0.5
 9879\C,0.316901,0.071546,-0.491089\H,0.557312,-0.504691,-1.395749\O,0.
 711551,1.40631,-0.633907\H,1.649912,1.385108,-0.853684\C,-1.129495,-0.
 032383,-0.141679\C,-1.775928,1.032367,0.678151\H,-1.786443,0.761937,1.
 746114\H,-1.248839,1.981063,0.581992\H,-2.821852,1.173726,0.38359\C,-1
 .814949,-1.342005,-0.343501\H,-1.333323,-1.94185,-1.120205\H,-1.809178
 ,-1.945765,0.577142\H,-2.866503,-1.200549,-0.617397\\Version=AM64L-G03
 RevD.01\HF=-383.4790782\S2=0.754115\S2-1=0.\S2A=0.750013\RMSD=5.158e-0
 9\RMSF=2.255e-06\ZeroPoint=0.1294737\Thermal=0.1390429\Dipole=0.128807
 5,0.1024303,0.0881412\DipoleDeriv=-0.9950991,0.0900818,-0.0971919,0.00
 19509,-0.3037972,0.1363355,-0.049967,0.1301876,-0.1783686,0.2625651,-0
 .0014996,0.0332729,-0.0012301,0.2905255,-0.0722457,0.0876843,-0.082260
 5,0.2060365,0.294942,0.0218862,-0.0604885,0.0045593,-0.403317,0.054008
 2,-0.1368488,0.1406192,-0.4979205,0.8558677,0.1337165,0.0153026,0.0190
 642,1.0008024,-0.2321952,0.2304132,-0.2399693,0.7885508,-0.0339242,0.0
 324781,0.0634629,0.0242345,-0.0933016,-0.0954676,-0.018491,-0.073568,-
 0.1264002,-0.4858537,-0.2932428,0.0213099,-0.1968026,-0.9235293,0.1935
 193,-0.0468766,0.1045357,-0.5320446,0.1857217,0.0091065,0.0399223,0.09
 03072,0.2913133,-0.0618781,0.0085754,-0.0523766,0.3433531,-0.0909731,0
 .0188642,-0.0465758,0.1370475,0.1876175,0.1646343,-0.2268776,0.1837319
 ,-0.1219466,0.0268909,-0.0187664,0.0419859,-0.0771334,-0.0375351,-0.05
 32595,0.0620615,-0.1212302,0.083691,0.0621581,0.028879,0.0015438,0.024
 9903,0.0228566,0.0639079,0.0538196,0.006758,-0.1488854,0.0808682,-0.07
 21825,-0.0054206,-0.045551,-0.0614519,-0.0109788,-0.0093568,0.0111343,
 0.0763893,-0.1597562,0.0508142,-0.0406549,0.0311954,0.0549381,-0.02190
 69,-0.0617854,0.0031016,0.0466406,0.0641836,-0.0374404,0.0239587,-0.01
 52274,-0.023597,-0.0589222,0.0962935,0.0015394,0.1259825,0.0271224,0.0
 580068,0.0882433,0.026106,-0.0115004,-0.0729156,0.0531302,-0.1077668,-
 0.0419049,0.0626271,-0.0155595,-0.017999,-0.0560902,-0.0313206,0.05406
 28,0.0192441,0.1080238,-0.086119,-0.1573404,-0.0051422,-0.0606717,0.03
 25794,0.0412965,0.0133018,-0.0610187,-0.0124601,0.0629459\Polar=78.229
 0549,0.634442,56.0631991,-0.9710381,2.7493953,49.814976\PG=C01 [X(C4H9
 O3)]\NImag=0\\0.29250512,0.06532914,0.11266325,0.11951792,0.18566223,0
 .43255714,-0.09039785,-0.06295706,-0.11263527,0.12673211,-0.08080133,-
 0.09324987,-0.18356647,0.07634417,0.09177774,-0.16175712,-0.18410391,-
 0.36899994,0.14197380,0.17773159,0.35974149,-0.15620072,-0.02195642,0.
 02718865,-0.02863886,0.00127418,0.01986824,0.26813157,0.00547823,-0.01
 790510,0.00148854,-0.01239987,0.00112516,0.00571467,-0.00057222,0.1118
 7141,0.04453942,-0.00038290,-0.08077538,-0.03104558,0.00458383,0.01167
 347,0.00408628,-0.07594939,0.26094342,-0.04467846,0.01255062,-0.027409
 16,-0.00866098,0.00341986,-0.00050924,-0.05486849,-0.01816654,0.021569
 55,0.51351106,0.00433061,-0.00843113,-0.00245697,-0.00236788,0.0026074
 2,0.00092096,0.00780662,-0.05779595,0.01654496,0.04089604,0.47538846,0
 .00886102,0.00040354,0.01389926,0.00182899,0.00008418,-0.00388257,-0.0
 4043358,0.02411980,-0.14786801,-0.11137371,0.11207157,0.48338403,0.003
 80675,-0.00080410,-0.00001609,0.00033393,0.00008937,0.00003063,-0.0004
 0280,-0.00049927,-0.02604527,-0.06842632,0.02725770,0.05893936,0.07084
 558,-0.00079687,-0.00028560,-0.00124989,-0.00030681,-0.00035417,0.0002
 6318,0.00302632,0.00875750,0.01999303,0.02509333,-0.10794586,-0.103508
 45,-0.02866746,0.13466656,0.00112536,0.00016283,0.00281126,0.00072287,
 0.00005833,0.00095739,-0.00535109,-0.00105658,-0.04328863,0.04873744,-
 0.10441771,-0.20399876,-0.04799614,0.10702949,0.23563012,0.00430710,0.
 00664435,-0.00238034,0.00143577,-0.00100280,0.00030171,0.00487867,0.01
 422884,-0.00227201,-0.10881660,-0.05533921,0.01157282,0.00594395,-0.00
 075725,-0.00011792,0.59770057,-0.00111628,0.00294346,-0.00092234,-0.00
 056817,-0.00163705,-0.00053353,0.00674933,-0.04721621,0.03937245,-0.01
 108550,-0.20969058,-0.02582857,-0.01292650,-0.03837680,0.00140571,0.03
 442200,0.34610459,0.00088031,-0.00012215,0.00028148,0.00074454,-0.0009
 9642,0.00094709,0.00128517,0.04754010,-0.00685900,0.00959871,-0.004634
 50,-0.06954122,-0.00815681,-0.02340329,0.00910137,-0.12764357,-0.01864
 689,0.09790560,-0.00089033,-0.00043612,0.00000302,0.00009620,0.0004969
 1,-0.00051365,-0.00109884,0.00332017,-0.00275808,-0.01529515,-0.003092
 67,0.00764939,0.00154012,0.00202491,-0.00052450,-0.47896260,-0.0035948
 8,0.11521213,0.49486469,0.00105980,0.00195363,-0.00189696,0.00086490,0
 .00027506,0.00012009,-0.00154500,-0.00052083,0.00100855,-0.04929157,-0
 .00573427,0.01177609,0.00004216,0.00014145,-0.00028249,0.04628225,-0.0
 4439184,-0.01078647,0.00409773,0.05487774,-0.00146574,-0.00306550,0.00
 061513,-0.00089716,0.00175137,-0.00140813,0.00247758,-0.00045484,-0.00
 117934,0.00559579,0.00038692,0.00036812,-0.00117218,0.00019162,0.00030
 801,0.11324990,0.00053493,-0.03386598,-0.11805806,0.00000791,0.0344581
 1,-0.00695308,0.00111172,-0.00265100,-0.00054803,0.00009155,0.00052026
 ,-0.03129927,0.01034057,-0.01064456,-0.19217357,-0.01411124,0.04879407
 ,-0.01040557,0.00232073,0.00330812,-0.01636055,-0.01238003,0.00532233,
 -0.00032780,-0.00060831,0.00007046,0.49458702,0.00763327,0.00177918,0.
 00324882,0.00135851,-0.00052670,-0.00024271,0.00495154,0.00131266,-0.0
 0563942,-0.00481433,-0.08101117,-0.01286098,0.01598430,0.00156779,-0.0
 0450678,-0.04181123,-0.00967065,0.00935287,-0.00240072,-0.00710297,0.0
 0035868,0.04690126,0.48315930,-0.01465052,0.00144798,-0.00081748,-0.00
 081195,0.00060646,0.00130532,-0.00788282,-0.00158504,0.00700542,0.0521
 2933,-0.01508538,-0.07292896,0.02288938,-0.00054579,-0.00233037,0.0030
 1287,0.00307956,0.00239066,-0.00127713,-0.00025974,0.00028915,-0.10996
 176,0.12793775,0.23568113,-0.00026820,-0.00031185,-0.00063857,-0.00016
 688,0.00001705,-0.00011645,0.00100042,-0.00038380,0.00175197,-0.012904
 64,0.02125461,0.02096733,-0.00371260,-0.00092608,0.00010414,-0.0007732
 3,0.00031967,0.00055687,0.00049427,0.00065834,0.00027695,-0.10659326,0
 .03409553,0.03868149,0.54257344,-0.00179001,-0.00000457,-0.00011811,-0
 .00006078,0.00017449,0.00015814,0.00024860,-0.00040514,0.00019370,0.00
 628487,0.00629708,-0.00230753,-0.00212748,0.00050315,0.00110143,0.0000
 5956,-0.00183378,-0.00016832,-0.00015527,-0.00028974,-0.00018433,0.034
 54129,-0.15085131,-0.06284287,0.04244387,0.52863669,-0.00023213,-0.000
 21995,-0.00010540,-0.00016577,-0.00014611,-0.00003693,0.00101141,-0.00
 002194,0.00008092,0.00281572,-0.00256953,0.00084519,0.00076430,-0.0004
 7147,0.00000713,0.00075523,-0.00078680,-0.00020778,-0.00018070,-0.0005
 1602,0.00023761,0.04204055,-0.06260908,-0.09703876,0.00943708,-0.01518
 466,0.46421505,-0.00007980,0.00000747,-0.00043612,-0.00013794,0.000050
 54,0.00006678,-0.00053696,0.00011848,-0.00012266,0.00077664,0.00069344
 ,0.00033118,-0.00034050,0.00013510,0.00004028,-0.00027588,0.00006453,-
 0.00025027,-0.00003782,0.00013320,0.00010313,-0.00309740,-0.00118039,0
 .01609526,-0.03977076,-0.00260225,0.00139262,0.04383045,0.00046563,-0.
 00005396,0.00018233,0.00005190,-0.00000770,-0.00002802,0.00009488,0.00
 001016,-0.00011171,-0.00155269,-0.00103193,0.00036298,0.00039970,-0.00
 011584,-0.00010421,-0.00037270,0.00032747,-0.00005043,0.00000264,0.000
 21205,0.00012004,0.00238428,0.00470503,-0.02403054,-0.00092490,-0.0595
 0290,0.05587003,-0.00191032,0.06333380,0.00133549,-0.00002165,0.000237
 31,0.00008730,-0.00004460,-0.00014470,-0.00080396,0.00004985,0.0005721
 7,-0.00268570,-0.00069182,-0.00179998,0.00061333,-0.00015255,-0.000048
 14,0.00026306,0.00015497,0.00013277,-0.00004900,-0.00005990,-0.0000540
 3,0.00798244,-0.00491291,-0.01870944,-0.00336802,0.06625941,-0.2636986
 5,-0.00189472,-0.06503355,0.29556872,-0.00036534,-0.00011991,0.0000557
 5,-0.00009839,0.00009881,-0.00004311,0.00023684,-0.00053705,0.00014088
 ,0.00071652,0.00148756,-0.00055205,0.00026748,-0.00043131,-0.00005132,
 -0.00250791,0.00034139,0.00126911,-0.00019630,-0.00026009,-0.00015234,
 0.00957103,0.01242445,-0.00355085,-0.11366186,-0.11495254,0.01172096,0
 .00013658,0.00158575,-0.00021441,0.11919591,0.00046214,0.00015219,-0.0
 0010634,0.00008776,-0.00008496,0.00000454,-0.00030631,0.00053193,0.000
 04934,-0.00240300,-0.00228477,0.00015506,0.00002560,0.00011703,0.00010
 587,-0.00097456,0.00144375,0.00099682,-0.00006038,0.00063760,0.0003988
 2,-0.01089452,-0.02069637,0.00055672,-0.11158817,-0.25008955,0.0213647
 1,-0.00370156,-0.00654440,0.00145898,0.12411423,0.27281929,0.00006891,
 0.00006551,-0.00014848,-0.00000298,0.00000936,0.00006972,-0.00027738,0
 .00032561,-0.00029135,-0.00035213,-0.00071195,0.00075053,-0.00012459,0
 .00018914,0.00004144,0.00090567,0.00001191,-0.00097386,-0.00004773,0.0
 0047080,0.00004324,-0.01145050,-0.01751526,0.00030265,0.01224206,0.023
 95976,-0.04696453,0.01592914,0.02730947,-0.00274801,-0.01537909,-0.021
 45185,0.05147294,-0.00059122,-0.00001799,-0.00030339,-0.00003229,0.000
 00565,0.00007492,-0.00007336,0.00003747,0.00040459,0.00033054,0.002338
 65,-0.00072541,-0.00030091,-0.00000070,0.00010368,-0.00006189,0.000162
 22,0.00022654,0.00001990,0.00016499,0.00003124,-0.01504740,0.00301829,
 0.00219611,-0.27475904,0.02665737,-0.07008547,-0.00079681,-0.00023352,
 -0.00128322,-0.01263991,0.00257594,-0.00412731,0.30226810,0.00089035,0
 .00007919,0.00013953,0.00009761,-0.00005695,-0.00004545,-0.00053415,0.
 00033327,-0.00039063,-0.00054236,-0.00413632,-0.00134142,0.00065986,0.
 00020589,-0.00008078,-0.00056846,0.00083296,0.00065776,-0.00005690,0.0
 0009947,0.00019293,0.02270480,-0.00191225,0.00385583,0.02894861,-0.052
 48757,0.00860835,0.00832392,-0.00120924,0.00367385,-0.02554259,0.00610
 252,-0.00927993,-0.03409279,0.05132979,0.00043225,0.00005961,0.0002265
 0,0.00011818,-0.00002373,-0.00002812,-0.00037282,0.00014678,-0.0001672
 9,0.00125856,-0.00294055,-0.00205623,0.00061886,0.00013556,-0.00009823
 ,-0.00021926,0.00010407,0.00023121,0.00000393,-0.00008234,-0.00011090,
 0.02079390,-0.00327034,0.00279526,-0.06897014,0.00839021,-0.05960845,-
 0.03073584,0.00379463,-0.01021288,0.00407019,-0.00111938,-0.00020156,0
 .07330858,-0.00637317,0.06883204,0.00064979,0.00043119,0.00008191,0.00
 014395,-0.00005992,0.00002003,-0.00080669,-0.00073254,0.00030376,-0.01
 100401,-0.02787355,-0.00169589,0.00036262,-0.00062458,-0.00015782,-0.0
 0548459,-0.00015051,0.00111782,-0.00011600,-0.00138268,-0.00000871,-0.
 11031754,-0.05481671,0.00259435,0.00893853,0.01205253,-0.00080114,0.00
 012157,-0.00012618,0.00035882,-0.00135379,0.00330524,0.00247831,0.0005
 2143,0.00076260,0.00030588,0.53728568,0.00140825,-0.00019703,-0.000135
 16,-0.00000951,-0.00002018,-0.00013573,-0.00080305,-0.00032494,0.00018
 796,-0.00613486,-0.00057118,-0.00011407,0.00185882,0.00040887,-0.00065
 231,0.00147631,0.00085180,-0.00088617,0.00018443,0.00030558,-0.0000682
 3,-0.05912356,-0.18324060,-0.02829603,-0.00844459,-0.01981833,-0.00310
 503,-0.00070227,0.00071518,0.00057470,0.00131575,-0.00143586,-0.002255
 77,-0.00119989,0.00089167,0.00077721,-0.03294356,0.48309368,0.00155853
 ,0.00025110,0.00037973,0.00015398,-0.00008441,-0.00022647,-0.00021380,
 -0.00032612,-0.00028976,-0.00104001,0.00250049,0.00423356,0.00069450,0
 .00126994,0.00028747,0.00238029,0.00140457,-0.00015542,0.00060213,0.00
 047159,0.00028475,0.00255629,-0.03104496,-0.06358575,-0.00991885,-0.01
 976756,0.00181518,-0.00019093,0.00131571,0.00091194,0.00205221,-0.0024
 8518,-0.00147705,0.00005700,0.00088231,0.00034733,-0.02008403,0.029032
 09,0.51146221,-0.00022637,-0.00000521,-0.00000408,-0.00005035,-0.00000
 271,-0.00000831,0.00017858,0.00004514,0.00011691,0.00048225,-0.0010930
 8,-0.00152438,0.00022796,0.00014838,0.00033108,0.00024167,0.00040335,0
 .00000410,-0.00002156,-0.00000964,-0.00003787,0.00769042,-0.00711554,-
 0.01183694,-0.00113001,-0.00214052,0.00042057,-0.00011201,0.00015202,0
 .00016677,0.00049293,-0.00064862,-0.00014140,0.00035209,-0.00028469,0.
 00007056,-0.10219262,0.06222297,0.08318424,0.10605627,-0.00044833,-0.0
 0000708,-0.00002606,-0.00005842,-0.00000007,0.00000401,0.00035567,0.00
 014100,0.00056169,0.00220585,-0.00016858,-0.00134501,-0.00095428,0.000
 53951,0.00087398,0.00014443,0.00080941,0.00066846,-0.00007984,0.000018
 88,-0.00008835,0.01433811,-0.01814636,-0.02003589,-0.00436946,-0.00361
 516,0.00005597,0.00002852,0.00004061,-0.00030062,0.00066544,-0.0010323
 1,-0.00109866,-0.00017654,0.00034256,0.00025239,0.06122562,-0.12058164
 ,-0.10079744,-0.06629442,0.13472847,-0.00048468,0.00010793,-0.00003274
 ,-0.00002454,-0.00001207,0.00002065,0.00014409,0.00035387,-0.00012199,
 0.00158680,-0.00011025,0.00027370,-0.00059942,0.00014506,0.00035667,-0
 .00015437,0.00042355,0.00025259,-0.00003451,-0.00002821,0.00002195,0.0
 0080287,-0.00121139,-0.00252428,-0.00101107,-0.00028594,0.00088654,-0.
 00001666,0.00032047,0.00019804,0.00044647,-0.00013439,-0.00000751,0.00
 016718,-0.00002444,-0.00001379,0.08221759,-0.10242377,-0.17788834,-0.0
 9248528,0.11142199,0.19155268,-0.00005829,0.00034962,-0.00033917,-0.00
 005439,-0.00004026,0.00001276,-0.00046406,0.00006125,-0.00010205,0.000
 82169,-0.00084043,-0.00014160,0.00011476,-0.00015264,-0.00014885,-0.00
 060431,-0.00023791,-0.00031103,-0.00009735,-0.00011019,0.00006854,-0.0
 0291233,-0.01119559,0.01269505,0.00010337,0.00061382,0.00028916,0.0002
 3919,-0.00010795,-0.00036032,-0.00009593,0.00001922,-0.00003354,0.0000
 7986,-0.00004919,-0.00023402,-0.03967769,0.00267162,-0.00080336,-0.000
 28389,-0.00816736,0.01296874,0.04412017,-0.00132779,0.00027562,-0.0002
 2872,-0.00007044,-0.00000236,0.00011036,0.00074131,0.00002471,-0.00021
 119,0.00334310,-0.00149682,0.00012774,-0.00022188,0.00010301,0.0000940
 9,-0.00107873,-0.00028986,0.00003772,-0.00015989,-0.00016224,-0.000120
 49,-0.00728407,-0.02153818,0.02003983,-0.00015732,0.00176233,-0.000441
 18,0.00033128,-0.00075550,-0.00103272,-0.00026039,0.00013171,-0.000370
 04,0.00000864,-0.00013683,0.00014056,0.00532991,-0.11022853,0.11306376
 ,-0.00051409,0.00983606,-0.01452395,0.00013801,0.12520901,0.00062664,-
 0.00016209,-0.00011020,-0.00002839,0.00002490,-0.00002913,-0.00075195,
 -0.00026400,0.00028147,-0.00101564,0.00081986,-0.00081541,-0.00022773,
 -0.00002298,0.00000634,0.00032674,0.00014605,0.00017678,-0.00005699,0.
 00003655,0.00000986,0.00424346,0.00139875,0.00798908,0.00028900,0.0004
 0960,-0.00015995,-0.00017527,0.00022246,-0.00004141,-0.00002101,0.0001
 7738,0.00009069,-0.00017936,-0.00007462,-0.00008739,-0.00498556,0.1028
 9276,-0.21508502,-0.00077602,0.01194372,-0.02006953,0.00358594,-0.1218
 2473,0.23586340,-0.00055910,0.00018457,-0.00003406,0.00004399,0.000018
 94,0.00007875,-0.00003603,-0.00033886,0.00007683,0.00018952,-0.0013471
 6,-0.00249753,0.00014554,-0.00008507,-0.00012533,-0.00066018,-0.000402
 72,0.00014403,0.00002857,-0.00009589,-0.00008150,-0.01581267,-0.003032
 64,-0.00032187,0.00063045,0.00092693,0.00081761,0.00008146,0.00009149,
 -0.00014787,0.00030214,-0.00001301,0.00031255,0.00073090,-0.00071663,-
 0.00044881,-0.27707064,0.03822316,-0.06098821,-0.01170536,0.00158502,-
 0.00352320,-0.00123079,0.00118235,-0.00085386,0.30492222,-0.00077682,0
 .00028783,-0.00001442,-0.00000592,-0.00001985,0.00006180,0.00046870,0.
 00006038,0.00018973,0.00019718,-0.00399440,-0.00179492,-0.00011653,0.0
 0006752,0.00026913,-0.00135280,-0.00020665,0.00044091,-0.00009011,-0.0
 0031957,0.00003851,-0.03033256,0.00217259,-0.00484284,-0.00063151,0.00
 152429,0.00017272,0.00021033,-0.00012285,0.00007856,0.00007053,0.00023
 220,0.00034189,0.00075221,-0.00027817,0.00000849,0.03560313,-0.0498484
 9,0.00431412,0.01513666,-0.00290529,0.00598155,0.01704799,-0.00273211,
 0.00427639,-0.03618048,0.05608257,-0.00035567,-0.00008257,-0.00001819,
 -0.00001802,0.00002379,0.00004088,0.00002598,-0.00008129,0.00028388,0.
 00109370,0.00037388,-0.00086323,-0.00021215,0.00013741,0.00025694,0.00
 001918,0.00008035,0.00018371,0.00002975,0.00002055,-0.00001752,-0.0017
 2694,0.00151697,0.00017636,-0.00028378,0.00038707,-0.00026717,-0.00013
 592,-0.00013968,-0.00016371,0.00020860,0.00002892,0.00004114,0.0001343
 2,-0.00040011,0.00015251,-0.06174532,0.00460755,-0.06101435,0.02252005
 ,-0.00209016,0.00709535,-0.02714627,0.00513895,-0.00801958,0.06759249,
 -0.00952162,0.06213301\\-0.00000079,-0.00000439,0.00000108,-0.00000077
 ,-0.00000481,0.00000099,-0.00000101,-0.00000327,0.00000019,0.00000067,
 -0.00000141,0.00000004,-0.00000051,0.00000039,-0.00000114,0.00000284,-
 0.00000138,0.00000262,0.00000217,-0.00000339,0.00000004,0.00000112,-0.
 00000195,0.00000263,0.00000002,0.00000468,-0.00000519,-0.00000011,0.00
 000213,-0.00000105,0.00000318,0.00000127,-0.00000025,0.00000146,0.0000
 0412,-0.00000171,-0.00000134,0.00000122,0.00000314,-0.00000294,0.00000
 138,-0.00000087,-0.00000195,0.00000195,-0.00000087,-0.00000205,0.00000
 347,0.00000034\\\@


 FROM WHENCE IT HAPPENS, THAT THEY WHICH TRUST TO BOOKS, DO AS THEY THAT CAST UP MANY LITTLE SUMMS INTO GREATER,
 WITHOUT CONSIDERING WETHER THOSE LITTLE SUMMES WERE RIGHTLY CAST UP OR NOT...
 AND AT LAST FINDING THE ERROUR VISIBLE, AND NOT MISTRUSTING THEIR FIRST GROUNDS,
 KNOW NOT WHICH WAY TO CLEERE THEMSELVES...
 BUT SPEND TIME IN FLUTTERING OVER THEIR BOOKES....
 AS BIRDS THAT ENTERING BY THE CHIMNEY, AND FINDING THEMSELVES INCLOSED IN A CHAMBER,
 FLUTTER AT THE FALSE LIGHT OF A GLASSE WINDOW,
 FOR WANT OF WIT TO CONSIDER WHICH WAY THEY CAME IN....
           LEVIATHAN
 Job cpu time:  0 days  1 hours  9 minutes 20.4 seconds.
 File lengths (MBytes):  RWF=    125 Int=      0 D2E=      0 Chk=      8 Scr=      1
 Normal termination of Gaussian 03 at Tue Jul 15 16:57:50 2014.
