 Entering Gaussian System, Link 0=g03
 Input=TS09freq.gjf
 Output=TS09freq.log
 Initial command:
 /opt/g03/l1.exe /scratch/nyee/Gau-2780.inp -scrdir=/scratch/nyee/
 Entering Link 1 = /opt/g03/l1.exe PID=      2782.
  
 Copyright (c) 1988,1990,1992,1993,1995,1998,2003,2004, Gaussian, Inc.
                  All Rights Reserved.
  
 This is the Gaussian(R) 03 program.  It is based on the
 the Gaussian(R) 98 system (copyright 1998, Gaussian, Inc.),
 the Gaussian(R) 94 system (copyright 1995, Gaussian, Inc.),
 the Gaussian 92(TM) system (copyright 1992, Gaussian, Inc.),
 the Gaussian 90(TM) system (copyright 1990, Gaussian, Inc.),
 the Gaussian 88(TM) system (copyright 1988, Gaussian, Inc.),
 the Gaussian 86(TM) system (copyright 1986, Carnegie Mellon
 University), and the Gaussian 82(TM) system (copyright 1983,
 Carnegie Mellon University). Gaussian is a federally registered
 trademark of Gaussian, Inc.
  
 This software contains proprietary and confidential information,
 including trade secrets, belonging to Gaussian, Inc.
  
 This software is provided under written license and may be
 used, copied, transmitted, or stored only in accord with that
 written license.
  
 The following legend is applicable only to US Government
 contracts under FAR:
  
                    RESTRICTED RIGHTS LEGEND
  
 Use, reproduction and disclosure by the US Government is
 subject to restrictions as set forth in subparagraphs (a)
 and (c) of the Commercial Computer Software - Restricted
 Rights clause in FAR 52.227-19.
  
 Gaussian, Inc.
 340 Quinnipiac St., Bldg. 40, Wallingford CT 06492
  
  
 ---------------------------------------------------------------
 Warning -- This program may not be used in any manner that
 competes with the business of Gaussian, Inc. or will provide
 assistance to any competitor of Gaussian, Inc.  The licensee
 of this program is prohibited from giving any competitor of
 Gaussian, Inc. access to this program.  By using this program,
 the user acknowledges that Gaussian, Inc. is engaged in the
 business of creating and licensing software in the field of
 computational chemistry and represents and warrants to the
 licensee that it is not a competitor of Gaussian, Inc. and that
 it will not use this program in any manner prohibited above.
 ---------------------------------------------------------------
  

 Cite this work as:
 Gaussian 03, Revision D.01,
 M. J. Frisch, G. W. Trucks, H. B. Schlegel, G. E. Scuseria, 
 M. A. Robb, J. R. Cheeseman, J. A. Montgomery, Jr., T. Vreven, 
 K. N. Kudin, J. C. Burant, J. M. Millam, S. S. Iyengar, J. Tomasi, 
 V. Barone, B. Mennucci, M. Cossi, G. Scalmani, N. Rega, 
 G. A. Petersson, H. Nakatsuji, M. Hada, M. Ehara, K. Toyota, 
 R. Fukuda, J. Hasegawa, M. Ishida, T. Nakajima, Y. Honda, O. Kitao, 
 H. Nakai, M. Klene, X. Li, J. E. Knox, H. P. Hratchian, J. B. Cross, 
 V. Bakken, C. Adamo, J. Jaramillo, R. Gomperts, R. E. Stratmann, 
 O. Yazyev, A. J. Austin, R. Cammi, C. Pomelli, J. W. Ochterski, 
 P. Y. Ayala, K. Morokuma, G. A. Voth, P. Salvador, J. J. Dannenberg, 
 V. G. Zakrzewski, S. Dapprich, A. D. Daniels, M. C. Strain, 
 O. Farkas, D. K. Malick, A. D. Rabuck, K. Raghavachari, 
 J. B. Foresman, J. V. Ortiz, Q. Cui, A. G. Baboul, S. Clifford, 
 J. Cioslowski, B. B. Stefanov, G. Liu, A. Liashenko, P. Piskorz, 
 I. Komaromi, R. L. Martin, D. J. Fox, T. Keith, M. A. Al-Laham, 
 C. Y. Peng, A. Nanayakkara, M. Challacombe, P. M. W. Gill, 
 B. Johnson, W. Chen, M. W. Wong, C. Gonzalez, and J. A. Pople, 
 Gaussian, Inc., Wallingford CT, 2004.
 
 ******************************************
 Gaussian 03:  AM64L-G03RevD.01 13-Oct-2005
                 8-Jul-2014 
 ******************************************
 %chk=TS09freq.chk
 %mem=1000mb
 %nproc=8
 Will use up to    8 processors via shared memory.
 -------------------------------------
 # freq nosymm b3lyp/cbsb7 iop(7/33=1)
 -------------------------------------
 1/10=4,30=1,38=1/1,3;
 2/15=1,17=6,18=5,40=1/2;
 3/5=4,6=6,7=700,11=2,16=1,25=1,30=1,74=-5/1,2,3;
 4//1;
 5/5=2,38=5/2;
 8/6=4,10=90,11=11/1;
 11/6=1,8=1,9=11,15=111,16=1,31=1/1,2,10;
 10/6=1,31=1/2;
 6/7=2,8=2,9=2,10=2,18=1,28=1/1;
 7/8=1,10=1,25=1,30=1,33=1/1,2,3,16;
 1/10=4,30=1/3;
 99//99;
 -------------------
 Title Card Required
 -------------------
 Symbolic Z-matrix:
 Charge =  0 Multiplicity = 2
 O                    -2.1773    2.47664   0.42668 
 H                    -2.52689   1.77525  -0.15466 
 C                    -0.82944   2.44886   0.2967 
 H                    -0.43303   2.67196  -0.69035 
 C                    -0.03093   2.70153   1.41401 
 C                    -0.58621   2.63168   2.7992 
 H                    -0.3366    3.53647   3.36635 
 H                    -1.6686    2.51483   2.78871 
 H                    -0.14521   1.7891    3.34823 
 C                     1.44167   2.88871   1.23957 
 H                     1.72899   2.94066   0.18774 
 H                     1.78502   3.80438   1.73664 
 H                     1.99446   2.05854   1.69826 
 O                    -0.51741   0.53428   0.01555 
 O                    -1.79308   0.02261  -0.31972 
 H                    -2.06519  -0.42591   0.49387 
 

 GradGradGradGradGradGradGradGradGradGradGradGradGradGradGradGradGradGrad
 Berny optimization.
 Initialization pass.
 Trust Radius=3.00D-01 FncErr=1.00D-07 GrdErr=1.00D-07
 Number of steps in this run=   2 maximum allowed number of steps=   2.
 GradGradGradGradGradGradGradGradGradGradGradGradGradGradGradGradGradGrad

                          Input orientation:                          
 ---------------------------------------------------------------------
 Center     Atomic     Atomic              Coordinates (Angstroms)
 Number     Number      Type              X           Y           Z
 ---------------------------------------------------------------------
    1          8             0       -2.177302    2.476642    0.426679
    2          1             0       -2.526891    1.775250   -0.154658
    3          6             0       -0.829436    2.448860    0.296700
    4          1             0       -0.433034    2.671962   -0.690347
    5          6             0       -0.030934    2.701532    1.414012
    6          6             0       -0.586205    2.631684    2.799200
    7          1             0       -0.336604    3.536474    3.366345
    8          1             0       -1.668604    2.514826    2.788713
    9          1             0       -0.145207    1.789098    3.348234
   10          6             0        1.441671    2.888710    1.239573
   11          1             0        1.728986    2.940655    0.187741
   12          1             0        1.785019    3.804379    1.736636
   13          1             0        1.994460    2.058535    1.698255
   14          8             0       -0.517414    0.534282    0.015545
   15          8             0       -1.793077    0.022612   -0.319719
   16          1             0       -2.065185   -0.425907    0.493874
 ---------------------------------------------------------------------
                    Distance matrix (angstroms):
                    1          2          3          4          5
     1  O    0.000000
     2  H    0.975764   0.000000
     3  C    1.354404   1.881177   0.000000
     4  H    2.080473   2.339934   1.086817   0.000000
     5  C    2.373246   3.090069   1.396365   2.142635   0.000000
     6  C    2.860854   3.636622   2.520931   3.493139   1.493971
     7  H    3.626713   4.505189   3.293707   4.148907   2.145266
     8  H    2.416493   3.153896   2.630339   3.695292   2.146305
     9  H    3.624584   4.235902   3.196141   4.143963   2.141684
    10  C    3.731965   4.351225   2.498080   2.699276   1.494667
    11  H    3.941001   4.425821   2.607539   2.348950   2.158295
    12  H    4.379368   5.127078   3.278143   3.477409   2.148963
    13  H    4.381246   4.894502   3.176649   3.460410   2.143936
    14  O    2.587860   2.367904   1.960106   2.252794   2.624756
    15  O    2.593646   1.907215   2.682397   3.001023   3.645214
    16  H    2.905491   2.340696   3.135321   3.696362   3.842617
                    6          7          8          9         10
     6  C    0.000000
     7  H    1.096631   0.000000
     8  H    1.088739   1.775288   0.000000
     9  H    1.098121   1.757920   1.777775   0.000000
    10  C    2.571144   2.846932   3.494772   2.858982   0.000000
    11  H    3.503611   3.837341   4.300000   3.850636   1.091604
    12  H    2.850782   2.688682   3.833709   3.222480   1.097000
    13  H    2.863636   3.225010   3.849070   2.715364   1.097796
    14  O    3.486053   4.502634   3.596978   3.580491   3.298422
    15  O    4.241633   5.296754   3.986098   4.392019   4.594508
    16  H    4.104969   5.190332   3.751196   4.091446   4.882703
                   11         12         13         14         15
    11  H    0.000000
    12  H    1.774327   0.000000
    13  H    1.769255   1.758781   0.000000
    14  O    3.296452   4.353951   3.385908   0.000000
    15  O    4.601893   5.597600   4.750015   1.414752   0.000000
    16  H    5.081652   5.853533   4.909552   1.883177   0.968063
                   16
    16  H    0.000000
 Symmetry turned off by external request.
 Stoichiometry    C4H9O3(2)
 Framework group  C1[X(C4H9O3)]
 Deg. of freedom    42
 Full point group                 C1
 Rotational constants (GHZ):      3.8081728      1.6834079      1.4656550
 Standard basis: CBSB7 (5D, 7F)
 Integral buffers will be    131072 words long.
 Raffenetti 2 integral format.
 Two-electron integral symmetry is turned off.
   180 basis functions,   296 primitive gaussians,   187 cartesian basis functions
    29 alpha electrons       28 beta electrons
       nuclear repulsion energy       322.6578478591 Hartrees.
 NAtoms=   16 NActive=   16 NUniq=   16 SFac= 7.50D-01 NAtFMM=   80 NAOKFM=F Big=F
 One-electron integrals computed using PRISM.
 NBasis=   180 RedAO= T  NBF=   180
 NBsUse=   180 1.00D-06 NBFU=   180
 Harris functional with IExCor=  402 diagonalized for initial guess.
 ExpMin= 1.03D-01 ExpMax= 8.59D+03 ExpMxC= 1.30D+03 IAcc=1 IRadAn=         1 AccDes= 1.00D-06
 HarFok:  IExCor= 402 AccDes= 1.00D-06 IRadAn=         1 IDoV=1
 ScaDFX=  1.000000  1.000000  1.000000  1.000000
 <S**2> of initial guess= 0.7500
 Requested convergence on RMS density matrix=1.00D-08 within 128 cycles.
 Requested convergence on MAX density matrix=1.00D-06.
 Requested convergence on             energy=1.00D-06.
 No special actions if energy rises.
 Integral accuracy reduced to 1.0D-05 until final iterations.
 Initial convergence to 1.0D-05 achieved.  Increase integral accuracy.
 SCF Done:  E(UB+HF-LYP) =  -383.461075696     A.U. after   19 cycles
             Convg  =    0.4003D-08             -V/T =  2.0033
             S**2   =   0.7735
 Annihilation of the first spin contaminant:
 S**2 before annihilation     0.7735,   after     0.7501
 Range of M.O.s used for correlation:     1   180
 NBasis=   180 NAE=    29 NBE=    28 NFC=     0 NFV=     0
 NROrb=    180 NOA=    29 NOB=    28 NVA=   151 NVB=   152
 Symmetrizing basis deriv contribution to polar:
 IMax=3 JMax=2 DiffMx= 0.00D+00
 G2DrvN: will do   17 centers at a time, making    1 passes doing MaxLOS=2.
 FoFDir/FoFCou used for L=0 through L=2.
 DoAtom=TTTTTTTTTTTTTTTT
          Differentiating once with respect to electric field.
                with respect to dipole field.
          Differentiating once with respect to nuclear coordinates.
 Symmetry not used in FoFDir.
 MinBra= 0 MaxBra= 2 Meth= 1.
 IRaf=       0 NMat=  51 IRICut=      51 DoRegI=T DoRafI=T ISym2E= 0 JSym2E=0.
          There are  51 degrees of freedom in the 1st order CPHF.
    48 vectors were produced by pass  0.
 AX will form  48 AO Fock derivatives at one time.
    48 vectors were produced by pass  1.
    48 vectors were produced by pass  2.
    48 vectors were produced by pass  3.
    48 vectors were produced by pass  4.
    48 vectors were produced by pass  5.
    30 vectors were produced by pass  6.
     5 vectors were produced by pass  7.
     3 vectors were produced by pass  8.
 Inv2:  IOpt= 1 Iter= 1 AM= 2.67D-15 Conv= 1.00D-12.
 Inverted reduced A of dimension  326 with in-core refinement.
 Isotropic polarizability for W=    0.000000       70.36 Bohr**3.
 End of Minotr Frequency-dependent properties file   721 does not exist.

 **********************************************************************

            Population analysis using the SCF density.

 **********************************************************************

 Alpha  occ. eigenvalues --  -19.18175 -19.14764 -19.13856 -10.25241 -10.19885
 Alpha  occ. eigenvalues --  -10.17536 -10.17035  -1.11456  -1.05612  -0.84994
 Alpha  occ. eigenvalues --   -0.81753  -0.70752  -0.68825  -0.55867  -0.54014
 Alpha  occ. eigenvalues --   -0.51531  -0.47469  -0.46951  -0.44092  -0.42464
 Alpha  occ. eigenvalues --   -0.40805  -0.39917  -0.38823  -0.37730  -0.36627
 Alpha  occ. eigenvalues --   -0.32514  -0.28333  -0.26339  -0.20704
 Alpha virt. eigenvalues --    0.01853   0.03344   0.03964   0.07967   0.08422
 Alpha virt. eigenvalues --    0.08872   0.10719   0.11124   0.11271   0.13721
 Alpha virt. eigenvalues --    0.15593   0.18502   0.22559   0.25543   0.26571
 Alpha virt. eigenvalues --    0.28480   0.32689   0.34260   0.37086   0.37922
 Alpha virt. eigenvalues --    0.40494   0.40963   0.42012   0.46450   0.51034
 Alpha virt. eigenvalues --    0.52411   0.53828   0.54125   0.55581   0.58357
 Alpha virt. eigenvalues --    0.58660   0.59798   0.60390   0.63922   0.65311
 Alpha virt. eigenvalues --    0.66515   0.68544   0.74728   0.78108   0.80501
 Alpha virt. eigenvalues --    0.82171   0.84449   0.86696   0.90111   0.91034
 Alpha virt. eigenvalues --    0.93109   0.96087   0.96312   0.98333   1.06099
 Alpha virt. eigenvalues --    1.12357   1.19959   1.21452   1.27404   1.30868
 Alpha virt. eigenvalues --    1.34435   1.34829   1.34883   1.36952   1.43087
 Alpha virt. eigenvalues --    1.44695   1.45107   1.45842   1.47610   1.50168
 Alpha virt. eigenvalues --    1.51673   1.52152   1.55701   1.58331   1.60447
 Alpha virt. eigenvalues --    1.62260   1.63462   1.68297   1.68622   1.73956
 Alpha virt. eigenvalues --    1.74692   1.78377   1.83006   1.89142   1.91423
 Alpha virt. eigenvalues --    1.92672   1.95666   1.97239   2.01420   2.08245
 Alpha virt. eigenvalues --    2.09872   2.10383   2.14952   2.27561   2.28688
 Alpha virt. eigenvalues --    2.29669   2.33064   2.36390   2.38687   2.42093
 Alpha virt. eigenvalues --    2.43355   2.43958   2.47900   2.48959   2.49493
 Alpha virt. eigenvalues --    2.53454   2.56203   2.57730   2.59158   2.60406
 Alpha virt. eigenvalues --    2.62810   2.69181   2.73870   2.74613   2.76269
 Alpha virt. eigenvalues --    2.82585   2.89301   2.96068   2.98043   3.00993
 Alpha virt. eigenvalues --    3.08613   3.09704   3.14433   3.16203   3.21202
 Alpha virt. eigenvalues --    3.27277   3.30179   3.31993   3.40398   3.56019
 Alpha virt. eigenvalues --    3.65008   3.73344   3.77086   3.79209   3.80774
 Alpha virt. eigenvalues --    3.82244   3.83647   3.89787   4.25900   4.27703
 Alpha virt. eigenvalues --    4.66384   4.75303   4.84360   4.89493   4.94412
 Alpha virt. eigenvalues --    5.28939   5.36550   5.66225   5.68246  23.62384
 Alpha virt. eigenvalues --   23.89392  23.94438  24.00456  49.75039  49.78894
 Alpha virt. eigenvalues --   49.91252
  Beta  occ. eigenvalues --  -19.17906 -19.13863 -19.13591 -10.25382 -10.18968
  Beta  occ. eigenvalues --  -10.17590 -10.17087  -1.10326  -1.05558  -0.83094
  Beta  occ. eigenvalues --   -0.80224  -0.70589  -0.68580  -0.55191  -0.53676
  Beta  occ. eigenvalues --   -0.50916  -0.47094  -0.45909  -0.43026  -0.41684
  Beta  occ. eigenvalues --   -0.40452  -0.39459  -0.38438  -0.36836  -0.35700
  Beta  occ. eigenvalues --   -0.32120  -0.25662  -0.24554
  Beta virt. eigenvalues --   -0.09839   0.02530   0.04121   0.04939   0.08016
  Beta virt. eigenvalues --    0.08579   0.09511   0.10964   0.11286   0.11579
  Beta virt. eigenvalues --    0.13926   0.15615   0.19313   0.22740   0.25792
  Beta virt. eigenvalues --    0.26739   0.28766   0.33256   0.34456   0.37152
  Beta virt. eigenvalues --    0.38119   0.40606   0.41374   0.42553   0.47036
  Beta virt. eigenvalues --    0.51362   0.53663   0.54087   0.55663   0.56098
  Beta virt. eigenvalues --    0.58401   0.58793   0.59940   0.60396   0.64189
  Beta virt. eigenvalues --    0.65635   0.67144   0.68781   0.75404   0.78491
  Beta virt. eigenvalues --    0.81007   0.82508   0.84836   0.87590   0.90505
  Beta virt. eigenvalues --    0.91589   0.93394   0.96431   0.97250   0.99104
  Beta virt. eigenvalues --    1.06288   1.13421   1.19942   1.21630   1.27753
  Beta virt. eigenvalues --    1.31161   1.34626   1.35228   1.35451   1.37955
  Beta virt. eigenvalues --    1.43570   1.44983   1.45368   1.46099   1.47810
  Beta virt. eigenvalues --    1.50471   1.51897   1.52362   1.56214   1.59033
  Beta virt. eigenvalues --    1.60873   1.62942   1.63579   1.68595   1.68990
  Beta virt. eigenvalues --    1.74472   1.75114   1.78771   1.83672   1.89647
  Beta virt. eigenvalues --    1.92274   1.92905   1.96240   1.97622   2.01795
  Beta virt. eigenvalues --    2.08498   2.10393   2.11014   2.15102   2.27954
  Beta virt. eigenvalues --    2.29059   2.30796   2.33273   2.36662   2.38946
  Beta virt. eigenvalues --    2.42462   2.43786   2.44490   2.48179   2.49052
  Beta virt. eigenvalues --    2.49762   2.54157   2.56809   2.58233   2.59495
  Beta virt. eigenvalues --    2.60953   2.63874   2.69797   2.74154   2.75309
  Beta virt. eigenvalues --    2.76764   2.83005   2.92196   2.96621   2.99702
  Beta virt. eigenvalues --    3.02139   3.09260   3.10307   3.15421   3.16852
  Beta virt. eigenvalues --    3.23002   3.27780   3.30700   3.32374   3.40517
  Beta virt. eigenvalues --    3.56227   3.65679   3.73544   3.77157   3.79725
  Beta virt. eigenvalues --    3.81154   3.82363   3.83788   3.89784   4.26797
  Beta virt. eigenvalues --    4.28576   4.66856   4.76957   4.85166   4.92269
  Beta virt. eigenvalues --    4.95822   5.28998   5.36852   5.66283   5.68870
  Beta virt. eigenvalues --   23.62786  23.89525  23.94386  24.00776  49.75459
  Beta virt. eigenvalues --   49.79807  49.91348
          Condensed to atoms (all electrons):
              1          2          3          4          5          6
     1  O    7.827102   0.312796   0.332213  -0.035417  -0.069935  -0.006016
     2  H    0.312796   0.443722  -0.056928  -0.002717   0.011699  -0.000319
     3  C    0.332213  -0.056928   4.768384   0.416994   0.431431  -0.041350
     4  H   -0.035417  -0.002717   0.416994   0.576983  -0.071634   0.007033
     5  C   -0.069935   0.011699   0.431431  -0.071634   5.413775   0.320350
     6  C   -0.006016  -0.000319  -0.041350   0.007033   0.320350   4.826551
     7  H   -0.000066  -0.000056   0.005475  -0.000333  -0.043143   0.403522
     8  H    0.021991  -0.001443  -0.012203   0.001584  -0.035617   0.405501
     9  H    0.000177   0.000198   0.000143  -0.000203  -0.042713   0.397902
    10  C    0.002894  -0.000499  -0.059312  -0.004180   0.360937  -0.056443
    11  H    0.000089  -0.000060  -0.006571   0.005314  -0.030781   0.006916
    12  H   -0.000099   0.000016   0.003727  -0.000311  -0.042109  -0.004370
    13  H   -0.000026   0.000115  -0.001107   0.000377  -0.040913  -0.002676
    14  O   -0.023794  -0.010487   0.073943  -0.021372  -0.036946   0.004462
    15  O   -0.013244   0.050855  -0.035730   0.001914   0.001850   0.000293
    16  H    0.004969  -0.003427   0.000773   0.000475  -0.002453   0.000010
              7          8          9         10         11         12
     1  O   -0.000066   0.021991   0.000177   0.002894   0.000089  -0.000099
     2  H   -0.000056  -0.001443   0.000198  -0.000499  -0.000060   0.000016
     3  C    0.005475  -0.012203   0.000143  -0.059312  -0.006571   0.003727
     4  H   -0.000333   0.001584  -0.000203  -0.004180   0.005314  -0.000311
     5  C   -0.043143  -0.035617  -0.042713   0.360937  -0.030781  -0.042109
     6  C    0.403522   0.405501   0.397902  -0.056443   0.006916  -0.004370
     7  H    0.580127  -0.025067  -0.035022  -0.005143  -0.000139   0.004145
     8  H   -0.025067   0.536822  -0.024667   0.006639  -0.000334  -0.000127
     9  H   -0.035022  -0.024667   0.583815  -0.003362  -0.000091  -0.001324
    10  C   -0.005143   0.006639  -0.003362   4.807143   0.403037   0.401421
    11  H   -0.000139  -0.000334  -0.000091   0.403037   0.561609  -0.027089
    12  H    0.004145  -0.000127  -0.001324   0.401421  -0.027089   0.584413
    13  H   -0.001133  -0.000146   0.005146   0.395271  -0.024288  -0.036412
    14  O    0.000009  -0.000055   0.001966   0.000747  -0.000008  -0.000046
    15  O    0.000004   0.000325  -0.000089  -0.000065   0.000005   0.000000
    16  H   -0.000032   0.000216   0.000146   0.000087   0.000008  -0.000006
             13         14         15         16
     1  O   -0.000026  -0.023794  -0.013244   0.004969
     2  H    0.000115  -0.010487   0.050855  -0.003427
     3  C   -0.001107   0.073943  -0.035730   0.000773
     4  H    0.000377  -0.021372   0.001914   0.000475
     5  C   -0.040913  -0.036946   0.001850  -0.002453
     6  C   -0.002676   0.004462   0.000293   0.000010
     7  H   -0.001133   0.000009   0.000004  -0.000032
     8  H   -0.000146  -0.000055   0.000325   0.000216
     9  H    0.005146   0.001966  -0.000089   0.000146
    10  C    0.395271   0.000747  -0.000065   0.000087
    11  H   -0.024288  -0.000008   0.000005   0.000008
    12  H   -0.036412  -0.000046   0.000000  -0.000006
    13  H    0.578329   0.001962  -0.000065   0.000053
    14  O    0.001962   8.291902   0.038869  -0.033088
    15  O   -0.000065   0.038869   7.955959   0.279496
    16  H    0.000053  -0.033088   0.279496   0.475986
 Mulliken atomic charges:
              1
     1  O   -0.353635
     2  H    0.256536
     3  C    0.180118
     4  H    0.125494
     5  C   -0.123798
     6  C   -0.261367
     7  H    0.116853
     8  H    0.126582
     9  H    0.117977
    10  C   -0.249171
    11  H    0.112382
    12  H    0.118173
    13  H    0.125515
    14  O   -0.288066
    15  O   -0.280377
    16  H    0.276787
 Sum of Mulliken charges=   0.00000
 Atomic charges with hydrogens summed into heavy atoms:
              1
     1  O   -0.097099
     2  H    0.000000
     3  C    0.305612
     4  H    0.000000
     5  C   -0.123798
     6  C    0.100044
     7  H    0.000000
     8  H    0.000000
     9  H    0.000000
    10  C    0.106898
    11  H    0.000000
    12  H    0.000000
    13  H    0.000000
    14  O   -0.288066
    15  O   -0.003590
    16  H    0.000000
 Sum of Mulliken charges=   0.00000
          Atomic-Atomic Spin Densities.
              1          2          3          4          5          6
     1  O   -0.005637   0.001378   0.010071   0.001023  -0.008786   0.000758
     2  H    0.001378  -0.008908   0.007860  -0.000585   0.000058  -0.000038
     3  C    0.010071   0.007860  -0.114501   0.007007   0.043355  -0.001936
     4  H    0.001023  -0.000585   0.007007   0.003877  -0.002875  -0.000004
     5  C   -0.008786   0.000058   0.043355  -0.002875   0.732773  -0.026848
     6  C    0.000758  -0.000038  -0.001936  -0.000004  -0.026848  -0.040698
     7  H    0.000226   0.000042  -0.000493   0.000109  -0.012593   0.007306
     8  H   -0.000089   0.000088   0.000456   0.000020  -0.000582   0.001608
     9  H   -0.000091  -0.000085  -0.000724  -0.000140  -0.017914   0.008885
    10  C    0.000044  -0.000009  -0.000003   0.000518  -0.022435   0.002935
    11  H    0.000005   0.000002   0.000726  -0.000056  -0.001131  -0.000125
    12  H    0.000075   0.000018   0.000450   0.000383  -0.019231   0.000726
    13  H   -0.000053  -0.000033  -0.001711  -0.000471  -0.012699   0.000862
    14  O    0.003235  -0.000847  -0.054702  -0.004110  -0.033286   0.001455
    15  O   -0.002191  -0.002672   0.007893   0.000563   0.002837  -0.000188
    16  H   -0.000195  -0.000501   0.000921  -0.000114  -0.000486   0.000077
              7          8          9         10         11         12
     1  O    0.000226  -0.000089  -0.000091   0.000044   0.000005   0.000075
     2  H    0.000042   0.000088  -0.000085  -0.000009   0.000002   0.000018
     3  C   -0.000493   0.000456  -0.000724  -0.000003   0.000726   0.000450
     4  H    0.000109   0.000020  -0.000140   0.000518  -0.000056   0.000383
     5  C   -0.012593  -0.000582  -0.017914  -0.022435  -0.001131  -0.019231
     6  C    0.007306   0.001608   0.008885   0.002935  -0.000125   0.000726
     7  H    0.036292   0.000530  -0.011740   0.001802   0.000043   0.003266
     8  H    0.000530   0.000465  -0.001354  -0.000058   0.000003   0.000050
     9  H   -0.011740  -0.001354   0.051471  -0.000816  -0.000041  -0.002117
    10  C    0.001802  -0.000058  -0.000816  -0.046046   0.001922   0.011351
    11  H    0.000043   0.000003  -0.000041   0.001922   0.000492   0.000324
    12  H    0.003266   0.000050  -0.002117   0.011351   0.000324   0.045266
    13  H   -0.001738  -0.000037   0.004508   0.003230  -0.001015  -0.013050
    14  O   -0.000226  -0.000191   0.001422  -0.000401  -0.000097  -0.000267
    15  O    0.000018   0.000027  -0.000180   0.000016   0.000005   0.000008
    16  H   -0.000008  -0.000004   0.000083  -0.000009  -0.000002  -0.000002
             13         14         15         16
     1  O   -0.000053   0.003235  -0.002191  -0.000195
     2  H   -0.000033  -0.000847  -0.002672  -0.000501
     3  C   -0.001711  -0.054702   0.007893   0.000921
     4  H   -0.000471  -0.004110   0.000563  -0.000114
     5  C   -0.012699  -0.033286   0.002837  -0.000486
     6  C    0.000862   0.001455  -0.000188   0.000077
     7  H   -0.001738  -0.000226   0.000018  -0.000008
     8  H   -0.000037  -0.000191   0.000027  -0.000004
     9  H    0.004508   0.001422  -0.000180   0.000083
    10  C    0.003230  -0.000401   0.000016  -0.000009
    11  H   -0.001015  -0.000097   0.000005  -0.000002
    12  H   -0.013050  -0.000267   0.000008  -0.000002
    13  H    0.052353   0.000999  -0.000051   0.000014
    14  O    0.000999   0.518368  -0.051654   0.000153
    15  O   -0.000051  -0.051654   0.121721   0.000550
    16  H    0.000014   0.000153   0.000550  -0.003708
 Mulliken atomic spin densities:
              1
     1  O   -0.000226
     2  H   -0.004231
     3  C   -0.095333
     4  H    0.005146
     5  C    0.620158
     6  C   -0.045226
     7  H    0.022837
     8  H    0.000932
     9  H    0.031168
    10  C   -0.047961
    11  H    0.001055
    12  H    0.027248
    13  H    0.031109
    14  O    0.379851
    15  O    0.076703
    16  H   -0.003230
 Sum of Mulliken spin densities=   1.00000
 APT atomic charges:
              1
     1  O   -0.597320
     2  H    0.303866
     3  C    0.299849
     4  H   -0.011516
     5  C    0.174806
     6  C    0.008393
     7  H   -0.010567
     8  H    0.024185
     9  H   -0.014489
    10  C    0.034367
    11  H   -0.004330
    12  H   -0.015515
    13  H   -0.012451
    14  O    0.099075
    15  O   -0.513605
    16  H    0.235253
 Sum of APT charges=   0.00000
 APT Atomic charges with hydrogens summed into heavy atoms:
              1
     1  O   -0.293454
     2  H    0.000000
     3  C    0.288333
     4  H    0.000000
     5  C    0.174806
     6  C    0.007522
     7  H    0.000000
     8  H    0.000000
     9  H    0.000000
    10  C    0.002070
    11  H    0.000000
    12  H    0.000000
    13  H    0.000000
    14  O    0.099075
    15  O   -0.278352
    16  H    0.000000
 Sum of APT charges=   0.00000
 Electronic spatial extent (au):  <R**2>=  1872.4037
 Charge=     0.0000 electrons
 Dipole moment (field-independent basis, Debye):
    X=     0.0766    Y=     0.4796    Z=     1.4971  Tot=     1.5739
 Quadrupole moment (field-independent basis, Debye-Ang):
   XX=   -40.3958   YY=   -40.9869   ZZ=   -40.2162
   XY=     5.4102   XZ=    -0.1751   YZ=    -0.1333
 Traceless Quadrupole moment (field-independent basis, Debye-Ang):
   XX=     0.1371   YY=    -0.4539   ZZ=     0.3168
   XY=     5.4102   XZ=    -0.1751   YZ=    -0.1333
 Octapole moment (field-independent basis, Debye-Ang**2):
  XXX=    66.1799  YYY=  -259.8570  ZZZ=  -113.0968  XYY=    40.0329
  XXY=   -95.2510  XXZ=   -38.6608  XZZ=    25.1717  YZZ=   -78.4967
  YYZ=   -36.7294  XYZ=     7.7728
 Hexadecapole moment (field-independent basis, Debye-Ang**3):
 XXXX=  -472.4517 YYYY= -1407.5197 ZZZZ=  -561.8827 XXXY=    90.9697
 XXXZ=     9.0505 YYYX=   127.8998 YYYZ=  -317.0507 ZZZX=     6.8345
 ZZZY=  -316.1357 XXYY=  -342.8298 XXZZ=  -177.4797 YYZZ=  -300.9500
 XXYZ=  -125.1427 YYXZ=    19.6901 ZZXY=    25.8362
 N-N= 3.226578478591D+02 E-N=-1.545435740426D+03  KE= 3.822150375143D+02
  Exact polarizability:  68.930  15.021  74.898   9.990  16.027  67.250
 Approx polarizability:  95.857  16.806 116.491  14.525  26.363  92.852
                          Isotropic Fermi Contact Couplings
        Atom                 a.u.       MegaHertz       Gauss      10(-4) cm-1
     1  O(17)              0.00097      -0.58791      -0.20978      -0.19610
     2  H(1)              -0.00141      -6.28440      -2.24243      -2.09625
     3  C(13)             -0.01436     -16.14154      -5.75970      -5.38424
     4  H(1)               0.00285      12.72018       4.53888       4.24300
     5  C(13)              0.03989      44.84878      16.00316      14.95994
     6  C(13)             -0.01798     -20.21562      -7.21343      -6.74320
     7  H(1)               0.01175      52.52849      18.74347      17.52162
     8  H(1)               0.00041       1.81125       0.64630       0.60417
     9  H(1)               0.01452      64.90459      23.15957      21.64984
    10  C(13)             -0.01930     -21.69336      -7.74073      -7.23613
    11  H(1)               0.00037       1.63744       0.58428       0.54619
    12  H(1)               0.01348      60.27396      21.50725      20.10523
    13  H(1)               0.01449      64.77170      23.11215      21.60551
    14  O(17)              0.06946     -42.10424     -15.02384     -14.04446
    15  O(17)              0.00732      -4.43484      -1.58246      -1.47930
    16  H(1)              -0.00176      -7.88187      -2.81245      -2.62911
 --------------------------------------------------------
       Center         ----  Spin Dipole Couplings  ----
                      3XX-RR        3YY-RR        3ZZ-RR
 --------------------------------------------------------
     1   Atom        0.000926      0.010428     -0.011354
     2   Atom        0.004310      0.000756     -0.005066
     3   Atom        0.043968     -0.083367      0.039399
     4   Atom       -0.008130      0.002355      0.005775
     5   Atom       -0.353028      0.727536     -0.374508
     6   Atom       -0.009412      0.001726      0.007686
     7   Atom       -0.005329     -0.003737      0.009065
     8   Atom        0.002186     -0.004113      0.001926
     9   Atom       -0.005231     -0.004060      0.009291
    10   Atom        0.008780      0.003061     -0.011841
    11   Atom        0.005726     -0.003344     -0.002382
    12   Atom        0.006955     -0.002029     -0.004926
    13   Atom        0.009515     -0.004745     -0.004771
    14   Atom       -0.443843      1.078290     -0.634447
    15   Atom       -0.276264      0.383080     -0.106816
    16   Atom       -0.004994      0.000993      0.004001
 --------------------------------------------------------
                        XY            XZ            YZ
 --------------------------------------------------------
     1   Atom        0.073469     -0.015836      0.024269
     2   Atom       -0.006595      0.003084      0.001728
     3   Atom       -0.007117      0.017097     -0.002846
     4   Atom        0.000597      0.008670     -0.003933
     5   Atom       -0.159322      0.003947     -0.033758
     6   Atom       -0.000586     -0.006653     -0.001106
     7   Atom       -0.000061     -0.001996      0.005374
     8   Atom        0.000610     -0.008583      0.000224
     9   Atom       -0.000140     -0.000937     -0.003812
    10   Atom        0.001412     -0.001270      0.001970
    11   Atom        0.002974     -0.006972     -0.000650
    12   Atom        0.006563      0.002292      0.002021
    13   Atom       -0.001893      0.003128     -0.000576
    14   Atom       -0.929876     -0.347233      0.735462
    15   Atom       -0.093234     -0.054015      0.277599
    16   Atom        0.012900     -0.010963     -0.010236
 --------------------------------------------------------


 ---------------------------------------------------------------------------------
              Anisotropic Spin Dipole Couplings in Principal Axis System
 ---------------------------------------------------------------------------------

       Atom             a.u.   MegaHertz   Gauss  10(-4) cm-1        Axes

              Baa    -0.0796     5.760     2.055     1.921  0.6626 -0.6438  0.3827
     1 O(17)  Bbb    -0.0002     0.018     0.006     0.006 -0.3336  0.2037  0.9204
              Bcc     0.0799    -5.778    -2.062    -1.927  0.6706  0.7376  0.0798
 
              Baa    -0.0080    -4.276    -1.526    -1.426 -0.4473 -0.4845  0.7518
     2 H(1)   Bbb    -0.0015    -0.795    -0.284    -0.265  0.3919  0.6494  0.6517
              Bcc     0.0095     5.071     1.810     1.692  0.8039 -0.5862  0.1006
 
              Baa    -0.0838   -11.244    -4.012    -3.751  0.0535  0.9984  0.0156
     3 C(13)  Bbb     0.0245     3.287     1.173     1.096 -0.6548  0.0233  0.7555
              Bcc     0.0593     7.957     2.839     2.654  0.7539 -0.0507  0.6550
 
              Baa    -0.0126    -6.743    -2.406    -2.249  0.8812 -0.1525 -0.4475
     4 H(1)   Bbb     0.0014     0.772     0.276     0.258  0.2900  0.9219  0.2569
              Bcc     0.0112     5.970     2.130     1.991  0.3734 -0.3561  0.8566
 
              Baa    -0.3767   -50.554   -18.039   -16.863  0.7833  0.1316  0.6076
     5 C(13)  Bbb    -0.3748   -50.299   -17.948   -16.778 -0.6051 -0.0631  0.7937
              Bcc     0.7516   100.852    35.987    33.641 -0.1428  0.9893 -0.0302
 
              Baa    -0.0118    -1.578    -0.563    -0.526  0.9428  0.0678  0.3264
     6 C(13)  Bbb     0.0017     0.228     0.081     0.076 -0.0974  0.9924  0.0752
              Bcc     0.0101     1.350     0.482     0.450 -0.3189 -0.1027  0.9422
 
              Baa    -0.0062    -3.332    -1.189    -1.112 -0.6599  0.6779 -0.3239
     7 H(1)   Bbb    -0.0050    -2.664    -0.951    -0.889  0.7426  0.6539 -0.1445
              Bcc     0.0112     5.997     2.140     2.000 -0.1139  0.3360  0.9350
 
              Baa    -0.0067    -3.555    -1.269    -1.186  0.6863 -0.2249  0.6917
     8 H(1)   Bbb    -0.0040    -2.125    -0.758    -0.709  0.1447  0.9742  0.1732
              Bcc     0.0106     5.680     2.027     1.895  0.7128  0.0188 -0.7011
 
              Baa    -0.0056    -2.969    -1.059    -0.990  0.7946  0.5742  0.1974
     9 H(1)   Bbb    -0.0048    -2.554    -0.911    -0.852 -0.6046  0.7781  0.1705
              Bcc     0.0104     5.523     1.971     1.842 -0.0557 -0.2548  0.9654
 
              Baa    -0.0122    -1.637    -0.584    -0.546  0.0689 -0.1340  0.9886
    10 C(13)  Bbb     0.0031     0.410     0.146     0.137 -0.2064  0.9676  0.1455
              Bcc     0.0091     1.227     0.438     0.409  0.9760  0.2140 -0.0390
 
              Baa    -0.0067    -3.570    -1.274    -1.191  0.5208 -0.3082  0.7961
    11 H(1)   Bbb    -0.0037    -1.954    -0.697    -0.652 -0.0183  0.9283  0.3713
              Bcc     0.0104     5.524     1.971     1.843  0.8535  0.2080 -0.4778
 
              Baa    -0.0062    -3.304    -1.179    -1.102  0.2213 -0.6855  0.6936
    12 H(1)   Bbb    -0.0048    -2.550    -0.910    -0.851 -0.4491  0.5597  0.6965
              Bcc     0.0110     5.854     2.089     1.953  0.8657  0.4656  0.1840
 
              Baa    -0.0055    -2.928    -1.045    -0.977 -0.1518  0.3340  0.9303
    13 H(1)   Bbb    -0.0049    -2.635    -0.940    -0.879  0.1882  0.9337 -0.3045
              Bcc     0.0104     5.563     1.985     1.856  0.9703 -0.1288  0.2046
 
              Baa    -0.9072    65.641    23.422    21.896  0.0948 -0.3065  0.9472
    14 O(17)  Bbb    -0.8843    63.991    22.834    21.345  0.9090  0.4145  0.0432
              Bcc     1.7915  -129.632   -46.256   -43.241 -0.4058  0.8569  0.3179
 
              Baa    -0.2926    21.170     7.554     7.062  0.9758  0.0468  0.2138
    15 O(17)  Bbb    -0.2302    16.654     5.943     5.555 -0.1738 -0.4279  0.8870
              Bcc     0.5227   -37.825   -13.497   -12.617 -0.1330  0.9026  0.4094
 
              Baa    -0.0157    -8.361    -2.983    -2.789  0.8292 -0.5263  0.1883
    16 H(1)   Bbb    -0.0073    -3.879    -1.384    -1.294  0.2142  0.6103  0.7626
              Bcc     0.0229    12.240     4.367     4.083 -0.5163 -0.5920  0.6188
 

 ---------------------------------------------------------------------------------

 Use density number 0.
 Entering OneElI...
 Calculate overlap and kinetic energy integrals
    NBasis = 187  MinDer = 2  MaxDer = 2
 Requested accuracy = 0.1000D-12
 PrsmSu:  NPrtUS=   1 ThrOK=F
 PRISM was handed   130760835 working-precision words and  2544 shell-pairs
 Entering OneElI...
 Calculate potential energy integrals
    NBasis = 187  MinDer = 2  MaxDer = 2
 Requested accuracy = 0.1000D-12
 PrsmSu:  NPrtUS=   8 ThrOK=T
 PRISM was handed    16303380 working-precision words and  2333 shell-pairs
 PRISM was handed    16303380 working-precision words and  2333 shell-pairs
 PRISM was handed    16303380 working-precision words and  2333 shell-pairs
 PRISM was handed    16303380 working-precision words and  2333 shell-pairs
 PRISM was handed    16303380 working-precision words and  2333 shell-pairs
 PRISM was handed    16303380 working-precision words and  2333 shell-pairs
 PRISM was handed    16303380 working-precision words and  2333 shell-pairs
 PRISM was handed    16303380 working-precision words and  2333 shell-pairs
 Polarizability after L701:
                1             2             3
      1  0.689296D+02
      2  0.150208D+02  0.748979D+02
      3  0.999000D+01  0.160268D+02  0.672502D+02
 Dipole Derivatives after L701:
               1            2            3            4            5
      1-0.108900D+01 0.804573D-01-0.490957D-01 0.333893D+00-0.112948D+00
      2 0.354743D+00-0.320542D+00 0.150393D+00 0.355027D-01 0.304344D+00
      3-0.947123D-01 0.139365D+00-0.382424D+00 0.846364D-01-0.108001D+00
               6            7            8            9           10
      1 0.778896D-01 0.918004D+00-0.717688D-01 0.204666D-01-0.218230D-01
      2-0.822005D-01-0.617896D+00-0.262996D+00-0.609124D+00-0.335543D-01
      3 0.273361D+00 0.186862D-01-0.201168D+00 0.244541D+00 0.453850D-01
              11           12           13           14           15
      1 0.160156D-01 0.673593D-01 0.244449D+00 0.128256D-01-0.698151D-01
      2 0.645063D-01 0.563960D-01 0.443513D+00-0.319422D-01 0.591761D+00
      3 0.588383D-01-0.772313D-01 0.475124D-01 0.658673D-02 0.311912D+00
              16           17           18           19           20
      1-0.662708D-01-0.119472D-01 0.663933D-01 0.716855D-01-0.479577D-01
      2-0.846477D-01 0.163684D+00-0.310979D-01-0.444956D-01-0.789252D-01
      3-0.246967D-01 0.270752D-01-0.722352D-01 0.167432D-03-0.111306D+00
              21           22           23           24           25
      1-0.217734D-01-0.739530D-01-0.278339D-01-0.351396D-02 0.375320D-01
      2-0.845917D-01-0.714286D-02 0.680662D-01 0.357733D-02 0.912393D-01
      3-0.244599D-01 0.586570D-01 0.757102D-02 0.784412D-01-0.236691D-01
              26           27           28           29           30
      1 0.740362D-01-0.416344D-01-0.449249D-01 0.509869D-02-0.366633D-01
      2-0.364409D-01 0.575326D-02-0.383852D-01 0.144015D+00-0.704477D-01
      3 0.115022D+00-0.445589D-01 0.403675D-01 0.336127D-01 0.401003D-02
              31           32           33           34           35
      1 0.292624D-01-0.892481D-02 0.871919D-01 0.535957D-03-0.903807D-01
      2-0.897632D-02 0.706742D-01 0.281265D-01-0.617775D-01-0.832470D-01
      3 0.158395D-01 0.198315D-02-0.112927D+00-0.300261D-01-0.925681D-01
              36           37           38           39           40
      1-0.211332D-01-0.384913D-01 0.991129D-01-0.359251D-01 0.140301D+00
      2-0.829886D-01-0.720293D-02-0.338512D-01 0.761666D-01 0.768816D+00
      3 0.361648D-01-0.638118D-01 0.780084D-01 0.349893D-01 0.378752D+00
              41           42           43           44           45
      1 0.280482D+00 0.582591D-01-0.662133D+00-0.214754D+00-0.680727D-01
      2 0.341571D+00 0.264046D+00-0.769388D+00-0.677596D+00-0.190293D+00
      3 0.256990D+00-0.184647D+00-0.437906D+00-0.301146D+00-0.201084D+00
              46           47           48
      1 0.220928D+00 0.184874D-01-0.299331D-01
      2-0.203484D-01 0.368681D+00-0.254764D-01
      3-0.151819D-01 0.891377D-01 0.116149D+00
 Hessian after L701:
                1             2             3             4             5
      1  0.479158D+01
      2 -0.111449D+01  0.137553D+02
      3 -0.125547D+01 -0.291362D+01  0.153643D+02
      4 -0.579513D+01  0.200166D+01  0.146131D+01  0.599369D+01
      5  0.157055D+01 -0.391087D+01  0.225049D+01 -0.171979D+01  0.364751D+01
      6  0.126064D+01  0.242075D+01 -0.519910D+01 -0.145588D+01 -0.250911D+01
      7  0.180724D+01 -0.128398D+00 -0.114034D+01 -0.110790D-01  0.286332D-01
      8  0.166007D+00 -0.104295D+02  0.212283D+00 -0.102582D+00  0.202964D+00
      9 -0.116423D+01  0.226128D+00 -0.104367D+02 -0.131621D+00 -0.505750D-02
     10 -0.254920D+00  0.865118D-01 -0.216298D-02 -0.451379D-01 -0.935320D-02
     11  0.638404D-01  0.158495D+00 -0.859969D-01 -0.231988D-01  0.870040D-02
     12 -0.258405D-01 -0.907067D-01  0.356201D+00  0.474124D-02 -0.117580D-01
     13 -0.320185D+00 -0.200949D+00  0.507991D+00  0.158413D+00  0.153142D+00
     14 -0.235377D+00  0.130220D+00 -0.509198D-01  0.112773D+00 -0.183932D-01
     15  0.583551D+00 -0.694681D-01  0.485008D+00  0.162184D+00  0.107018D+00
     16  0.633904D-01  0.253520D-01  0.403043D+00  0.254255D-02  0.205272D-01
     17  0.427116D-01 -0.329374D+00  0.361033D-01  0.523730D-02 -0.597062D-02
     18  0.337927D+00  0.225938D-01  0.784039D-01  0.210929D-01  0.225025D-01
     19  0.189411D-02  0.114820D-01  0.333677D-01  0.969784D-03  0.324333D-02
     20  0.272718D-01 -0.110091D-01  0.347686D-01  0.392155D-02  0.540622D-02
     21  0.415196D-01  0.164626D-01  0.364303D-01  0.364233D-02  0.592504D-02
     22 -0.161740D+00  0.447841D-02  0.633842D-02 -0.391117D-02 -0.867122D-02
     23  0.707694D-03 -0.169371D+00  0.741701D-04 -0.164593D-02  0.154161D-02
     24  0.130831D+00  0.672306D-04  0.183984D+00 -0.626524D-02 -0.498042D-03
     25  0.110728D-01 -0.160473D-01  0.415856D-01  0.374440D-02  0.432609D-02
     26 -0.256166D-01 -0.109047D-01 -0.283281D-01 -0.349702D-02 -0.626738D-02
     27  0.469362D-01 -0.177019D-01  0.355410D-01  0.796826D-02  0.533885D-02
     28  0.353586D+00  0.375538D-01  0.911999D-01  0.335989D-02  0.141741D-01
     29  0.492830D-01 -0.160296D+00  0.518381D-02  0.328145D-02 -0.165290D-02
     30  0.109568D+00  0.318967D-02 -0.154542D+00  0.484848D-02  0.801594D-02
     31  0.505637D-01  0.538299D-02 -0.102900D-01  0.340814D-02  0.489237D-02
     32  0.955329D-02 -0.186045D-01 -0.177860D-02  0.866558D-03  0.806309D-04
     33 -0.406700D-01  0.293744D-04 -0.106673D-01 -0.497917D-02 -0.618672D-02
     34  0.231377D-01  0.777827D-02  0.837500D-02  0.322986D-02  0.451454D-02
     35  0.294156D-01 -0.685016D-02  0.616002D-02  0.450208D-02  0.490478D-02
     36  0.214716D-01  0.411678D-02 -0.757092D-02  0.292585D-02  0.378258D-02
     37  0.333198D-01 -0.769965D-02  0.897405D-02  0.689495D-02  0.472055D-02
     38 -0.237157D-01 -0.705905D-02 -0.410314D-02 -0.317987D-02 -0.510237D-02
     39  0.211915D-01 -0.489175D-02 -0.894476D-02  0.428953D-02  0.325984D-02
     40 -0.107889D+00 -0.480562D+00 -0.683690D-01 -0.259135D-01  0.666596D-01
     41 -0.476777D+00  0.338774D+00  0.877830D-01 -0.390037D-02 -0.159123D-01
     42 -0.386076D-01  0.560449D-01 -0.329218D+00 -0.161759D-01  0.104600D-01
     43 -0.439336D+00 -0.246484D+00 -0.880429D-01 -0.303386D+00 -0.140882D+00
     44 -0.771853D-01  0.536951D+00  0.439831D+00 -0.279726D+00  0.133338D+00
     45 -0.305215D-01  0.413897D+00 -0.331462D+00 -0.608489D-01  0.997255D-01
     46 -0.565821D-01  0.144266D-01  0.249258D-02  0.830387D-02  0.331871D-02
     47 -0.618131D-02  0.134088D+00  0.120726D-01  0.528163D-02 -0.402732D-01
     48  0.171350D-02 -0.668832D-01 -0.616606D-01  0.276150D-02  0.160901D-01
                6             7             8             9            10
      6  0.536463D+01
      7 -0.599247D-01  0.104248D+02
      8 -0.906476D-02 -0.119264D+01  0.239533D+02
      9  0.145860D+00 -0.200371D+01 -0.163862D+01  0.174621D+02
     10  0.192917D-01 -0.457981D+01  0.255840D+00 -0.129426D+01  0.456052D+01
     11  0.789331D-02  0.337661D+00 -0.490408D+01 -0.811568D+00 -0.480985D+00
     12  0.643666D-03 -0.136722D+01 -0.640701D+00 -0.201064D+01  0.138837D+01
     13  0.164627D+00 -0.544611D+01  0.128770D+01  0.428716D+01  0.295699D+00
     14  0.746767D-01  0.141578D+01 -0.105759D+02  0.118265D+01  0.148953D-01
     15  0.378186D-01  0.420210D+01  0.108421D+01 -0.353356D+01 -0.610490D-01
     16  0.282754D-01 -0.832815D-01  0.586287D-02  0.120048D+00 -0.552877D-01
     17  0.117985D-01  0.156316D-01 -0.121117D-02  0.106289D+00 -0.261687D-02
     18  0.234066D-01  0.147949D+00  0.129617D+00  0.342777D+00 -0.171036D-01
     19  0.267443D-02 -0.427152D-01  0.150219D-01  0.267469D-01 -0.999707D-03
     20  0.576587D-02  0.224218D-01  0.101834D-01  0.110058D+00 -0.217678D-02
     21  0.446998D-02  0.331928D-01  0.932530D-01  0.123921D+00 -0.349620D-02
     22 -0.135749D-01  0.148269D-01 -0.728086D-02 -0.239420D-02  0.216128D-02
     23 -0.468041D-02  0.789764D-03  0.237937D-01 -0.300924D-02  0.858029D-03
     24 -0.125219D-01  0.379192D-01  0.930106D-02 -0.858005D-01 -0.155290D-01
     25  0.766404D-02 -0.174569D-01 -0.164961D-01  0.267736D-01 -0.201946D-02
     26 -0.502497D-02 -0.248910D-01  0.763672D-03 -0.764113D-01  0.207811D-02
     27  0.934586D-02  0.282232D-01 -0.563784D-01  0.371050D-01 -0.279170D-02
     28  0.987143D-02  0.546312D-01  0.928109D-01  0.811038D-01 -0.325197D-01
     29  0.334571D-02  0.630359D-01  0.302849D-01  0.323684D-01  0.170650D-02
     30 -0.828175D-03  0.127795D+00  0.511869D-01  0.363943D-01 -0.104976D-01
     31  0.341363D-02 -0.627770D-02  0.184664D-01  0.132301D-01  0.405439D-01
     32  0.756492D-03  0.109626D-01 -0.721486D-02  0.269094D-02  0.909178D-02
     33 -0.507609D-02 -0.401046D-01 -0.114730D-01 -0.126264D-01  0.179031D-01
     34  0.343875D-02  0.603219D-01  0.749578D-01  0.579722D-01 -0.188833D-02
     35  0.446985D-02  0.952121D-01  0.273845D-01  0.533030D-01 -0.403094D-03
     36  0.198877D-02  0.609898D-01  0.468187D-01 -0.618187D-02  0.399194D-03
     37  0.596075D-02  0.380445D-01 -0.479871D-01  0.281846D-01  0.281961D-02
     38 -0.340713D-02 -0.726884D-01 -0.479794D-02 -0.357592D-01 -0.193365D-02
     39  0.219116D-02  0.335801D-01 -0.241936D-01 -0.901293D-02  0.659564D-02
     40  0.205110D-01 -0.188203D+01 -0.438568D+00 -0.278475D-01  0.659122D-01
     41 -0.180904D-01 -0.561043D+00  0.130912D+01  0.707971D+00  0.241573D-01
     42  0.118314D-01 -0.451656D-01  0.656035D+00 -0.190742D+01 -0.971812D-02
     43  0.846529D-02 -0.331788D+00 -0.161027D+00 -0.158223D-01  0.397236D-02
     44  0.154696D-01 -0.596513D-01  0.298819D+00  0.153210D+00  0.943830D-01
     45 -0.399589D+00  0.107638D-02  0.135119D+00 -0.123142D+00 -0.975212D-02
     46 -0.545622D-02  0.720561D-03  0.499182D-01 -0.133633D-02  0.957669D-03
     47  0.445419D-02  0.491888D-01  0.660420D-01 -0.424080D-02  0.794645D-02
     48  0.149364D-01 -0.163631D-01 -0.373929D-01 -0.230496D-01 -0.619433D-02
               11            12            13            14            15
     11  0.471565D+01
     12  0.850013D+00  0.172756D+01
     13  0.135043D-01 -0.233443D-01  0.112233D+02
     14  0.280649D+00  0.679799D-02 -0.231084D+01  0.217593D+02
     15  0.523366D-01 -0.405228D+00 -0.232591D+01 -0.116540D+01  0.109403D+02
     16 -0.244031D-02  0.159173D-02 -0.537928D+01  0.874029D-01 -0.203491D+01
     17 -0.471420D-01 -0.237020D-02  0.482523D-01 -0.629950D+01 -0.199841D+00
     18 -0.159507D-01  0.220969D+00 -0.221402D+01 -0.277757D+00 -0.141294D+01
     19 -0.543218D-03  0.265508D-02  0.980045D-01  0.859699D-02  0.570079D-02
     20 -0.116645D-02  0.851488D-02 -0.222791D-01  0.162702D+00  0.335511D-01
     21 -0.353334D-03  0.445214D-02 -0.332561D-01  0.127131D-01 -0.512462D-01
     22  0.266294D-02 -0.277771D-01  0.113087D+00 -0.719653D-02 -0.325357D-01
     23 -0.736342D-02 -0.266897D-02  0.515361D-02  0.542319D-01  0.685181D-03
     24 -0.339968D-02  0.354969D-01  0.695342D-01  0.223114D-01  0.465289D-01
     25 -0.351361D-03  0.459321D-02  0.980672D-01 -0.454609D-01  0.660795D-01
     26  0.432821D-03 -0.875344D-02 -0.230018D-01  0.181783D+00 -0.702494D-01
     27 -0.237634D-02  0.671874D-02  0.374845D-01 -0.315807D-01  0.216479D-01
     28  0.315048D-02  0.164404D-01 -0.724922D+00  0.674152D+00 -0.708627D+00
     29 -0.214216D-01  0.359825D-02  0.747668D+00 -0.634796D+01 -0.128817D+00
     30  0.472429D-03  0.171467D-01 -0.596767D+00 -0.103927D+00 -0.626482D+01
     31  0.469732D-02  0.492556D-01  0.191285D-01  0.128697D-01  0.501307D-01
     32 -0.257847D-01  0.721930D-02  0.250438D-02  0.493772D-01  0.412889D-02
     33  0.256197D-02 -0.274298D-01 -0.280806D-01 -0.152603D-01  0.919245D-01
     34  0.278467D-03  0.787229D-02 -0.466346D-01  0.149489D-01 -0.574294D-01
     35 -0.126680D-02  0.116861D-01  0.329021D-01  0.192863D+00 -0.163698D-02
     36  0.398212D-03  0.839647D-02 -0.162602D-01  0.291468D-01  0.790103D-01
     37 -0.348803D-02  0.182398D-01  0.781241D-02 -0.670930D-01  0.911748D-02
     38 -0.152192D-02 -0.121823D-01 -0.111206D+00  0.182579D+00 -0.310803D-01
     39 -0.348522D-02  0.129366D-01  0.368469D-01 -0.396382D-01  0.103004D+00
     40  0.433633D-02 -0.111469D-01 -0.641764D-01  0.179050D+00  0.110506D-01
     41 -0.243730D+00 -0.333181D-01  0.181786D+00  0.156668D+00  0.181217D+00
     42  0.357954D-01  0.923405D-01 -0.130728D-02  0.180447D+00 -0.108505D+00
     43  0.753244D-01 -0.325513D-01 -0.236954D-01  0.151635D+00  0.129978D+00
     44  0.829735D-01 -0.744619D-01  0.198228D+00  0.940359D-01  0.199428D+00
     45 -0.185553D-01 -0.480166D-01  0.152057D+00  0.193827D+00 -0.189753D-01
     46  0.555014D-02 -0.587554D-02 -0.849067D-02 -0.613221D-02  0.569292D-03
     47  0.657101D-02 -0.109094D-01 -0.256228D-02 -0.263027D-02  0.391899D-02
     48 -0.778550D-02  0.845841D-02 -0.167575D-01 -0.180850D-01 -0.997626D-02
               16            17            18            19            20
     16  0.147860D+02
     17 -0.196140D+00  0.159689D+02
     18  0.101701D+01 -0.412983D+00  0.115612D+02
     19 -0.398199D+01  0.445369D+00  0.303966D+00  0.383872D+01
     20  0.484147D+00 -0.229311D+01  0.117531D+01 -0.450792D+00  0.220678D+01
     21  0.361485D+00  0.129112D+01 -0.324940D+01 -0.326018D+00 -0.144088D+01
     22 -0.149242D+01  0.339334D+00  0.976174D-01 -0.379927D-02 -0.490202D-01
     23  0.268264D+00 -0.441920D+01 -0.398412D-02 -0.847818D-01  0.246860D-01
     24 -0.251948D+00 -0.401349D-01 -0.452483D+01 -0.406123D-01 -0.149424D-01
     25 -0.379598D+01 -0.811181D+00  0.526281D+00  0.988456D-01  0.106962D-01
     26 -0.811560D+00 -0.254890D+01 -0.105460D+01  0.373465D-01 -0.115190D+00
     27  0.617370D+00 -0.124469D+01 -0.340603D+01  0.664411D-02 -0.801585D-03
     28  0.167790D+00  0.419916D-01 -0.138640D+00 -0.968051D-02 -0.191979D-01
     29  0.349283D-01 -0.502443D-01 -0.181418D-01 -0.586887D-02 -0.217440D-02
     30 -0.225865D+00 -0.343338D-01  0.919675D-01 -0.460916D-02  0.307409D-01
     31  0.457897D-01  0.105217D-01 -0.118221D+00 -0.871306D-03 -0.397207D-02
     32  0.139830D-01 -0.442820D-01 -0.183422D-01 -0.303418D-03 -0.132261D-02
     33 -0.118204D+00 -0.142286D-01  0.947634D-01 -0.160166D-02  0.966664D-02
     34  0.171081D-02  0.142248D-01 -0.729481D-02  0.201409D-01 -0.554043D-02
     35  0.358360D-01  0.274595D-02 -0.105025D-01  0.993561D-02 -0.241816D-01
     36 -0.146171D-04 -0.516755D-03 -0.147696D-01 -0.230465D-01 -0.131650D-02
     37  0.277619D-01 -0.169783D-01 -0.178997D-01 -0.194430D-02 -0.641583D-02
     38 -0.426912D-01 -0.119134D-01  0.128241D-01 -0.405726D-03  0.826479D-02
     39 -0.664855D-02  0.225870D-02 -0.192984D-01  0.187934D-02 -0.210244D-02
     40 -0.215499D+00  0.580963D-02  0.319468D-02 -0.112408D-01  0.605013D-02
     41  0.392514D-02  0.637365D-01  0.313695D+00  0.442874D-02  0.188770D-01
     42  0.243004D-02  0.336506D+00  0.160838D+00  0.478486D-02  0.314825D-01
     43 -0.879451D-01  0.465546D-01  0.517909D-01 -0.542865D-02  0.278283D-02
     44  0.588301D-01  0.367625D-02  0.122564D+00  0.582086D-02  0.772160D-02
     45  0.908816D-01  0.173037D+00  0.626843D-01  0.871899D-02  0.245676D-01
     46 -0.332616D-02  0.112777D-01  0.635089D-02  0.977123D-04  0.210293D-02
     47  0.137723D-01  0.117377D-01  0.131526D-01  0.145040D-02  0.352752D-02
     48 -0.454784D-02 -0.801634D-02 -0.979226D-02 -0.125045D-02 -0.438676D-02
               21            22            23            24            25
     21  0.292371D+01
     22 -0.354689D-01  0.142253D+01
     23 -0.263410D-01 -0.284603D+00  0.448521D+01
     24  0.571059D-01  0.220405D+00 -0.272799D-01  0.421903D+01
     25  0.627417D-02 -0.332105D-01  0.795618D-01 -0.409575D-01  0.366785D+01
     26 -0.134871D-03  0.350910D-01  0.511636D-01  0.528707D-02  0.764793D+00
     27  0.112918D+00 -0.419008D-01  0.216337D-01  0.590187D-01 -0.659838D+00
     28 -0.103378D-01  0.147232D+00  0.203710D-01 -0.884094D-01 -0.150366D-01
     29  0.136268D-01  0.246338D-01 -0.425858D-01 -0.115408D-01  0.933864D-02
     30  0.784252D-03 -0.905730D-01 -0.966148D-02 -0.998770D-02 -0.840535D-02
     31 -0.541070D-02  0.114818D-02  0.124343D-03  0.375377D-02 -0.180076D-02
     32  0.965499D-03  0.299215D-03 -0.443235D-05  0.541270D-03  0.271838D-03
     33  0.100185D-01 -0.877085D-02 -0.917607D-03 -0.479430D-03  0.317653D-03
     34 -0.376499D-01  0.898296D-02  0.281408D-02 -0.173268D-02 -0.326593D-02
     35 -0.151720D-01  0.118146D-01  0.850952D-03 -0.140784D-02 -0.314088D-02
     36  0.309230D-02  0.271094D-02  0.459857D-03 -0.201539D-02  0.185084D-02
     37 -0.345139D-02  0.111715D-01 -0.371595D-03 -0.180175D-02  0.209451D-01
     38  0.612357D-02 -0.952741D-02 -0.173012D-02  0.108302D-02  0.161809D-02
     39 -0.282073D-02  0.251698D-02  0.138632D-03 -0.192378D-02 -0.256914D-01
     40  0.519144D-02 -0.876771D-02 -0.843258D-02 -0.142466D-01 -0.270672D-01
     41  0.269342D-01 -0.332537D-01 -0.635794D-02  0.262436D-01  0.112194D-01
     42  0.169925D-01 -0.500008D-01  0.250723D-01  0.161710D-01  0.294916D-01
     43  0.239868D-02 -0.130099D-01 -0.199455D-03 -0.222095D-02 -0.587946D-02
     44  0.130195D-01 -0.138456D-01  0.153152D-02  0.286740D-01  0.688342D-02
     45  0.133173D-01 -0.321782D-01  0.294194D-01  0.220486D-01  0.256392D-01
     46  0.138500D-02 -0.428961D-02  0.138915D-02  0.127940D-02  0.119902D-02
     47  0.273409D-02 -0.491585D-02  0.360623D-02  0.569492D-02  0.396871D-02
     48 -0.374865D-02  0.558579D-02  0.105942D-02 -0.182542D-02 -0.165780D-02
               26            27            28            29            30
     26  0.250030D+01
     27  0.129235D+01  0.298882D+01
     28  0.268198D-01 -0.203466D-01  0.111071D+02
     29  0.525797D-02 -0.263373D-01 -0.951587D+00  0.154321D+02
     30 -0.446125D-01  0.116879D-01  0.282712D+00 -0.136083D+00  0.152153D+02
     31  0.410160D-02 -0.507721D-02 -0.402609D+01  0.169318D-01 -0.942648D+00
     32  0.134221D-03 -0.275438D-02  0.357478D-01 -0.422973D+01 -0.198924D+00
     33 -0.102707D-01  0.994258D-02 -0.688348D+00 -0.939309D-01 -0.165503D+01
     34  0.340434D-02 -0.108421D-02 -0.368571D+01  0.848895D+00  0.483953D+00
     35  0.878246D-02 -0.507687D-02  0.729584D+00 -0.215941D+01  0.101849D+01
     36  0.333831D-02 -0.299391D-02  0.401602D+00  0.979059D+00 -0.346925D+01
     37  0.165966D-01 -0.443067D-01 -0.333503D+01 -0.122798D+01  0.649840D+00
     38 -0.254816D-01  0.450470D-02 -0.102578D+01 -0.255662D+01 -0.828282D+00
     39 -0.490676D-02  0.368067D-02  0.575447D+00 -0.873578D+00 -0.365256D+01
     40 -0.242940D-02  0.170298D-01 -0.229034D-01  0.282054D+00  0.167293D+00
     41 -0.271982D-01  0.469900D-01  0.229092D+00  0.100524D+00  0.195400D+00
     42  0.688137D-02  0.875325D-01  0.148674D+00  0.202118D+00 -0.102407D+00
     43  0.121131D-02  0.985124D-02  0.136038D-01  0.906834D-01  0.497585D-01
     44 -0.121814D-01  0.112406D-01  0.793865D-01 -0.375372D-02  0.448241D-01
     45 -0.845278D-02  0.287571D-01  0.523145D-01  0.587250D-01 -0.549760D-01
     46 -0.446182D-03  0.383819D-02  0.459539D-02  0.129955D-01  0.359726D-02
     47 -0.250024D-02  0.563866D-02  0.117332D-01  0.770076D-02  0.350694D-02
     48  0.388867D-02 -0.369487D-02 -0.465646D-02 -0.959622D-02 -0.885332D-02
               31            32            33            34            35
     31  0.369638D+01
     32 -0.157408D+00  0.417744D+01
     33  0.984047D+00  0.204795D+00  0.161847D+01
     34  0.764001D-01  0.364882D-02 -0.901011D-02  0.342867D+01
     35  0.658906D-02  0.428409D-01 -0.548785D-01 -0.102604D+01  0.199423D+01
     36 -0.650106D-02 -0.870659D-01 -0.432515D-01 -0.475388D+00 -0.101742D+01
     37  0.666099D-01  0.469612D-02 -0.152965D-01  0.108116D+00  0.329914D-01
     38  0.259977D-02  0.355121D-01  0.331583D-01  0.242098D-01 -0.117858D+00
     39 -0.251805D-01  0.787364D-01 -0.239264D-01  0.101283D-01 -0.179067D-01
     40  0.226285D-01  0.489486D-01 -0.338839D-01  0.427016D-02  0.279906D-01
     41  0.532278D-01  0.190722D-01 -0.307193D-01  0.209577D-01  0.246671D-01
     42  0.655843D-02  0.701067D-02 -0.332564D-01  0.116455D-01  0.204644D-01
     43  0.106213D-01  0.153352D-01 -0.104633D-01  0.155756D-02  0.103549D-01
     44  0.180337D-01  0.134095D-02 -0.868519D-02  0.893664D-02  0.723593D-02
     45  0.624801D-02  0.393113D-02 -0.182106D-01  0.853676D-02  0.139115D-01
     46  0.181934D-02  0.180245D-02 -0.285496D-02  0.964614D-03  0.245880D-02
     47  0.294191D-02  0.114437D-02 -0.366094D-02  0.201444D-02  0.305893D-02
     48 -0.330821D-02 -0.191089D-02  0.483735D-02 -0.233275D-02 -0.447995D-02
               36            37            38            39            40
     36  0.335036D+01
     37  0.709802D-02  0.294425D+01
     38  0.108199D-01  0.124969D+01  0.253913D+01
     39  0.107112D+00 -0.713195D+00  0.839256D+00  0.348872D+01
     40  0.147917D-01  0.551203D-01  0.149743D-01  0.622502D-01  0.535173D+00
     41  0.191590D-01  0.566944D-01 -0.213754D-01  0.389128D-01 -0.241669D+01
     42 -0.254328D-02  0.547408D-01  0.960053D-02  0.235548D-02 -0.199638D+01
     43  0.625185D-02  0.108296D-01 -0.136748D-02  0.138158D-01  0.198907D+01
     44  0.767271D-02  0.863620D-02 -0.997583D-02  0.609736D-02  0.293379D+01
     45  0.119893D-02  0.175989D-01 -0.564259D-02  0.186944D-02  0.206521D+01
     46  0.111837D-02  0.327636D-02 -0.595881D-03  0.217424D-02 -0.306682D+00
     47  0.154787D-02  0.398564D-02 -0.204866D-02  0.204243D-02 -0.222983D+00
     48 -0.257922D-02 -0.380353D-02  0.308655D-02 -0.338072D-02 -0.214650D+00
               41            42            43            44            45
     41  0.241983D+01
     42 -0.225316D+01  0.632249D+01
     43  0.309035D+01  0.205853D+01  0.472073D+01
     44 -0.426904D+01  0.836088D+00 -0.387208D+01  0.844293D+01
     45  0.879830D+00 -0.461783D+01 -0.867838D+00 -0.969871D-01  0.863031D+01
     46 -0.184172D+00 -0.159499D+00 -0.553992D+01  0.889553D+00 -0.142715D+01
     47  0.132344D+00 -0.160843D+00  0.937806D+00 -0.531560D+01 -0.189635D+01
     48 -0.188846D+00  0.390637D+00 -0.131390D+01 -0.169798D+01 -0.314798D+01
               46            47            48
     46  0.589736D+01
     47 -0.803447D+00  0.499323D+01
     48  0.157936D+01  0.202124D+01  0.285767D+01
 ReadGW:  IGet=0 IStart=         114 Next=        7241 LGW=        7127.
 ICntrl=12127.
 Symmetry not used in FoFDir.
 MinBra= 0 MaxBra= 2 Meth= 1.
 IRaf=       0 NMat=   1 IRICut=       1 DoRegI=T DoRafI=F ISym2E= 0 JSym2E=0.
 PrsmSu:  NPrtUS=   8 ThrOK=T
 PRISM was handed    16289372 working-precision words and  2429 shell-pairs
 PRISM was handed    16289372 working-precision words and  2429 shell-pairs
 PRISM was handed    16289372 working-precision words and  2429 shell-pairs
 PRISM was handed    16289372 working-precision words and  2429 shell-pairs
 PRISM was handed    16289372 working-precision words and  2429 shell-pairs
 PRISM was handed    16289372 working-precision words and  2429 shell-pairs
 PRISM was handed    16289372 working-precision words and  2429 shell-pairs
 PRISM was handed    16289372 working-precision words and  2429 shell-pairs
 Pruned (  75, 302) grid will be used in CalDFT.
 CkSvGd:  ISavGI=        -1 IRadAn=       4 IRASav=       4 ISavGd=        -1.
 CalDSu:  NPrtUS=   8 ThrOK=T
 IPart= 4 IRanGd=          0 ScrnBf=T ScrnGd=T RCrit=4.00D+00 DoMicB=T.
 IPart= 1 IRanGd=          0 ScrnBf=T ScrnGd=T RCrit=4.00D+00 DoMicB=T.
 IPart= 5 IRanGd=          0 ScrnBf=T ScrnGd=T RCrit=4.00D+00 DoMicB=T.
 IPart= 2 IRanGd=          0 ScrnBf=T ScrnGd=T RCrit=4.00D+00 DoMicB=T.
 IPart= 0 IRanGd=          0 ScrnBf=T ScrnGd=T RCrit=4.00D+00 DoMicB=T.
 CutRad = 1000.00    CtRdIn =    0.00    XCrit =  15.00   ICut = 0
 CutRad = 1000.00    CtRdIn =    0.00    XCrit =  15.00   ICut = 0
 CutRad = 1000.00    CtRdIn =    0.00    XCrit =  15.00   ICut = 0
 CutRad = 1000.00    CtRdIn =    0.00    XCrit =  15.00   ICut = 0
 IPart= 6 IRanGd=          0 ScrnBf=T ScrnGd=T RCrit=4.00D+00 DoMicB=T.
 CutRad = 1000.00    CtRdIn =    0.00    XCrit =  15.00   ICut = 0
 CutRad = 1000.00    CtRdIn =    0.00    XCrit =  15.00   ICut = 0
 IPart= 7 IRanGd=          0 ScrnBf=T ScrnGd=T RCrit=4.00D+00 DoMicB=T.
 CutRad = 1000.00    CtRdIn =    0.00    XCrit =  15.00   ICut = 0
 IPart= 3 IRanGd=          0 ScrnBf=T ScrnGd=T RCrit=4.00D+00 DoMicB=T.
 CutRad = 1000.00    CtRdIn =    0.00    XCrit =  15.00   ICut = 0
 IPart= 3        14136 of        16322 points in      34 batches and       85 microbatches, Max-NSigAt=      16 Max-NSgAt2=      16
 IPart= 2        14723 of        16322 points in      32 batches and       91 microbatches, Max-NSigAt=      16 Max-NSgAt2=      16
 IPart= 4        14460 of        16802 points in      35 batches and      100 microbatches, Max-NSigAt=      16 Max-NSgAt2=      16
 IPart= 0        15065 of        16382 points in      33 batches and       99 microbatches, Max-NSigAt=      16 Max-NSgAt2=      16
 IPart= 7        13012 of        14866 points in      30 batches and       84 microbatches, Max-NSigAt=      16 Max-NSgAt2=      16
 IPart= 6        15339 of        17976 points in      39 batches and      118 microbatches, Max-NSigAt=      16 Max-NSgAt2=      16
 IPart= 1        11820 of        13148 points in      27 batches and       91 microbatches, Max-NSigAt=      16 Max-NSgAt2=      16
 IPart= 5        14077 of        16264 points in      34 batches and      130 microbatches, Max-NSigAt=      16 Max-NSgAt2=      16
 Polarizability after L703:
                1             2             3
      1  0.689296D+02
      2  0.150208D+02  0.748979D+02
      3  0.999000D+01  0.160268D+02  0.672502D+02
 Dipole Derivatives after L703:
               1            2            3            4            5
      1-0.108900D+01 0.804573D-01-0.490957D-01 0.333893D+00-0.112948D+00
      2 0.354743D+00-0.320542D+00 0.150393D+00 0.355027D-01 0.304344D+00
      3-0.947123D-01 0.139365D+00-0.382424D+00 0.846364D-01-0.108001D+00
               6            7            8            9           10
      1 0.778896D-01 0.918004D+00-0.717688D-01 0.204666D-01-0.218230D-01
      2-0.822005D-01-0.617896D+00-0.262996D+00-0.609124D+00-0.335543D-01
      3 0.273361D+00 0.186862D-01-0.201168D+00 0.244541D+00 0.453850D-01
              11           12           13           14           15
      1 0.160156D-01 0.673593D-01 0.244449D+00 0.128256D-01-0.698151D-01
      2 0.645063D-01 0.563960D-01 0.443513D+00-0.319422D-01 0.591761D+00
      3 0.588383D-01-0.772313D-01 0.475124D-01 0.658673D-02 0.311912D+00
              16           17           18           19           20
      1-0.662708D-01-0.119472D-01 0.663933D-01 0.716855D-01-0.479577D-01
      2-0.846477D-01 0.163684D+00-0.310979D-01-0.444956D-01-0.789252D-01
      3-0.246967D-01 0.270752D-01-0.722352D-01 0.167432D-03-0.111306D+00
              21           22           23           24           25
      1-0.217734D-01-0.739530D-01-0.278339D-01-0.351396D-02 0.375320D-01
      2-0.845917D-01-0.714286D-02 0.680662D-01 0.357733D-02 0.912393D-01
      3-0.244599D-01 0.586570D-01 0.757102D-02 0.784412D-01-0.236691D-01
              26           27           28           29           30
      1 0.740362D-01-0.416344D-01-0.449249D-01 0.509869D-02-0.366633D-01
      2-0.364409D-01 0.575326D-02-0.383852D-01 0.144015D+00-0.704477D-01
      3 0.115022D+00-0.445589D-01 0.403675D-01 0.336127D-01 0.401003D-02
              31           32           33           34           35
      1 0.292624D-01-0.892481D-02 0.871919D-01 0.535957D-03-0.903807D-01
      2-0.897632D-02 0.706742D-01 0.281265D-01-0.617775D-01-0.832470D-01
      3 0.158395D-01 0.198315D-02-0.112927D+00-0.300261D-01-0.925681D-01
              36           37           38           39           40
      1-0.211332D-01-0.384913D-01 0.991129D-01-0.359251D-01 0.140301D+00
      2-0.829886D-01-0.720293D-02-0.338512D-01 0.761666D-01 0.768816D+00
      3 0.361648D-01-0.638118D-01 0.780084D-01 0.349893D-01 0.378752D+00
              41           42           43           44           45
      1 0.280482D+00 0.582591D-01-0.662133D+00-0.214754D+00-0.680727D-01
      2 0.341571D+00 0.264046D+00-0.769388D+00-0.677596D+00-0.190293D+00
      3 0.256990D+00-0.184647D+00-0.437906D+00-0.301146D+00-0.201084D+00
              46           47           48
      1 0.220928D+00 0.184874D-01-0.299331D-01
      2-0.203484D-01 0.368681D+00-0.254764D-01
      3-0.151819D-01 0.891377D-01 0.116149D+00
 Hessian after L703:
                1             2             3             4             5
      1  0.461719D+00
      2  0.993594D-01  0.312598D+00
      3  0.487222D-01  0.222302D+00  0.266502D+00
      4 -0.856311D-01 -0.850128D-01 -0.661399D-01  0.129968D+00
      5 -0.108710D+00 -0.230341D+00 -0.194646D+00  0.117952D+00  0.227745D+00
      6 -0.888043D-01 -0.197138D+00 -0.180076D+00  0.956393D-01  0.192557D+00
      7 -0.287473D+00 -0.126557D-01  0.284392D-01 -0.340756D-01 -0.198022D-01
      8  0.199714D-01 -0.539450D-01 -0.708893D-02 -0.302102D-01 -0.399344D-02
      9  0.612690D-01 -0.576758D-02 -0.969831D-01 -0.311444D-01 -0.581693D-02
     10 -0.285137D-01 -0.751119D-02  0.321410D-01  0.429846D-03  0.220075D-02
     11  0.195254D-02  0.563474D-02 -0.230616D-02  0.190394D-03  0.900186D-03
     12  0.557303D-02  0.550505D-03  0.638331D-02  0.362218D-03 -0.927402D-03
     13 -0.524203D-01 -0.201958D-01 -0.378113D-01 -0.587345D-02  0.836655D-02
     14 -0.449041D-02  0.225009D-02 -0.913371D-03 -0.142539D-02  0.192186D-04
     15 -0.200656D-01 -0.799248D-02  0.462255D-02  0.260840D-02  0.818789D-02
     16 -0.188264D-02  0.492559D-03  0.101157D-02  0.334027D-03 -0.149659D-03
     17  0.878538D-04 -0.270192D-02 -0.130867D-03 -0.625210D-03  0.554879D-04
     18  0.352532D-02  0.569834D-03 -0.789063D-03  0.649128D-03 -0.149939D-03
     19  0.636407D-03  0.414675D-03 -0.112937D-02 -0.195361D-04  0.178127D-03
     20 -0.162008D-03  0.171044D-03 -0.127026D-03  0.959718D-04 -0.757424D-04
     21 -0.600110D-03 -0.452491D-03  0.380475D-03  0.492949D-04 -0.206979D-04
     22  0.751985D-03  0.621450D-04 -0.340011D-02  0.148640D-03  0.813114D-04
     23  0.160892D-04 -0.815060D-03 -0.261987D-04  0.140689D-03  0.111863D-03
     24 -0.190981D-02  0.240814D-03 -0.105018D-02 -0.498307D-03 -0.802143D-03
     25  0.591422D-03 -0.899223D-03 -0.970147D-03  0.766426D-04  0.407826D-03
     26  0.316544D-03 -0.392197D-04  0.243797D-04 -0.233092D-04  0.518339D-04
     27 -0.405999D-03  0.482929D-03  0.339011D-03  0.158561D-03 -0.409506D-04
     28  0.251888D-02 -0.167161D-02 -0.851253D-03 -0.559418D-03  0.273034D-04
     29 -0.116868D-02  0.588223D-02 -0.110925D-02  0.105119D-02  0.121200D-02
     30 -0.418576D-02 -0.198385D-02 -0.377507D-02 -0.101540D-02  0.193937D-03
     31  0.742194D-03  0.441073D-03 -0.635844D-03  0.502748D-04 -0.189077D-03
     32  0.277517D-03 -0.107079D-03 -0.421980D-04 -0.329433D-04 -0.268503D-04
     33  0.262630D-03 -0.148094D-03  0.414735D-03 -0.313167D-04 -0.508529D-04
     34 -0.196828D-02  0.833970D-03 -0.111870D-02  0.678305D-04  0.211203D-03
     35 -0.366619D-03  0.139403D-03 -0.309384D-04  0.901858D-04 -0.918761D-04
     36 -0.809300D-04 -0.116960D-03  0.191018D-03  0.974468D-05  0.121681D-03
     37 -0.135384D-02 -0.168656D-02 -0.767635D-03 -0.351196D-03 -0.192370D-03
     38  0.210607D-03 -0.301852D-03  0.264134D-04 -0.126705D-03 -0.163263D-04
     39 -0.156960D-03 -0.517237D-03  0.100287D-03 -0.829007D-04  0.152444D-03
     40 -0.236292D-01  0.111858D-01 -0.420455D-02 -0.593713D-02  0.796744D-02
     41  0.369216D-02 -0.232959D-01 -0.800810D-02 -0.110226D-02  0.220558D-02
     42 -0.279751D-02 -0.917381D-02  0.997438D-03 -0.150558D-02  0.149049D-02
     43  0.164670D-01  0.159480D-01  0.571659D-02 -0.209409D-03 -0.756742D-02
     44 -0.124965D-01 -0.163673D-01 -0.592194D-02 -0.630339D-03  0.410083D-02
     45 -0.155938D-02 -0.617512D-03  0.320811D-02  0.667437D-03 -0.766350D-03
     46 -0.554129D-03  0.895171D-03  0.998211D-03  0.158202D-02 -0.781458D-03
     47  0.151007D-02  0.123862D-02 -0.200255D-02 -0.331025D-03 -0.185667D-02
     48  0.121419D-02 -0.238095D-03 -0.465837D-03  0.273747D-03  0.517744D-03
                6             7             8             9            10
      6  0.181172D+00
      7 -0.120390D-01  0.615150D+00
      8  0.795463D-03  0.502775D-01  0.418194D-01
      9 -0.991666D-03  0.125376D-02 -0.843369D-01  0.676932D+00
     10  0.141313D-02 -0.841528D-01 -0.196066D-01  0.787321D-01  0.101430D+00
     11  0.134749D-03 -0.214701D-01 -0.331978D-01  0.602175D-01  0.213435D-01
     12  0.517042D-03  0.785261D-01  0.500609D-01 -0.289656D+00 -0.916918D-01
     13  0.291087D-02 -0.157827D+00  0.134379D-01 -0.915813D-01  0.861361D-02
     14 -0.376878D-03 -0.213574D-01 -0.265689D-01 -0.202895D-01  0.270879D-02
     15  0.415043D-02 -0.915134D-01  0.290861D-01 -0.251961D+00 -0.145852D-01
     16 -0.302692D-03  0.149871D-01  0.949347D-03 -0.143738D-01 -0.199512D-02
     17 -0.105121D-03  0.197583D-02  0.897061D-02 -0.774588D-02 -0.180149D-02
     18 -0.318904D-03  0.357816D-02 -0.199592D-02 -0.313371D-01 -0.197505D-02
     19 -0.101202D-03 -0.185489D-02 -0.973788D-04  0.144644D-02  0.283813D-03
     20  0.103655D-03  0.692505D-03 -0.818498D-03  0.141242D-02  0.182620D-03
     21  0.133188D-04  0.442390D-02  0.109685D-02 -0.242164D-02 -0.780932D-03
     22 -0.166220D-03 -0.221072D-02 -0.500262D-03 -0.711748D-03 -0.178042D-04
     23 -0.295450D-03 -0.368579D-03  0.274471D-04 -0.522853D-03  0.180130D-04
     24  0.352876D-03  0.311698D-02  0.384939D-03  0.696757D-03 -0.179154D-03
     25 -0.171720D-03 -0.181835D-02  0.311151D-03  0.217133D-03  0.690198D-04
     26 -0.142338D-03 -0.105195D-02 -0.191667D-02 -0.113117D-02  0.112235D-04
     27  0.764922D-04  0.356647D-02  0.154083D-02 -0.121693D-02 -0.252703D-03
     28 -0.207315D-03 -0.254074D-01 -0.656358D-02 -0.306621D-02  0.108953D-02
     29  0.487295D-04 -0.946114D-02  0.254881D-02 -0.309093D-03  0.936446D-03
     30  0.218339D-04 -0.223402D-01 -0.309328D-02  0.694138D-02 -0.200465D-02
     31  0.137073D-03  0.635205D-03  0.354865D-03  0.286383D-02 -0.129638D-03
     32 -0.129651D-04 -0.115955D-03 -0.257049D-03  0.489656D-04 -0.197325D-03
     33  0.214288D-04 -0.231720D-02 -0.395968D-03 -0.145861D-03  0.202190D-03
     34  0.125798D-03 -0.253397D-02 -0.652414D-03  0.327873D-02 -0.156807D-04
     35  0.874354D-04  0.610056D-03 -0.700167D-03  0.130793D-02 -0.875211D-05
     36 -0.761143D-05 -0.292889D-03  0.525234D-03  0.429350D-03  0.167176D-03
     37  0.163931D-03 -0.106802D-02  0.192812D-02  0.335491D-02 -0.647178D-04
     38 -0.151099D-03 -0.100599D-02 -0.122527D-02 -0.655398D-03 -0.116544D-03
     39  0.493652D-05 -0.549780D-03  0.335461D-03 -0.595850D-03 -0.100517D-03
     40  0.275619D-02 -0.369280D-02  0.782017D-03  0.120474D-01  0.226735D-02
     41 -0.554526D-04  0.398415D-01  0.850792D-01  0.711345D-01  0.136654D-02
     42  0.104762D-03  0.127799D-01  0.261303D-01 -0.259062D-02 -0.810185D-03
     43  0.110619D-02 -0.291080D-01 -0.313249D-01 -0.242838D-01  0.696810D-03
     44  0.734440D-03 -0.332831D-02 -0.173909D-01 -0.115800D-01  0.603767D-04
     45 -0.516745D-02 -0.324593D-02 -0.114239D-01 -0.628190D-02 -0.269697D-03
     46 -0.246001D-02  0.450383D-03  0.943021D-03  0.697978D-03  0.981220D-05
     47  0.381645D-02 -0.278008D-02  0.156825D-02  0.403409D-02  0.413692D-03
     48  0.125899D-03 -0.338605D-02 -0.162108D-02 -0.818173D-03 -0.567393D-05
               11            12            13            14            15
     11  0.459490D-01
     12 -0.513498D-01  0.299709D+00
     13 -0.257919D-02  0.101338D-01  0.567724D+00
     14  0.310898D-02  0.533035D-02  0.625601D-01  0.169962D+00
     15 -0.124701D-01 -0.200548D-01  0.442391D-01  0.229880D-01  0.598439D+00
     16 -0.146112D-02 -0.307481D-02 -0.109139D+00 -0.690714D-02  0.478791D-01
     17  0.437840D-02 -0.696304D-03 -0.598639D-02 -0.631155D-01  0.727215D-02
     18 -0.720030D-03 -0.530854D-03  0.441712D-01  0.321410D-02 -0.192919D+00
     19 -0.513675D-03  0.123387D-03  0.325740D-02  0.105136D-01  0.413693D-02
     20 -0.882458D-04  0.141555D-03  0.954966D-03  0.437648D-02 -0.561027D-04
     21  0.682580D-03 -0.705082D-03 -0.780580D-02 -0.236856D-01 -0.225804D-01
     22  0.744362D-04  0.711765D-04 -0.113125D-01 -0.122525D-02  0.161605D-02
     23  0.340222D-04  0.502492D-04 -0.139926D-02 -0.179607D-02  0.706188D-03
     24  0.316045D-03  0.447561D-03  0.330623D-01  0.390102D-02  0.264958D-02
     25  0.466875D-03  0.926560D-04  0.637325D-02 -0.102551D-01  0.434499D-02
     26  0.000000D+00  0.241925D-04 -0.872302D-03  0.169788D-02  0.268465D-02
     27 -0.115309D-02 -0.621432D-03 -0.120398D-01  0.217839D-01 -0.236993D-01
     28  0.856090D-03  0.153367D-02 -0.211070D+00 -0.200948D-01  0.151881D-01
     29 -0.241656D-02 -0.765651D-03 -0.187239D-01 -0.631273D-01  0.216295D-02
     30  0.113015D-03  0.200648D-03  0.222847D-01  0.202319D-02 -0.917350D-01
     31  0.140042D-03 -0.118190D-02 -0.736848D-02 -0.122642D-02  0.332324D-01
     32  0.268567D-03  0.492445D-04 -0.112726D-03 -0.194443D-02  0.415382D-02
     33  0.173319D-03  0.704248D-03  0.127676D-02  0.282700D-03 -0.247176D-02
     34 -0.188942D-03 -0.213559D-03 -0.154215D-01 -0.262501D-01 -0.172468D-01
     35  0.440492D-04  0.395371D-04 -0.297890D-02 -0.129134D-03 -0.137950D-02
     36 -0.429504D-03  0.174520D-03 -0.307706D-02  0.360176D-02  0.118776D-02
     37  0.423899D-03  0.463215D-04 -0.229357D-01  0.215562D-01 -0.160774D-01
     38  0.481746D-04  0.239455D-05 -0.908095D-03  0.639441D-02 -0.278240D-02
     39  0.340934D-03  0.415877D-03 -0.184340D-02 -0.433990D-02  0.182813D-02
     40  0.343746D-04 -0.640706D-03 -0.622931D-02 -0.383187D-02 -0.121939D-01
     41 -0.242328D-01 -0.294487D-02 -0.327977D-01 -0.269703D-01 -0.531964D-01
     42  0.558737D-02  0.295336D-02 -0.787030D-02 -0.128060D-01 -0.124649D-01
     43  0.728157D-03  0.459843D-03  0.140561D-01 -0.261311D-03  0.190702D-01
     44  0.296653D-03  0.461338D-03  0.239717D-02 -0.323184D-02  0.181244D-02
     45  0.128349D-02  0.148367D-03  0.302742D-02 -0.136643D-03  0.309286D-02
     46  0.270955D-05 -0.119385D-03 -0.427072D-03 -0.135374D-04 -0.633118D-03
     47 -0.727344D-03 -0.262096D-04 -0.116245D-02 -0.925879D-03 -0.117708D-02
     48 -0.420361D-03 -0.862885D-04  0.922875D-03 -0.577076D-03  0.191621D-02
               16            17            18            19            20
     16  0.577145D+00
     17  0.100737D-01  0.506262D+00
     18  0.227596D-01  0.929985D-02  0.478109D+00
     19 -0.605851D-01 -0.495209D-01 -0.265000D-01  0.598019D-01
     20 -0.505972D-01 -0.216684D+00 -0.106687D+00  0.548582D-01  0.237621D+00
     21 -0.290162D-01 -0.109752D+00 -0.105755D+00  0.312005D-01  0.118168D+00
     22 -0.315507D+00 -0.289722D-01 -0.249635D-02 -0.480151D-02 -0.434206D-03
     23 -0.287467D-01 -0.513584D-01 -0.618025D-03 -0.271351D-01 -0.201455D-02
     24 -0.788678D-02 -0.104156D-02 -0.474232D-01 -0.158537D-01 -0.112820D-03
     25 -0.883622D-01  0.773204D-01 -0.459194D-01  0.266679D-02 -0.604094D-02
     26  0.792083D-01 -0.190231D+00  0.940350D-01  0.116332D-01 -0.229909D-01
     27 -0.503211D-01  0.979236D-01 -0.994057D-01  0.667199D-02 -0.124673D-01
     28 -0.112987D-01 -0.178422D-02  0.601700D-02  0.311770D-03 -0.207842D-04
     29 -0.182147D-02  0.114323D-02  0.927455D-03  0.272073D-03  0.478403D-03
     30  0.326653D-01  0.388460D-02 -0.118322D-02 -0.211181D-03 -0.355019D-04
     31 -0.597881D-02 -0.105302D-02 -0.155810D-02  0.133643D-03  0.153519D-03
     32 -0.972624D-03  0.110891D-02 -0.255494D-03 -0.121996D-03  0.196771D-03
     33  0.113728D-02  0.364604D-04  0.127593D-02 -0.216223D-03  0.547472D-04
     34  0.148540D-02  0.267885D-03 -0.896241D-03 -0.145583D-03  0.363601D-03
     35  0.194297D-03  0.454403D-03 -0.116098D-03 -0.384020D-03  0.147663D-03
     36 -0.949621D-05  0.349154D-03 -0.366081D-04  0.109902D-03 -0.113446D-03
     37  0.140631D-02 -0.586719D-04 -0.954631D-03  0.388719D-04 -0.556941D-04
     38  0.584214D-04  0.448291D-03 -0.891063D-04  0.355389D-04 -0.213453D-03
     39 -0.463539D-04 -0.114190D-03 -0.728214D-04  0.205047D-03 -0.144292D-04
     40  0.104219D-02 -0.359055D-03  0.508026D-04 -0.376963D-03  0.508333D-04
     41  0.553870D-03  0.114616D-02  0.260013D-02 -0.449409D-03 -0.754915D-04
     42  0.294562D-03  0.359577D-03  0.620277D-03 -0.121288D-03 -0.286341D-03
     43 -0.177432D-02  0.512057D-03 -0.487964D-03  0.667928D-03 -0.825805D-04
     44 -0.896168D-03  0.277798D-03 -0.249519D-03  0.256426D-03 -0.144891D-03
     45 -0.473887D-03  0.329803D-03 -0.390404D-03  0.893352D-04 -0.767047D-04
     46  0.122591D-03 -0.766404D-04  0.366020D-04 -0.149896D-04  0.411128D-04
     47  0.215104D-04 -0.154468D-03  0.234713D-03  0.605407D-04  0.114127D-03
     48 -0.242345D-03  0.130310D-03  0.156728D-03  0.149415D-03  0.957248D-04
               21            22            23            24            25
     21  0.121833D+00
     22 -0.458607D-03  0.342679D+00
     23  0.502057D-03  0.322547D-01  0.503081D-01
     24 -0.697190D-03  0.375408D-02  0.258754D-03  0.521610D-01
     25  0.372591D-02 -0.104220D-01  0.256598D-01 -0.147996D-01  0.905777D-01
     26  0.129106D-01 -0.136156D-02  0.368660D-02 -0.312656D-02 -0.874047D-01
     27  0.837103D-02 -0.363387D-03 -0.428519D-03 -0.756822D-03  0.533581D-01
     28 -0.127144D-02  0.704849D-03 -0.885593D-04  0.400682D-03  0.210478D-03
     29  0.176003D-04 -0.587189D-04  0.108142D-02 -0.595139D-04 -0.132181D-03
     30  0.101147D-02  0.258453D-02  0.336428D-03 -0.595475D-02 -0.363974D-03
     31 -0.252311D-03 -0.650894D-03 -0.170131D-03  0.177574D-02  0.111113D-03
     32  0.460082D-03 -0.128560D-03  0.509750D-03  0.243198D-03  0.170456D-03
     33  0.149836D-03 -0.115777D-03  0.000000D+00 -0.394856D-03 -0.228696D-03
     34  0.898715D-03  0.148827D-03  0.477377D-03 -0.249711D-03  0.812970D-05
[...]
    Y7        6.68297   0.00000   0.00000   0.00079   0.00077   6.68373
    Z7        6.36147   0.00000   0.00000  -0.00064  -0.00067   6.36080
    X8       -3.15320   0.00000   0.00000   0.00023   0.00025  -3.15295
    Y8        4.75233   0.00000   0.00000  -0.00147  -0.00141   4.75092
    Z8        5.26990   0.00000   0.00000  -0.00007  -0.00009   5.26982
    X9       -0.27440  -0.00001   0.00000   0.00115   0.00113  -0.27327
    Y9        3.38091   0.00000   0.00000   0.00104   0.00100   3.38191
    Z9        6.32725   0.00000   0.00000   0.00081   0.00078   6.32803
   X10        2.72436   0.00000   0.00000   0.00013   0.00015   2.72452
   Y10        5.45887   0.00000   0.00000  -0.00004  -0.00016   5.45871
   Z10        2.34245   0.00000   0.00000   0.00012   0.00007   2.34252
   X11        3.26731   0.00000   0.00000   0.00032   0.00034   3.26765
   Y11        5.55703   0.00000   0.00000  -0.00103  -0.00117   5.55586
   Z11        0.35478   0.00000   0.00000   0.00013   0.00008   0.35485
   X12        3.37320   0.00000   0.00000  -0.00027  -0.00019   3.37301
   Y12        7.18923   0.00000   0.00000   0.00061   0.00046   7.18970
   Z12        3.28177   0.00000   0.00000  -0.00076  -0.00082   3.28095
   X13        3.76898   0.00000   0.00000   0.00031   0.00029   3.76927
   Y13        3.89007   0.00000   0.00000   0.00066   0.00050   3.89057
   Z13        3.20924   0.00001   0.00000   0.00114   0.00109   3.21032
   X14       -0.97777   0.00000   0.00000  -0.00022  -0.00035  -0.97812
   Y14        1.00965   0.00000   0.00000  -0.00002  -0.00003   1.00962
   Z14        0.02938   0.00000   0.00000  -0.00049  -0.00052   0.02886
   X15       -3.38842   0.00000   0.00000  -0.00038  -0.00054  -3.38897
   Y15        0.04273   0.00000   0.00000   0.00019   0.00025   0.04298
   Z15       -0.60418   0.00000   0.00000  -0.00021  -0.00022  -0.60440
   X16       -3.90263   0.00000   0.00000  -0.00010  -0.00028  -3.90291
   Y16       -0.80485   0.00000   0.00000  -0.00009  -0.00001  -0.80486
   Z16        0.93329   0.00000   0.00000  -0.00027  -0.00028   0.93301
         Item               Value     Threshold  Converged?
 Maximum Force            0.000007     0.000450     YES
 RMS     Force            0.000003     0.000300     YES
 Maximum Displacement     0.001412     0.001800     YES
 RMS     Displacement     0.000515     0.001200     YES
 Predicted change in Energy=-5.785512D-10
 Optimization completed.
    -- Stationary point found.
 GradGradGradGradGradGradGradGradGradGradGradGradGradGradGradGradGradGrad


 Test job not archived.
 1\1\GINC-NODE38\Freq\UB3LYP\CBSB7\C4H9O3(2)\NYEE\08-Jul-2014\0\\# freq
  nosymm b3lyp/cbsb7 iop(7/33=1)\\Title Card Required\\0,2\O,-2.177302,
 2.476642,0.426679\H,-2.526891,1.77525,-0.154658\C,-0.829436,2.44886,0.
 2967\H,-0.433034,2.671962,-0.690347\C,-0.030934,2.701532,1.414012\C,-0
 .586205,2.631684,2.7992\H,-0.336604,3.536474,3.366345\H,-1.668604,2.51
 4826,2.788713\H,-0.145207,1.789098,3.348234\C,1.441671,2.88871,1.23957
 3\H,1.728986,2.940655,0.187741\H,1.785019,3.804379,1.736636\H,1.99446,
 2.058535,1.698255\O,-0.517414,0.534282,0.015545\O,-1.793077,0.022612,-
 0.319719\H,-2.065185,-0.425907,0.493874\\Version=AM64L-G03RevD.01\HF=-
 383.4610757\S2=0.773462\S2-1=0.\S2A=0.750117\RMSD=4.003e-09\RMSF=3.137
 e-06\ZeroPoint=0.1282499\Thermal=0.1374588\Dipole=0.0301457,0.1886948,
 0.5890112\DipoleDeriv=-1.088995,0.3547432,-0.0947123,0.0804573,-0.3205
 421,0.1393647,-0.0490957,0.1503928,-0.3824242,0.3338934,0.0355027,0.08
 46364,-0.112948,0.3043435,-0.1080007,0.0778896,-0.0822005,0.2733615,0.
 9180037,-0.6178963,0.0186862,-0.0717688,-0.2629961,-0.2011684,0.020466
 6,-0.6091238,0.2445408,-0.021823,-0.0335543,0.045385,0.0160156,0.06450
 63,0.0588383,0.0673593,0.056396,-0.0772313,0.2444485,0.4435135,0.04751
 24,0.0128256,-0.0319422,0.0065867,-0.0698151,0.5917613,0.3119116,-0.06
 62708,-0.0846477,-0.0246967,-0.0119472,0.1636838,0.0270752,0.0663933,-
 0.0310979,-0.0722352,0.0716855,-0.0444956,0.0001674,-0.0479577,-0.0789
 252,-0.1113065,-0.0217734,-0.0845917,-0.0244599,-0.073953,-0.0071429,0
 .058657,-0.0278339,0.0680662,0.007571,-0.003514,0.0035773,0.0784412,0.
 037532,0.0912393,-0.0236691,0.0740362,-0.0364409,0.1150217,-0.0416344,
 0.0057533,-0.0445589,-0.0449249,-0.0383852,0.0403675,0.0050987,0.14401
 48,0.0336127,-0.0366633,-0.0704477,0.00401,0.0292624,-0.0089763,0.0158
 395,-0.0089248,0.0706742,0.0019831,0.0871919,0.0281265,-0.1129269,0.00
 0536,-0.0617775,-0.0300261,-0.0903807,-0.083247,-0.0925681,-0.0211332,
 -0.0829886,0.0361648,-0.0384913,-0.0072029,-0.0638118,0.0991129,-0.033
 8512,0.0780084,-0.0359251,0.0761666,0.0349893,0.1403013,0.7688164,0.37
 87522,0.2804818,0.341571,0.2569898,0.0582591,0.264046,-0.1846472,-0.66
 21332,-0.7693879,-0.4379059,-0.2147543,-0.6775959,-0.3011458,-0.068072
 7,-0.1902932,-0.2010844,0.2209285,-0.0203484,-0.0151819,0.0184874,0.36
 86807,0.0891377,-0.0299331,-0.0254764,0.1161487\Polar=68.9296114,15.02
 07568,74.897859,9.9899965,16.0268459,67.2502047\PG=C01 [X(C4H9O3)]\NIm
 ag=1\\0.46171851,0.09935940,0.31259799,0.04872217,0.22230225,0.2665018
 4,-0.08563112,-0.08501282,-0.06613988,0.12996756,-0.10871002,-0.230340
 78,-0.19464552,0.11795172,0.22774469,-0.08880428,-0.19713822,-0.180075
 55,0.09563927,0.19255660,0.18117216,-0.28747318,-0.01265568,0.02843922
 ,-0.03407558,-0.01980222,-0.01203901,0.61514957,0.01997144,-0.05394497
 ,-0.00708893,-0.03021015,-0.00399344,0.00079546,0.05027750,0.04181937,
 0.06126897,-0.00576758,-0.09698307,-0.03114442,-0.00581693,-0.00099167
 ,0.00125376,-0.08433693,0.67693177,-0.02851371,-0.00751119,0.03214100,
 0.00042985,0.00220075,0.00141313,-0.08415277,-0.01960662,0.07873211,0.
 10142963,0.00195254,0.00563474,-0.00230616,0.00019039,0.00090019,0.000
 13475,-0.02147006,-0.03319784,0.06021752,0.02134348,0.04594895,0.00557
 303,0.00055050,0.00638331,0.00036222,-0.00092740,0.00051704,0.07852608
 ,0.05006086,-0.28965556,-0.09169179,-0.05134978,0.29970911,-0.05242027
 ,-0.02019579,-0.03781127,-0.00587345,0.00836655,0.00291087,-0.15782656
 ,0.01343787,-0.09158133,0.00861361,-0.00257919,0.01013377,0.56772359,-
 0.00449041,0.00225009,-0.00091337,-0.00142539,0.00001922,-0.00037688,-
 0.02135738,-0.02656887,-0.02028949,0.00270879,0.00310898,0.00533035,0.
 06256014,0.16996235,-0.02006557,-0.00799248,0.00462255,0.00260840,0.00
 818789,0.00415043,-0.09151339,0.02908605,-0.25196091,-0.01458524,-0.01
 247009,-0.02005482,0.04423908,0.02298799,0.59843856,-0.00188264,0.0004
 9256,0.00101157,0.00033403,-0.00014966,-0.00030269,0.01498708,0.000949
 35,-0.01437377,-0.00199512,-0.00146112,-0.00307481,-0.10913905,-0.0069
 0714,0.04787911,0.57714548,0.00008785,-0.00270192,-0.00013087,-0.00062
 521,0.00005549,-0.00010512,0.00197583,0.00897061,-0.00774588,-0.001801
 49,0.00437840,-0.00069630,-0.00598639,-0.06311555,0.00727215,0.0100737
 1,0.50626209,0.00352532,0.00056983,-0.00078906,0.00064913,-0.00014994,
 -0.00031890,0.00357816,-0.00199592,-0.03133708,-0.00197505,-0.00072003
 ,-0.00053085,0.04417118,0.00321410,-0.19291903,0.02275960,0.00929985,0
 .47810928,0.00063641,0.00041468,-0.00112937,-0.00001954,0.00017813,-0.
 00010120,-0.00185489,-0.00009738,0.00144644,0.00028381,-0.00051367,0.0
 0012339,0.00325740,0.01051356,0.00413693,-0.06058510,-0.04952085,-0.02
 650003,0.05980195,-0.00016201,0.00017104,-0.00012703,0.00009597,-0.000
 07574,0.00010365,0.00069251,-0.00081850,0.00141242,0.00018262,-0.00008
 825,0.00014156,0.00095497,0.00437648,-0.00005610,-0.05059716,-0.216683
 87,-0.10668692,0.05485824,0.23762118,-0.00060011,-0.00045249,0.0003804
 8,0.00004929,-0.00002070,0.00001332,0.00442390,0.00109685,-0.00242164,
 -0.00078093,0.00068258,-0.00070508,-0.00780580,-0.02368562,-0.02258042
 ,-0.02901617,-0.10975163,-0.10575532,0.03120055,0.11816845,0.12183291,
 0.00075198,0.00006215,-0.00340011,0.00014864,0.00008131,-0.00016622,-0
 .00221072,-0.00050026,-0.00071175,-0.00001780,0.00007444,0.00007118,-0
 .01131251,-0.00122525,0.00161605,-0.31550713,-0.02897222,-0.00249635,-
 0.00480151,-0.00043421,-0.00045861,0.34267931,0.00001609,-0.00081506,-
 0.00002620,0.00014069,0.00011186,-0.00029545,-0.00036858,0.00002745,-0
 .00052285,0.00001801,0.00003402,0.00005025,-0.00139926,-0.00179607,0.0
 0070619,-0.02874665,-0.05135839,-0.00061802,-0.02713507,-0.00201455,0.
 00050206,0.03225472,0.05030807,-0.00190981,0.00024081,-0.00105018,-0.0
 0049831,-0.00080214,0.00035288,0.00311698,0.00038494,0.00069676,-0.000
 17915,0.00031604,0.00044756,0.03306232,0.00390102,0.00264958,-0.007886
 78,-0.00104156,-0.04742318,-0.01585370,-0.00011282,-0.00069719,0.00375
 408,0.00025875,0.05216096,0.00059142,-0.00089922,-0.00097015,0.0000766
 4,0.00040783,-0.00017172,-0.00181835,0.00031115,0.00021713,0.00006902,
 0.00046688,0.00009266,0.00637325,-0.01025505,0.00434499,-0.08836222,0.
 07732044,-0.04591942,0.00266679,-0.00604094,0.00372591,-0.01042199,0.0
 2565985,-0.01479957,0.09057772,0.00031654,-0.00003922,0.00002438,-0.00
 002331,0.00005183,-0.00014234,-0.00105195,-0.00191667,-0.00113117,0.00
 001122,0.00000002,0.00002419,-0.00087230,0.00169788,0.00268465,0.07920
 828,-0.19023118,0.09403498,0.01163322,-0.02299092,0.01291059,-0.001361
 56,0.00368660,-0.00312656,-0.08740469,0.20864161,-0.00040600,0.0004829
 3,0.00033901,0.00015856,-0.00004095,0.00007649,0.00356647,0.00154083,-
 0.00121693,-0.00025270,-0.00115309,-0.00062143,-0.01203981,0.02178391,
 -0.02369927,-0.05032110,0.09792365,-0.09940572,0.00667199,-0.01246725,
 0.00837103,-0.00036339,-0.00042852,-0.00075682,0.05335812,-0.10540010,
 0.11519891,0.00251888,-0.00167161,-0.00085125,-0.00055942,0.00002730,-
 0.00020732,-0.02540739,-0.00656358,-0.00306621,0.00108953,0.00085609,0
 .00153367,-0.21107003,-0.02009481,0.01518812,-0.01129867,-0.00178422,0
 .00601700,0.00031177,-0.00002078,-0.00127144,0.00070485,-0.00008856,0.
 00040068,0.00021048,0.00006490,-0.00118779,0.47607295,-0.00116868,0.00
 588223,-0.00110925,0.00105119,0.00121200,0.00004873,-0.00946114,0.0025
 4881,-0.00030909,0.00093645,-0.00241656,-0.00076565,-0.01872395,-0.063
 12731,0.00216295,-0.00182147,0.00114323,0.00092745,0.00027207,0.000478
 40,0.00001760,-0.00005872,0.00108142,-0.00005951,-0.00013218,0.0004902
 4,-0.00033479,0.00143772,0.50661607,-0.00418576,-0.00198385,-0.0037750
 7,-0.00101540,0.00019394,0.00002183,-0.02234017,-0.00309328,0.00694138
 ,-0.00200465,0.00011301,0.00020065,0.02228471,0.00202319,-0.09173501,0
 .03266529,0.00388460,-0.00118322,-0.00021118,-0.00003550,0.00101147,0.
 00258453,0.00033643,-0.00595475,-0.00036397,-0.00007922,0.00103532,-0.
 00633768,0.00175063,0.57633820,0.00074219,0.00044107,-0.00063584,0.000
 05027,-0.00018908,0.00013707,0.00063521,0.00035487,0.00286383,-0.00012
 964,0.00014004,-0.00118190,-0.00736848,-0.00122642,0.03323242,-0.00597
 881,-0.00105302,-0.00155810,0.00013364,0.00015352,-0.00025231,-0.00065
 089,-0.00017013,0.00177574,0.00011111,-0.00016622,-0.00009970,-0.06513
 884,-0.00362008,0.06183067,0.07181047,0.00027752,-0.00010708,-0.000042
 20,-0.00003294,-0.00002685,-0.00001297,-0.00011595,-0.00025705,0.00004
 897,-0.00019733,0.00026857,0.00004924,-0.00011273,-0.00194443,0.004153
 82,-0.00097262,0.00110891,-0.00025549,-0.00012200,0.00019677,0.0004600
 8,-0.00012856,0.00050975,0.00024320,0.00017046,0.00020455,-0.00055231,
 -0.00397394,-0.04728946,0.01140661,0.00454836,0.04551397,0.00026263,-0
 .00014809,0.00041473,-0.00003132,-0.00005085,0.00002143,-0.00231720,-0
 .00039597,-0.00014586,0.00020219,0.00017332,0.00070425,0.00127676,0.00
 028270,-0.00247176,0.00113728,0.00003646,0.00127593,-0.00021622,0.0000
 5475,0.00014984,-0.00011578,-0.00000003,-0.00039486,-0.00022870,-0.000
 09064,0.00018607,0.06522393,0.01194831,-0.29457050,-0.07062612,-0.0132
 1774,0.31930553,-0.00196828,0.00083397,-0.00111870,0.00006783,0.000211
 20,0.00012580,-0.00253397,-0.00065241,0.00327873,-0.00001568,-0.000188
 94,-0.00021356,-0.01542145,-0.02625010,-0.01724679,0.00148540,0.000267
 89,-0.00089624,-0.00014558,0.00036360,0.00089871,0.00014883,0.00047738
 ,-0.00024971,0.00000813,0.00011074,0.00006853,-0.06450265,-0.06677107,
 -0.03238134,0.00184885,0.00755936,0.00280042,0.07567547,-0.00036662,0.
 00013940,-0.00003094,0.00009019,-0.00009188,0.00008744,0.00061006,-0.0
 0070017,0.00130793,-0.00000875,0.00004405,0.00003954,-0.00297890,-0.00
 012913,-0.00137950,0.00019430,0.00045440,-0.00011610,-0.00038402,0.000
 14766,0.00051098,0.00001953,0.00024452,0.00012043,0.00002427,-0.000201
 49,-0.00010233,-0.06346390,-0.21971468,-0.09701319,0.00187719,0.002482
 11,0.00137127,0.07132968,0.24055956,-0.00008093,-0.00011696,0.00019102
 ,0.00000974,0.00012168,-0.00000761,-0.00029289,0.00052523,0.00042935,0
 .00016718,-0.00042950,0.00017452,-0.00307706,0.00360176,0.00118776,-0.
 00000950,0.00034915,-0.00003661,0.00010990,-0.00011345,0.00029186,-0.0
 0015230,-0.00000681,0.00002748,0.00019823,0.00004332,0.00011512,-0.029
 31959,-0.09615269,-0.09839409,-0.00966131,-0.02609367,-0.01258253,0.03
 760738,0.10708422,0.10267715,-0.00135384,-0.00168656,-0.00076763,-0.00
 035120,-0.00019237,0.00016393,-0.00106802,0.00192812,0.00335491,-0.000
 06472,0.00042390,0.00004632,-0.02293574,0.02155618,-0.01607737,0.00140
 631,-0.00005867,-0.00095463,0.00003887,-0.00005569,0.00004710,0.000247
 60,-0.00051806,-0.00019179,-0.00014942,-0.00048594,0.00101238,-0.10241
 858,0.09737444,-0.05040583,0.00392913,-0.00702134,0.00272812,0.0050226
 7,-0.00685282,0.00426566,0.11746096,0.00021061,-0.00030185,0.00002641,
 -0.00012671,-0.00001633,-0.00015110,-0.00100599,-0.00122527,-0.0006554
 0,-0.00011654,0.00004817,0.00000239,-0.00090810,0.00639441,-0.00278240
 ,0.00005842,0.00044829,-0.00008911,0.00003554,-0.00021345,0.00008855,0
 .00000169,0.00012653,-0.00015659,0.00024484,0.00006871,-0.00025723,0.0
 9282850,-0.18763709,0.08188116,-0.00072691,-0.00062885,-0.00003416,0.0
 1319762,-0.02289051,0.01172333,-0.10378057,0.20555158,-0.00015696,-0.0
 0051724,0.00010029,-0.00008290,0.00015244,0.00000494,-0.00054978,0.000
 33546,-0.00059585,-0.00010052,0.00034093,0.00041588,-0.00184340,-0.004
 33990,0.00182813,-0.00004635,-0.00011419,-0.00007282,0.00020505,-0.000
 01443,0.00010729,-0.00014244,0.00001226,0.00003089,0.00018483,0.000216
 34,0.00013877,-0.04663086,0.08120686,-0.08965585,-0.01551722,0.0238767
 8,-0.01204485,0.00746723,-0.01170470,0.00595020,0.05691176,-0.08972098
 ,0.09355751,-0.02362920,0.01118585,-0.00420455,-0.00593713,0.00796744,
 0.00275619,-0.00369280,0.00078202,0.01204742,0.00226735,0.00003437,-0.
 00064071,-0.00622931,-0.00383187,-0.01219387,0.00104219,-0.00035906,0.
 00005080,-0.00037696,0.00005083,0.00052238,-0.00021260,0.00015676,0.00
 003171,-0.00003728,-0.00036725,0.00110363,-0.00073295,0.00011415,0.001
 15858,0.00001473,0.00017086,-0.00021178,0.00094857,0.00027369,-0.00001
 627,0.00110125,-0.00034235,0.00018944,0.27287880,0.00369216,-0.0232959
 4,-0.00800810,-0.00110226,0.00220558,-0.00005545,0.03984145,0.08507917
 ,0.07113446,0.00136654,-0.02423275,-0.00294487,-0.03279765,-0.02697033
 ,-0.05319645,0.00055387,0.00114616,0.00260013,-0.00044941,-0.00007549,
 -0.00010542,-0.00003057,0.00012081,0.00002971,0.00010538,0.00033597,-0
 .00034217,0.00224545,0.00032174,0.00130998,-0.00032417,0.00000172,-0.0
 0005576,-0.00022408,-0.00025972,-0.00067856,-0.00005245,0.00013951,0.0
 0023461,0.06626078,0.04451370,-0.00279751,-0.00917381,0.00099744,-0.00
 150558,0.00149049,0.00010476,0.01277985,0.02613032,-0.00259062,-0.0008
 1018,0.00558737,0.00295336,-0.00787030,-0.01280603,-0.01246485,0.00029
 456,0.00035958,0.00062028,-0.00012129,-0.00028634,0.00019485,-0.000285
 72,0.00027987,0.00006779,0.00033994,-0.00006188,0.00083708,0.00063210,
 0.00032547,0.00062782,-0.00022911,0.00009697,0.00000862,0.00003384,-0.
 00002885,-0.00021090,0.00016694,0.00006654,0.00013082,0.02955996,-0.00
 691212,0.03506947,0.01646697,0.01594803,0.00571659,-0.00020941,-0.0075
 6742,0.00110619,-0.02910800,-0.03132493,-0.02428382,0.00069681,0.00072
 816,0.00045984,0.01405607,-0.00026131,0.01907025,-0.00177432,0.0005120
 6,-0.00048796,0.00066793,-0.00008258,-0.00066041,0.00041356,-0.0003367
 7,-0.00055855,0.00012760,0.00043400,-0.00114062,0.00016826,0.00053455,
 -0.00140469,-0.00002620,-0.00008773,0.00014850,-0.00063263,-0.00037641
 ,0.00027470,-0.00080451,0.00044341,0.00012402,-0.20324079,-0.05209413,
 -0.05371862,0.25300317,-0.01249649,-0.01636730,-0.00592194,-0.00063034
 ,0.00410083,0.00073444,-0.00332831,-0.01739088,-0.01158004,0.00006038,
 0.00029665,0.00046134,0.00239717,-0.00323184,0.00181244,-0.00089617,0.
 00027780,-0.00024952,0.00025643,-0.00014489,-0.00044209,0.00014757,-0.
 00012454,0.00001750,0.00010803,0.00020236,-0.00076282,0.00014021,0.000
 41571,-0.00089428,-0.00008038,-0.00007288,0.00019655,-0.00036291,-0.00
 015214,0.00017351,-0.00070977,0.00011570,0.00003274,-0.07176801,-0.050
 95846,-0.00670066,0.13328981,0.19202456,-0.00155938,-0.00061751,0.0032
 0811,0.00066744,-0.00076635,-0.00516745,-0.00324593,-0.01142390,-0.006
 28190,-0.00026970,0.00128349,0.00014837,0.00302742,-0.00013664,0.00309
 286,-0.00047389,0.00032980,-0.00039040,0.00008934,-0.00007670,-0.00005
 081,0.00009669,-0.00001914,-0.00009187,0.00015328,0.00001108,-0.000295
 06,-0.00015492,0.00035538,-0.00065890,-0.00012616,-0.00018859,0.000164
 52,-0.00007529,-0.00010755,0.00016874,-0.00016935,-0.00000256,0.000086
 07,-0.02143689,0.00801096,-0.04367985,-0.04568285,-0.17581755,0.437103
 39,-0.00055413,0.00089517,0.00099821,0.00158202,-0.00078146,-0.0024600
 1,0.00045038,0.00094302,0.00069798,0.00000981,0.00000271,-0.00011939,-
 0.00042707,-0.00001354,-0.00063312,0.00012259,-0.00007664,0.00003660,-
 0.00001499,0.00004111,-0.00002205,0.00004039,0.00003958,-0.00001415,-0
 .00002290,-0.00004568,-0.00012856,0.00005182,0.00003672,0.00012691,0.0
 0001726,0.00003859,-0.00003271,0.00001450,0.00001252,-0.00002296,-0.00
 006078,-0.00001347,-0.00001188,-0.03416388,-0.02699091,0.02353112,-0.0
 4980450,-0.04612722,0.06916018,0.08275948,0.00151007,0.00123862,-0.002
 00255,-0.00033103,-0.00185667,0.00381645,-0.00278008,0.00156825,0.0040
 3409,0.00041369,-0.00072734,-0.00002621,-0.00116245,-0.00092588,-0.001
 17708,0.00002151,-0.00015447,0.00023471,0.00006054,0.00011413,0.000020
 20,0.00006994,-0.00014242,-0.00021324,-0.00008703,-0.00000030,0.000110
 25,0.00006123,-0.00000478,0.00019977,0.00004137,0.00004025,-0.00007011
 ,0.00009808,0.00006800,-0.00003056,0.00013161,0.00002044,0.00000301,-0
 .01032821,-0.00807166,0.00163308,-0.05975872,-0.10899069,0.17916579,0.
 07203949,0.11782451,0.00121419,-0.00023810,-0.00046584,0.00027375,0.00
 051774,0.00012590,-0.00338605,-0.00162108,-0.00081817,-0.00000567,-0.0
 0042036,-0.00008629,0.00092288,-0.00057708,0.00191621,-0.00024235,0.00
 013031,0.00015673,0.00014941,0.00009572,-0.00014257,0.00017013,-0.0002
 2877,-0.00006505,-0.00016155,0.00008238,-0.00030257,0.00003156,-0.0000
 1241,-0.00024928,0.00004803,0.00002730,-0.00002056,-0.00009901,-0.0000
 3865,0.00001853,-0.00013052,0.00006114,0.00001858,-0.00871607,-0.01102
 094,0.01733395,0.10103744,0.19894039,-0.38735582,-0.09110617,-0.185697
 61,0.36993625\\-0.00000351,0.00000075,0.00000431,-0.00000346,0.0000037
 0,0.00000578,-0.00000106,-0.00000037,0.00000306,-0.00000483,0.00000250
 ,0.00000074,0.00000075,0.00000123,0.00000051,0.00000403,-0.00000247,0.
 00000088,0.00000608,-0.00000378,0.00000218,0.00000463,-0.00000244,0.00
 000407,0.00000613,-0.00000390,-0.00000094,0.00000006,-0.00000083,-0.00
 000327,-0.00000246,0.00000162,-0.00000464,0.00000184,-0.00000089,-0.00
 000316,0.00000122,-0.00000079,-0.00000683,-0.00000348,0.00000215,-0.00
 000323,-0.00000383,0.00000295,-0.00000074,-0.00000211,0.00000057,0.000
 00129\\\@


 MAN IS A SINGULAR CREATURE.  HE HAS A SET OF GIFTS
 WHICH MAKE HIM UNIQUE AMONG THE ANIMALS: SO THAT, 
 UNLIKE THEM, HE IS NOT A FIGURE IN THE LANDSCAPE --
 HE IS A SHAPER OF THE LANDSCAPE.

                       -- JACOB BRONOWSKI
 Job cpu time:  0 days  1 hours  8 minutes 33.9 seconds.
 File lengths (MBytes):  RWF=    125 Int=      0 D2E=      0 Chk=      8 Scr=      1
 Normal termination of Gaussian 03 at Tue Jul  8 23:39:08 2014.
