 Entering Gaussian System, Link 0=g03
 Input=g-ROO-freq.gjf
 Output=g-ROO-freq.log
 Initial command:
 /opt/g03/l1.exe /scratch/shamel/Gau-21244.inp -scrdir=/scratch/shamel/
 Entering Link 1 = /opt/g03/l1.exe PID=     21246.
  
 Copyright (c) 1988,1990,1992,1993,1995,1998,2003,2004, Gaussian, Inc.
                  All Rights Reserved.
  
 This is the Gaussian(R) 03 program.  It is based on the
 the Gaussian(R) 98 system (copyright 1998, Gaussian, Inc.),
 the Gaussian(R) 94 system (copyright 1995, Gaussian, Inc.),
 the Gaussian 92(TM) system (copyright 1992, Gaussian, Inc.),
 the Gaussian 90(TM) system (copyright 1990, Gaussian, Inc.),
 the Gaussian 88(TM) system (copyright 1988, Gaussian, Inc.),
 the Gaussian 86(TM) system (copyright 1986, Carnegie Mellon
 University), and the Gaussian 82(TM) system (copyright 1983,
 Carnegie Mellon University). Gaussian is a federally registered
 trademark of Gaussian, Inc.
  
 This software contains proprietary and confidential information,
 including trade secrets, belonging to Gaussian, Inc.
  
 This software is provided under written license and may be
 used, copied, transmitted, or stored only in accord with that
 written license.
  
 The following legend is applicable only to US Government
 contracts under FAR:
  
                    RESTRICTED RIGHTS LEGEND
  
 Use, reproduction and disclosure by the US Government is
 subject to restrictions as set forth in subparagraphs (a)
 and (c) of the Commercial Computer Software - Restricted
 Rights clause in FAR 52.227-19.
  
 Gaussian, Inc.
 340 Quinnipiac St., Bldg. 40, Wallingford CT 06492
  
  
 ---------------------------------------------------------------
 Warning -- This program may not be used in any manner that
 competes with the business of Gaussian, Inc. or will provide
 assistance to any competitor of Gaussian, Inc.  The licensee
 of this program is prohibited from giving any competitor of
 Gaussian, Inc. access to this program.  By using this program,
 the user acknowledges that Gaussian, Inc. is engaged in the
 business of creating and licensing software in the field of
 computational chemistry and represents and warrants to the
 licensee that it is not a competitor of Gaussian, Inc. and that
 it will not use this program in any manner prohibited above.
 ---------------------------------------------------------------
  

 Cite this work as:
 Gaussian 03, Revision D.01,
 M. J. Frisch, G. W. Trucks, H. B. Schlegel, G. E. Scuseria, 
 M. A. Robb, J. R. Cheeseman, J. A. Montgomery, Jr., T. Vreven, 
 K. N. Kudin, J. C. Burant, J. M. Millam, S. S. Iyengar, J. Tomasi, 
 V. Barone, B. Mennucci, M. Cossi, G. Scalmani, N. Rega, 
 G. A. Petersson, H. Nakatsuji, M. Hada, M. Ehara, K. Toyota, 
 R. Fukuda, J. Hasegawa, M. Ishida, T. Nakajima, Y. Honda, O. Kitao, 
 H. Nakai, M. Klene, X. Li, J. E. Knox, H. P. Hratchian, J. B. Cross, 
 V. Bakken, C. Adamo, J. Jaramillo, R. Gomperts, R. E. Stratmann, 
 O. Yazyev, A. J. Austin, R. Cammi, C. Pomelli, J. W. Ochterski, 
 P. Y. Ayala, K. Morokuma, G. A. Voth, P. Salvador, J. J. Dannenberg, 
 V. G. Zakrzewski, S. Dapprich, A. D. Daniels, M. C. Strain, 
 O. Farkas, D. K. Malick, A. D. Rabuck, K. Raghavachari, 
 J. B. Foresman, J. V. Ortiz, Q. Cui, A. G. Baboul, S. Clifford, 
 J. Cioslowski, B. B. Stefanov, G. Liu, A. Liashenko, P. Piskorz, 
 I. Komaromi, R. L. Martin, D. J. Fox, T. Keith, M. A. Al-Laham, 
 C. Y. Peng, A. Nanayakkara, M. Challacombe, P. M. W. Gill, 
 B. Johnson, W. Chen, M. W. Wong, C. Gonzalez, and J. A. Pople, 
 Gaussian, Inc., Wallingford CT, 2004.
 
 ******************************************
 Gaussian 03:  AM64L-G03RevD.01 13-Oct-2005
                18-Jun-2013 
 ******************************************
 %chk=g-ROO-freq.chk
 %mem=1000mb
 %nproc=8
 Will use up to    8 processors via shared memory.
 -------------------------------------
 # freq nosymm b3lyp/cbsb7 iop(7/33=1)
 -------------------------------------
 1/10=4,30=1,38=1/1,3;
 2/15=1,17=6,18=5,40=1/2;
 3/5=4,6=6,7=700,11=2,16=1,25=1,30=1,74=-5/1,2,3;
 4//1;
 5/5=2,38=5/2;
 8/6=4,10=90,11=11/1;
 11/6=1,8=1,9=11,15=111,16=1,31=1/1,2,10;
 10/6=1,31=1/2;
 6/7=2,8=2,9=2,10=2,18=1,28=1/1;
 7/8=1,10=1,25=1,30=1,33=1/1,2,3,16;
 1/10=4,30=1/3;
 99//99;
 -------------------
 Title Card Required
 -------------------
 Symbolic Z-matrix:
 Charge =  0 Multiplicity = 2
 C                    -0.79271   0.45535   0.15441 
 H                    -1.77592   0.04457  -0.09315 
 H                    -0.0416   -0.33337   0.08042 
 C                    -0.78843   1.14068   1.5164 
 H                     0.22121   1.51967   1.70981 
 C                    -1.14888   0.09972   2.58731 
 H                    -0.48828  -0.77007   2.54236 
 H                    -1.06147   0.5325    3.58612 
 H                    -2.17723  -0.25574   2.46576 
 C                    -1.74053   2.3488    1.57562 
 H                    -2.72927   2.05535   1.18613 
 H                    -1.87875   2.63958   2.61966 
 O                    -1.2452    3.50408   0.92088 
 H                    -1.06267   3.27115   0.00389 
 O                    -0.47652   1.44016  -0.88398 
 O                    -0.39181   0.88963  -2.07728 
 

 GradGradGradGradGradGradGradGradGradGradGradGradGradGradGradGradGradGrad
 Berny optimization.
 Initialization pass.
 Trust Radius=3.00D-01 FncErr=1.00D-07 GrdErr=1.00D-07
 Number of steps in this run=   2 maximum allowed number of steps=   2.
 GradGradGradGradGradGradGradGradGradGradGradGradGradGradGradGradGradGrad

                          Input orientation:                          
 ---------------------------------------------------------------------
 Center     Atomic     Atomic              Coordinates (Angstroms)
 Number     Number      Type              X           Y           Z
 ---------------------------------------------------------------------
    1          6             0       -0.792710    0.455354    0.154405
    2          1             0       -1.775921    0.044572   -0.093151
    3          1             0       -0.041598   -0.333368    0.080415
    4          6             0       -0.788430    1.140684    1.516397
    5          1             0        0.221213    1.519667    1.709812
    6          6             0       -1.148878    0.099721    2.587311
    7          1             0       -0.488281   -0.770072    2.542355
    8          1             0       -1.061465    0.532497    3.586117
    9          1             0       -2.177228   -0.255742    2.465758
   10          6             0       -1.740530    2.348802    1.575618
   11          1             0       -2.729270    2.055354    1.186133
   12          1             0       -1.878753    2.639583    2.619661
   13          8             0       -1.245204    3.504081    0.920880
   14          1             0       -1.062672    3.271147    0.003894
   15          8             0       -0.476517    1.440161   -0.883975
   16          8             0       -0.391810    0.889626   -2.077277
 ---------------------------------------------------------------------
                    Distance matrix (angstroms):
                    1          2          3          4          5
     1  C    0.000000
     2  H    1.093951   0.000000
     3  H    1.091662   1.783491   0.000000
     4  C    1.524703   2.183402   2.189208   0.000000
     5  H    2.140115   3.068408   2.481480   1.095635   0.000000
     6  C    2.484424   2.753380   2.774556   1.536354   2.159491
     7  H    2.701231   3.044266   2.539958   2.189445   2.537600
     8  H    3.443084   3.779621   3.752306   2.174438   2.477960
     9  H    2.786557   2.607537   3.202624   2.186333   3.078319
    10  C    2.550168   2.845262   3.509421   1.539334   2.133989
    11  H    2.715645   2.566844   3.761939   2.170842   3.044101
    12  H    3.468117   3.755530   4.319878   2.157010   2.547920
    13  O    3.175999   3.643916   4.108657   2.479703   2.590500
    14  H    2.832706   3.305893   3.747129   2.627118   2.761557
    15  O    1.465625   2.064345   2.065093   2.439008   2.687169
    16  O    2.308618   2.562545   2.504795   3.624201   3.887775
                    6          7          8          9         10
     6  C    0.000000
     7  H    1.093137   0.000000
     8  H    1.092039   1.764841   0.000000
     9  H    1.094821   1.767185   1.766763   0.000000
    10  C    2.536127   3.497154   2.793242   2.786881   0.000000
    11  H    2.878444   3.852843   3.295541   2.698769   1.102460
    12  H    2.642851   3.683088   2.458009   2.914735   1.092559
    13  O    3.791561   4.633627   3.995943   4.170322   1.417286
    14  H    4.091383   4.806783   4.509160   4.443192   1.944358
    15  O    3.781359   4.077377   4.598667   4.121798   2.910834
    16  O    4.791188   4.909675   5.714019   5.013856   4.158351
                   11         12         13         14         15
    11  H    0.000000
    12  H    1.766269   0.000000
    13  O    2.090842   2.008631   0.000000
    14  H    2.377686   2.811956   0.963556   0.000000
    15  O    3.120690   3.959841   2.847481   2.117640   0.000000
    16  O    4.180010   5.228248   4.068489   3.233105   1.316903
                   16
    16  O    0.000000
 Symmetry turned off by external request.
 Stoichiometry    C4H9O3(2)
 Framework group  C1[X(C4H9O3)]
 Deg. of freedom    42
 Full point group                 C1
 Rotational constants (GHZ):      3.3740222      1.8745016      1.2738036
 Standard basis: CBSB7 (5D, 7F)
 Integral buffers will be    131072 words long.
 Raffenetti 2 integral format.
 Two-electron integral symmetry is turned off.
   180 basis functions,   296 primitive gaussians,   187 cartesian basis functions
    29 alpha electrons       28 beta electrons
       nuclear repulsion energy       324.2641114930 Hartrees.
 NAtoms=   16 NActive=   16 NUniq=   16 SFac= 7.50D-01 NAtFMM=   80 NAOKFM=F Big=F
 One-electron integrals computed using PRISM.
 NBasis=   180 RedAO= T  NBF=   180
 NBsUse=   180 1.00D-06 NBFU=   180
 Harris functional with IExCor=  402 diagonalized for initial guess.
 ExpMin= 1.03D-01 ExpMax= 8.59D+03 ExpMxC= 1.30D+03 IAcc=1 IRadAn=         1 AccDes= 1.00D-06
 HarFok:  IExCor= 402 AccDes= 1.00D-06 IRadAn=         1 IDoV=1
 ScaDFX=  1.000000  1.000000  1.000000  1.000000
 <S**2> of initial guess= 0.7500
 Requested convergence on RMS density matrix=1.00D-08 within 128 cycles.
 Requested convergence on MAX density matrix=1.00D-06.
 Requested convergence on             energy=1.00D-06.
 No special actions if energy rises.
 Integral accuracy reduced to 1.0D-05 until final iterations.
 Initial convergence to 1.0D-05 achieved.  Increase integral accuracy.
 SCF Done:  E(UB+HF-LYP) =  -383.484408436     A.U. after   19 cycles
             Convg  =    0.6263D-08             -V/T =  2.0033
             S**2   =   0.7531
 Annihilation of the first spin contaminant:
 S**2 before annihilation     0.7531,   after     0.7500
 Range of M.O.s used for correlation:     1   180
 NBasis=   180 NAE=    29 NBE=    28 NFC=     0 NFV=     0
 NROrb=    180 NOA=    29 NOB=    28 NVA=   151 NVB=   152
 Symmetrizing basis deriv contribution to polar:
 IMax=3 JMax=2 DiffMx= 0.00D+00
 G2DrvN: will do   17 centers at a time, making    1 passes doing MaxLOS=2.
 FoFDir/FoFCou used for L=0 through L=2.
 DoAtom=TTTTTTTTTTTTTTTT
          Differentiating once with respect to electric field.
                with respect to dipole field.
          Differentiating once with respect to nuclear coordinates.
 Symmetry not used in FoFDir.
 MinBra= 0 MaxBra= 2 Meth= 1.
 IRaf=       0 NMat=  51 IRICut=      51 DoRegI=T DoRafI=T ISym2E= 0 JSym2E=0.
          There are  51 degrees of freedom in the 1st order CPHF.
    48 vectors were produced by pass  0.
 AX will form  48 AO Fock derivatives at one time.
    48 vectors were produced by pass  1.
    48 vectors were produced by pass  2.
    48 vectors were produced by pass  3.
    48 vectors were produced by pass  4.
    48 vectors were produced by pass  5.
    18 vectors were produced by pass  6.
     3 vectors were produced by pass  7.
     3 vectors were produced by pass  8.
 Inv2:  IOpt= 1 Iter= 1 AM= 3.02D-15 Conv= 1.00D-12.
 Inverted reduced A of dimension  312 with in-core refinement.
 Isotropic polarizability for W=    0.000000       58.75 Bohr**3.
 End of Minotr Frequency-dependent properties file   721 does not exist.

 **********************************************************************

            Population analysis using the SCF density.

 **********************************************************************

 Alpha  occ. eigenvalues --  -19.24999 -19.19779 -19.10902 -10.24657 -10.22322
 Alpha  occ. eigenvalues --  -10.19904 -10.18429  -1.20639  -1.02039  -0.89906
 Alpha  occ. eigenvalues --   -0.81129  -0.69454  -0.68834  -0.60529  -0.54772
 Alpha  occ. eigenvalues --   -0.53441  -0.50950  -0.49314  -0.45264  -0.44942
 Alpha  occ. eigenvalues --   -0.43125  -0.41479  -0.40138  -0.37883  -0.36202
 Alpha  occ. eigenvalues --   -0.32954  -0.29497  -0.29314  -0.27355
 Alpha virt. eigenvalues --    0.02715   0.04357   0.05782   0.06817   0.09754
 Alpha virt. eigenvalues --    0.09779   0.10734   0.10982   0.12460   0.12772
 Alpha virt. eigenvalues --    0.14351   0.18716   0.19789   0.20296   0.23629
 Alpha virt. eigenvalues --    0.29976   0.31302   0.32733   0.35214   0.38159
 Alpha virt. eigenvalues --    0.40631   0.42201   0.44161   0.47842   0.49867
 Alpha virt. eigenvalues --    0.50865   0.52660   0.54380   0.55206   0.56311
 Alpha virt. eigenvalues --    0.56867   0.58492   0.60303   0.61424   0.61908
 Alpha virt. eigenvalues --    0.63164   0.67688   0.73434   0.74798   0.76219
 Alpha virt. eigenvalues --    0.82026   0.83426   0.89222   0.89788   0.91038
 Alpha virt. eigenvalues --    0.93736   0.95848   0.96230   1.02096   1.07870
 Alpha virt. eigenvalues --    1.11786   1.17381   1.19324   1.23839   1.26757
 Alpha virt. eigenvalues --    1.34418   1.37892   1.38866   1.42921   1.43735
 Alpha virt. eigenvalues --    1.44402   1.46569   1.48764   1.49553   1.51936
 Alpha virt. eigenvalues --    1.52703   1.53772   1.56519   1.58504   1.60194
 Alpha virt. eigenvalues --    1.62121   1.67697   1.69090   1.71290   1.72807
 Alpha virt. eigenvalues --    1.74338   1.81195   1.82537   1.86184   1.87979
 Alpha virt. eigenvalues --    1.97609   1.99737   2.02319   2.05705   2.07243
 Alpha virt. eigenvalues --    2.10034   2.13751   2.17619   2.23835   2.28841
 Alpha virt. eigenvalues --    2.32753   2.35187   2.35906   2.38206   2.42814
 Alpha virt. eigenvalues --    2.43634   2.45304   2.47468   2.48494   2.51715
 Alpha virt. eigenvalues --    2.55087   2.56382   2.59545   2.60837   2.62496
 Alpha virt. eigenvalues --    2.65165   2.68294   2.71043   2.73598   2.78434
 Alpha virt. eigenvalues --    2.78873   2.83128   2.83936   2.88410   2.91075
 Alpha virt. eigenvalues --    3.00442   3.04877   3.08630   3.15206   3.22240
 Alpha virt. eigenvalues --    3.27503   3.29162   3.34784   3.45804   3.68004
 Alpha virt. eigenvalues --    3.74668   3.76513   3.78576   3.79596   3.85409
 Alpha virt. eigenvalues --    3.88960   3.91611   4.01559   4.23156   4.26654
 Alpha virt. eigenvalues --    4.63353   4.75575   4.80521   4.87934   4.89306
 Alpha virt. eigenvalues --    5.21904   5.27527   5.65693   5.91721  23.73563
 Alpha virt. eigenvalues --   23.79556  23.81206  23.90749  49.66950  49.74728
 Alpha virt. eigenvalues --   49.91044
  Beta  occ. eigenvalues --  -19.24043 -19.17805 -19.10899 -10.24697 -10.22322
  Beta  occ. eigenvalues --  -10.19906 -10.18431  -1.17968  -1.02022  -0.87346
  Beta  occ. eigenvalues --   -0.80210  -0.69077  -0.68308  -0.60420  -0.53630
  Beta  occ. eigenvalues --   -0.52031  -0.48935  -0.48236  -0.44591  -0.43875
  Beta  occ. eigenvalues --   -0.42936  -0.40227  -0.38300  -0.37741  -0.35689
  Beta  occ. eigenvalues --   -0.32765  -0.27850  -0.27120
  Beta virt. eigenvalues --   -0.12334   0.02744   0.04764   0.05872   0.06833
  Beta virt. eigenvalues --    0.09806   0.10160   0.10975   0.11078   0.12857
  Beta virt. eigenvalues --    0.13670   0.14472   0.18774   0.19823   0.20453
  Beta virt. eigenvalues --    0.23729   0.30150   0.31377   0.32793   0.35246
  Beta virt. eigenvalues --    0.38197   0.40684   0.42368   0.44301   0.48063
  Beta virt. eigenvalues --    0.49968   0.50892   0.52745   0.54426   0.55218
  Beta virt. eigenvalues --    0.56328   0.56888   0.58520   0.60337   0.61473
  Beta virt. eigenvalues --    0.62082   0.63289   0.67757   0.73862   0.75996
  Beta virt. eigenvalues --    0.80222   0.82995   0.84401   0.89717   0.90084
  Beta virt. eigenvalues --    0.91314   0.93763   0.96139   0.96782   1.02714
  Beta virt. eigenvalues --    1.08198   1.11886   1.17435   1.19492   1.24892
  Beta virt. eigenvalues --    1.26999   1.34499   1.38002   1.39002   1.42954
  Beta virt. eigenvalues --    1.44081   1.44425   1.46607   1.48833   1.49665
  Beta virt. eigenvalues --    1.52028   1.52777   1.53813   1.56642   1.58576
  Beta virt. eigenvalues --    1.60412   1.62203   1.67801   1.69123   1.71321
  Beta virt. eigenvalues --    1.72867   1.74418   1.81273   1.82637   1.86223
  Beta virt. eigenvalues --    1.88030   1.97689   1.99911   2.02352   2.05783
  Beta virt. eigenvalues --    2.07353   2.10077   2.13816   2.17883   2.23935
  Beta virt. eigenvalues --    2.28920   2.33591   2.35875   2.36635   2.38356
  Beta virt. eigenvalues --    2.43071   2.44132   2.45693   2.47677   2.48775
  Beta virt. eigenvalues --    2.51804   2.55329   2.56677   2.59676   2.61012
  Beta virt. eigenvalues --    2.62945   2.67737   2.68978   2.71179   2.75999
  Beta virt. eigenvalues --    2.79186   2.83062   2.83641   2.85362   2.90842
  Beta virt. eigenvalues --    2.91231   3.01710   3.05059   3.09495   3.15255
  Beta virt. eigenvalues --    3.22328   3.29206   3.32081   3.35633   3.45939
  Beta virt. eigenvalues --    3.68032   3.74900   3.77009   3.78885   3.80664
  Beta virt. eigenvalues --    3.85757   3.89481   3.91639   4.01578   4.23204
  Beta virt. eigenvalues --    4.26657   4.70230   4.77079   4.82220   4.89007
  Beta virt. eigenvalues --    4.93288   5.22595   5.27708   5.65709   5.93088
  Beta virt. eigenvalues --   23.73534  23.79548  23.81199  23.90746  49.68913
  Beta virt. eigenvalues --   49.75695  49.91047
          Condensed to atoms (all electrons):
              1          2          3          4          5          6
     1  C    4.957443   0.390733   0.397683   0.289450  -0.053603  -0.059052
     2  H    0.390733   0.561889  -0.030550  -0.033302   0.009189  -0.000029
     3  H    0.397683  -0.030550   0.545693  -0.028667  -0.007897  -0.004357
     4  C    0.289450  -0.033302  -0.028667   5.281446   0.388672   0.302488
     5  H   -0.053603   0.009189  -0.007897   0.388672   0.589318  -0.022082
     6  C   -0.059052  -0.000029  -0.004357   0.302488  -0.022082   4.915165
     7  H   -0.002760  -0.001481   0.004470  -0.025912  -0.008233   0.394695
     8  H    0.007276  -0.000165  -0.000079  -0.030926  -0.007331   0.405196
     9  H   -0.007370   0.005374  -0.001034  -0.038789   0.009183   0.402855
    10  C   -0.054453  -0.012125   0.007528   0.327637  -0.050974  -0.047245
    11  H   -0.012952   0.004680  -0.000056  -0.055670   0.013169   0.001767
    12  H    0.008103  -0.000430  -0.000312  -0.034733  -0.009915  -0.004343
    13  O    0.000422  -0.000055  -0.000441  -0.046671   0.012817   0.004781
    14  H   -0.002218   0.000701   0.000614  -0.003393  -0.001312  -0.000380
    15  O    0.159420  -0.029570  -0.025825  -0.027719   0.003475   0.002378
    16  O   -0.059381   0.004550   0.005955   0.007336  -0.000146  -0.000128
              7          8          9         10         11         12
     1  C   -0.002760   0.007276  -0.007370  -0.054453  -0.012952   0.008103
     2  H   -0.001481  -0.000165   0.005374  -0.012125   0.004680  -0.000430
     3  H    0.004470  -0.000079  -0.001034   0.007528  -0.000056  -0.000312
     4  C   -0.025912  -0.030926  -0.038789   0.327637  -0.055670  -0.034733
     5  H   -0.008233  -0.007331   0.009183  -0.050974   0.013169  -0.009915
     6  C    0.394695   0.405196   0.402855  -0.047245   0.001767  -0.004343
     7  H    0.575706  -0.025354  -0.031184   0.006809  -0.000915   0.000138
     8  H   -0.025354   0.556536  -0.028200  -0.005224  -0.001036   0.006204
     9  H   -0.031184  -0.028200   0.580675  -0.006333   0.006143  -0.001666
    10  C    0.006809  -0.005224  -0.006333   4.754702   0.381172   0.399979
    11  H   -0.000915  -0.001036   0.006143   0.381172   0.660632  -0.045750
    12  H    0.000138   0.006204  -0.001666   0.399979  -0.045750   0.598838
    13  O   -0.000250   0.000013  -0.000001   0.298912  -0.033000  -0.031454
    14  H    0.000054   0.000040  -0.000022  -0.045535  -0.006307   0.008235
    15  O   -0.000040  -0.000110  -0.000118   0.002473   0.000107   0.000011
    16  O   -0.000041   0.000008  -0.000016  -0.000207  -0.000120   0.000015
             13         14         15         16
     1  C    0.000422  -0.002218   0.159420  -0.059381
     2  H   -0.000055   0.000701  -0.029570   0.004550
     3  H   -0.000441   0.000614  -0.025825   0.005955
     4  C   -0.046671  -0.003393  -0.027719   0.007336
     5  H    0.012817  -0.001312   0.003475  -0.000146
     6  C    0.004781  -0.000380   0.002378  -0.000128
     7  H   -0.000250   0.000054  -0.000040  -0.000041
     8  H    0.000013   0.000040  -0.000110   0.000008
     9  H   -0.000001  -0.000022  -0.000118  -0.000016
    10  C    0.298912  -0.045535   0.002473  -0.000207
    11  H   -0.033000  -0.006307   0.000107  -0.000120
    12  H   -0.031454   0.008235   0.000011   0.000015
    13  O    7.869831   0.324173  -0.004734   0.000119
    14  H    0.324173   0.465460   0.020682  -0.001046
    15  O   -0.004734   0.020682   8.023722   0.051375
    16  O    0.000119  -0.001046   0.051375   8.129888
 Mulliken atomic charges:
              1
     1  C    0.041260
     2  H    0.130592
     3  H    0.137274
     4  C   -0.271246
     5  H    0.135668
     6  C   -0.291709
     7  H    0.114297
     8  H    0.123154
     9  H    0.110503
    10  C    0.042885
    11  H    0.088136
    12  H    0.107082
    13  O   -0.394463
    14  H    0.240255
    15  O   -0.175526
    16  O   -0.138160
 Sum of Mulliken charges=   0.00000
 Atomic charges with hydrogens summed into heavy atoms:
              1
     1  C    0.309126
     2  H    0.000000
     3  H    0.000000
     4  C   -0.135579
     5  H    0.000000
     6  C    0.056244
     7  H    0.000000
     8  H    0.000000
     9  H    0.000000
    10  C    0.238102
    11  H    0.000000
    12  H    0.000000
    13  O   -0.154208
    14  H    0.000000
    15  O   -0.175526
    16  O   -0.138160
 Sum of Mulliken charges=   0.00000
          Atomic-Atomic Spin Densities.
              1          2          3          4          5          6
     1  C   -0.031027  -0.003164   0.001029   0.004174  -0.000294   0.000075
     2  H   -0.003164   0.031275  -0.009912   0.003190   0.000586   0.000554
     3  H    0.001029  -0.009912   0.027059  -0.000976  -0.001078  -0.000820
     4  C    0.004174   0.003190  -0.000976  -0.001506   0.001174   0.000465
     5  H   -0.000294   0.000586  -0.001078   0.001174  -0.000585   0.000195
     6  C    0.000075   0.000554  -0.000820   0.000465   0.000195  -0.000923
     7  H   -0.000057   0.000098  -0.000126  -0.000185   0.000140   0.000282
     8  H    0.000037  -0.000010  -0.000016  -0.000035  -0.000008   0.000176
     9  H   -0.000057  -0.000194   0.000072  -0.000003  -0.000078   0.000009
    10  C    0.001615  -0.002534   0.001117  -0.004061  -0.000512  -0.000441
    11  H    0.000022  -0.000341   0.000088  -0.000209  -0.000063  -0.000036
    12  H    0.000095  -0.000099   0.000033  -0.000481  -0.000132   0.000012
    13  O   -0.000347   0.000210  -0.000054   0.001032   0.000115   0.000013
    14  H    0.000391  -0.000079  -0.000014  -0.000252  -0.000003  -0.000010
    15  O    0.008811  -0.007671  -0.006388  -0.003047   0.000572  -0.000025
    16  O   -0.003654   0.004374   0.003559   0.000048  -0.000163  -0.000003
              7          8          9         10         11         12
     1  C   -0.000057   0.000037  -0.000057   0.001615   0.000022   0.000095
     2  H    0.000098  -0.000010  -0.000194  -0.002534  -0.000341  -0.000099
     3  H   -0.000126  -0.000016   0.000072   0.001117   0.000088   0.000033
     4  C   -0.000185  -0.000035  -0.000003  -0.004061  -0.000209  -0.000481
     5  H    0.000140  -0.000008  -0.000078  -0.000512  -0.000063  -0.000132
     6  C    0.000282   0.000176   0.000009  -0.000441  -0.000036   0.000012
     7  H   -0.000194   0.000032   0.000071  -0.000089  -0.000002   0.000002
     8  H    0.000032  -0.000486   0.000024  -0.000005   0.000005  -0.000017
     9  H    0.000071   0.000024   0.000011   0.000180   0.000004   0.000007
    10  C   -0.000089  -0.000005   0.000180   0.004054   0.000338   0.000497
    11  H   -0.000002   0.000005   0.000004   0.000338  -0.000062   0.000066
    12  H    0.000002  -0.000017   0.000007   0.000497   0.000066   0.000040
    13  O    0.000000   0.000002  -0.000001  -0.001624  -0.000090  -0.000015
    14  H   -0.000001  -0.000002   0.000003   0.000193   0.000040   0.000025
    15  O    0.000013   0.000000   0.000014   0.002468   0.000318   0.000036
    16  O    0.000002   0.000000   0.000001  -0.000210  -0.000056  -0.000002
             13         14         15         16
     1  C   -0.000347   0.000391   0.008811  -0.003654
     2  H    0.000210  -0.000079  -0.007671   0.004374
     3  H   -0.000054  -0.000014  -0.006388   0.003559
     4  C    0.001032  -0.000252  -0.003047   0.000048
     5  H    0.000115  -0.000003   0.000572  -0.000163
     6  C    0.000013  -0.000010  -0.000025  -0.000003
     7  H    0.000000  -0.000001   0.000013   0.000002
     8  H    0.000002  -0.000002   0.000000   0.000000
     9  H   -0.000001   0.000003   0.000014   0.000001
    10  C   -0.001624   0.000193   0.002468  -0.000210
    11  H   -0.000090   0.000040   0.000318  -0.000056
    12  H   -0.000015   0.000025   0.000036  -0.000002
    13  O    0.001892   0.000125  -0.000275   0.000020
    14  H    0.000125  -0.000523  -0.000984   0.000000
    15  O   -0.000275  -0.000984   0.420574  -0.132126
    16  O    0.000020   0.000000  -0.132126   0.838970
 Mulliken atomic spin densities:
              1
     1  C   -0.022351
     2  H    0.016284
     3  H    0.013573
     4  C   -0.000672
     5  H   -0.000136
     6  C   -0.000479
     7  H   -0.000014
     8  H   -0.000304
     9  H    0.000063
    10  C    0.000986
    11  H    0.000023
    12  H    0.000066
    13  O    0.001003
    14  H   -0.001090
    15  O    0.282290
    16  O    0.710758
 Sum of Mulliken spin densities=   1.00000
 APT atomic charges:
              1
     1  C    0.404699
     2  H   -0.026858
     3  H   -0.024197
     4  C    0.015310
     5  H   -0.033561
     6  C    0.065650
     7  H   -0.015478
     8  H   -0.011774
     9  H   -0.012566
    10  C    0.507449
    11  H   -0.080275
    12  H   -0.035060
    13  O   -0.628229
    14  H    0.300553
    15  O   -0.334204
    16  O   -0.091456
 Sum of APT charges=   0.00000
 APT Atomic charges with hydrogens summed into heavy atoms:
              1
     1  C    0.353643
     2  H    0.000000
     3  H    0.000000
     4  C   -0.018251
     5  H    0.000000
     6  C    0.025832
     7  H    0.000000
     8  H    0.000000
     9  H    0.000000
    10  C    0.392113
    11  H    0.000000
    12  H    0.000000
    13  O   -0.327677
    14  H    0.000000
    15  O   -0.334204
    16  O   -0.091456
 Sum of APT charges=   0.00000
 Electronic spatial extent (au):  <R**2>=  1576.2258
 Charge=     0.0000 electrons
 Dipole moment (field-independent basis, Debye):
    X=    -0.5564    Y=    -2.4939    Z=     1.9802  Tot=     3.2327
 Quadrupole moment (field-independent basis, Debye-Ang):
   XX=   -40.9914   YY=   -54.3052   ZZ=   -44.6466
   XY=     1.7364   XZ=    -0.8451   YZ=    -1.4359
 Traceless Quadrupole moment (field-independent basis, Debye-Ang):
   XX=     5.6563   YY=    -7.6575   ZZ=     2.0011
   XY=     1.7364   XZ=    -0.8451   YZ=    -1.4359
 Octapole moment (field-independent basis, Debye-Ang**2):
  XXX=   123.1291  YYY=  -223.2529  ZZZ=   -71.9139  XYY=    55.4816
  XXY=   -59.5708  XXZ=   -29.5231  XZZ=    40.3303  YZZ=   -58.9150
  YYZ=   -45.6404  XYZ=     2.1374
 Hexadecapole moment (field-independent basis, Debye-Ang**3):
 XXXX=  -363.3739 YYYY= -1062.3278 ZZZZ=  -738.9713 XXXY=   203.0045
 XXXZ=   147.8646 YYYX=   262.5872 YYYZ=  -194.0988 ZZZX=   134.6020
 ZZZY=   -86.7091 XXYY=  -221.4309 XXZZ=  -182.3588 YYZZ=  -274.2507
 XXYZ=   -40.7853 YYXZ=    66.8808 ZZXY=    60.4166
 N-N= 3.242641114930D+02 E-N=-1.547706201456D+03  KE= 3.822397926497D+02
  Exact polarizability:  48.835  -1.201  56.686  -4.421  -0.169  70.724
 Approx polarizability:  69.399   0.965  76.467  -3.944   2.950  93.058
                          Isotropic Fermi Contact Couplings
        Atom                 a.u.       MegaHertz       Gauss      10(-4) cm-1
     1  C(13)             -0.01083     -12.17891      -4.34574      -4.06245
     2  H(1)               0.00539      24.08695       8.59482       8.03454
     3  H(1)               0.00453      20.25654       7.22804       6.75685
     4  C(13)             -0.00060      -0.67660      -0.24143      -0.22569
     5  H(1)              -0.00007      -0.31171      -0.11122      -0.10397
     6  C(13)             -0.00075      -0.84318      -0.30087      -0.28125
     7  H(1)               0.00005       0.23396       0.08348       0.07804
     8  H(1)              -0.00011      -0.49376      -0.17619      -0.16470
     9  H(1)               0.00010       0.45125       0.16102       0.15052
    10  C(13)             -0.00014      -0.16005      -0.05711      -0.05339
    11  H(1)               0.00000      -0.00095      -0.00034      -0.00032
    12  H(1)              -0.00001      -0.05217      -0.01861      -0.01740
    13  O(17)             -0.00046       0.28087       0.10022       0.09369
    14  H(1)              -0.00002      -0.07181      -0.02562      -0.02395
    15  O(17)              0.04215     -25.55119      -9.11730      -8.52296
    16  O(17)              0.04885     -29.61069     -10.56583      -9.87706
 --------------------------------------------------------
       Center         ----  Spin Dipole Couplings  ----
                      3XX-RR        3YY-RR        3ZZ-RR
 --------------------------------------------------------
     1   Atom       -0.011153     -0.001558      0.012711
     2   Atom       -0.001598     -0.001794      0.003393
     3   Atom       -0.009430      0.002821      0.006609
     4   Atom       -0.003053     -0.004307      0.007360
     5   Atom       -0.003526     -0.003829      0.007354
     6   Atom       -0.000699     -0.001469      0.002168
     7   Atom       -0.001465     -0.000765      0.002229
     8   Atom       -0.000892     -0.000965      0.001857
     9   Atom       -0.000880     -0.001053      0.001933
    10   Atom       -0.001822     -0.002350      0.004171
    11   Atom        0.000546     -0.002356      0.001810
    12   Atom       -0.000988     -0.001004      0.001992
    13   Atom       -0.003837      0.001746      0.002091
    14   Atom       -0.006193      0.007703     -0.001510
    15   Atom        1.467757     -0.740285     -0.727472
    16   Atom        2.925658     -1.453011     -1.472647
 --------------------------------------------------------
                        XY            XZ            YZ
 --------------------------------------------------------
     1   Atom        0.004014     -0.005495     -0.011052
     2   Atom        0.007244     -0.009597     -0.008060
     3   Atom       -0.001941      0.002484     -0.012430
     4   Atom       -0.000041     -0.001672     -0.001344
     5   Atom        0.000078      0.002140      0.000981
     6   Atom       -0.000004     -0.000519     -0.000471
     7   Atom        0.000057     -0.000110     -0.001619
     8   Atom        0.000020     -0.000356     -0.000347
     9   Atom        0.000450     -0.001320     -0.001081
    10   Atom       -0.000980     -0.002954      0.002719
    11   Atom       -0.001223     -0.004023      0.001586
    12   Atom       -0.000391     -0.001184      0.001198
    13   Atom        0.001780      0.002991      0.007574
    14   Atom       -0.003815     -0.002323      0.009311
    15   Atom       -0.325600      0.329896     -0.083660
    16   Atom       -0.644306      0.643690     -0.096136
 --------------------------------------------------------


 ---------------------------------------------------------------------------------
              Anisotropic Spin Dipole Couplings in Principal Axis System
 ---------------------------------------------------------------------------------

       Atom             a.u.   MegaHertz   Gauss  10(-4) cm-1        Axes

              Baa    -0.0128    -1.711    -0.611    -0.571  0.9641 -0.2455  0.1015
     1 C(13)  Bbb    -0.0074    -0.997    -0.356    -0.333  0.1619  0.8458  0.5083
              Bcc     0.0202     2.709     0.967     0.904 -0.2106 -0.4736  0.8552
 
              Baa    -0.0094    -5.002    -1.785    -1.669  0.8363 -0.3977  0.3775
     2 H(1)   Bbb    -0.0077    -4.083    -1.457    -1.362  0.0808  0.7704  0.6325
              Bcc     0.0170     9.085     3.242     3.030 -0.5423 -0.4984  0.6764
 
              Baa    -0.0098    -5.233    -1.867    -1.745  0.9906  0.0185 -0.1359
     3 H(1)   Bbb    -0.0078    -4.187    -1.494    -1.397  0.0739  0.7624  0.6428
              Bcc     0.0177     9.420     3.361     3.142  0.1155 -0.6468  0.7538
 
              Baa    -0.0045    -0.604    -0.216    -0.202  0.1847  0.9733  0.1363
     4 C(13)  Bbb    -0.0033    -0.438    -0.156    -0.146  0.9711 -0.2021  0.1273
              Bcc     0.0078     1.042     0.372     0.348 -0.1514 -0.1088  0.9825
 
              Baa    -0.0040    -2.149    -0.767    -0.717  0.7176  0.6693 -0.1926
     5 H(1)   Bbb    -0.0038    -2.035    -0.726    -0.679 -0.6715  0.7383  0.0638
              Bcc     0.0078     4.184     1.493     1.396  0.1849  0.0836  0.9792
 
              Baa    -0.0015    -0.206    -0.074    -0.069  0.0902  0.9863  0.1382
     6 C(13)  Bbb    -0.0008    -0.105    -0.037    -0.035  0.9816 -0.1115  0.1550
              Bcc     0.0023     0.311     0.111     0.104 -0.1683 -0.1216  0.9782
 
              Baa    -0.0015    -0.789    -0.282    -0.263 -0.6040  0.7368  0.3038
     7 H(1)   Bbb    -0.0015    -0.780    -0.278    -0.260  0.7965  0.5447  0.2626
              Bcc     0.0029     1.569     0.560     0.523 -0.0280 -0.4006  0.9158
 
              Baa    -0.0010    -0.541    -0.193    -0.180  0.2864  0.9463  0.1500
     8 H(1)   Bbb    -0.0009    -0.496    -0.177    -0.165  0.9500 -0.3008  0.0838
              Bcc     0.0019     1.037     0.370     0.346 -0.1245 -0.1185  0.9851
 
              Baa    -0.0014    -0.760    -0.271    -0.254 -0.6893  0.7235 -0.0380
     9 H(1)   Bbb    -0.0014    -0.739    -0.264    -0.247  0.6324  0.6264  0.4557
              Bcc     0.0028     1.500     0.535     0.500 -0.3535 -0.2901  0.8893
 
              Baa    -0.0034    -0.450    -0.161    -0.150 -0.2091  0.8906 -0.4039
    10 C(13)  Bbb    -0.0030    -0.401    -0.143    -0.134  0.9107  0.3278  0.2512
              Bcc     0.0063     0.851     0.304     0.284 -0.3561  0.3153  0.8796
 
              Baa    -0.0030    -1.586    -0.566    -0.529  0.4978 -0.6066  0.6199
    11 H(1)   Bbb    -0.0028    -1.479    -0.528    -0.493  0.5973  0.7580  0.2622
              Bcc     0.0057     3.065     1.094     1.022 -0.6289  0.2397  0.7396
 
              Baa    -0.0014    -0.766    -0.273    -0.256 -0.4531  0.7812 -0.4295
    12 H(1)   Bbb    -0.0014    -0.739    -0.264    -0.246  0.8354  0.5402  0.1013
              Bcc     0.0028     1.505     0.537     0.502 -0.3111  0.3129  0.8974
 
              Baa    -0.0061     0.441     0.157     0.147 -0.4702 -0.5556  0.6857
    13 O(17)  Bbb    -0.0042     0.305     0.109     0.102  0.8512 -0.4908  0.1860
              Bcc     0.0103    -0.746    -0.266    -0.249  0.2332  0.6711  0.7037
 
              Baa    -0.0073    -3.896    -1.390    -1.300 -0.2509 -0.5557  0.7927
    14 H(1)   Bbb    -0.0071    -3.814    -1.361    -1.272  0.9446  0.0383  0.3259
              Bcc     0.0145     7.710     2.751     2.572 -0.2115  0.8305  0.5153
 
              Baa    -0.8180    59.190    21.120    19.744  0.0145  0.7602  0.6496
    15 O(17)  Bbb    -0.7468    54.035    19.281    18.024 -0.2043 -0.6337  0.7461
              Bcc     1.5648  -113.225   -40.401   -37.768  0.9788 -0.1436  0.1461
 
              Baa    -1.5656   113.287    40.424    37.788 -0.1136  0.1836  0.9764
    16 O(17)  Bbb    -1.5453   111.816    39.899    37.298  0.1638  0.9728 -0.1639
              Bcc     3.1109  -225.103   -80.322   -75.086  0.9799 -0.1413  0.1406
 

 ---------------------------------------------------------------------------------

 Use density number 0.
 Entering OneElI...
 Calculate overlap and kinetic energy integrals
    NBasis = 187  MinDer = 2  MaxDer = 2
 Requested accuracy = 0.1000D-12
 PrsmSu:  NPrtUS=   1 ThrOK=F
 PRISM was handed   130760377 working-precision words and  2539 shell-pairs
 Entering OneElI...
 Calculate potential energy integrals
    NBasis = 187  MinDer = 2  MaxDer = 2
 Requested accuracy = 0.1000D-12
 PrsmSu:  NPrtUS=   8 ThrOK=T
 PRISM was handed    16301692 working-precision words and  2366 shell-pairs
 PRISM was handed    16301692 working-precision words and  2366 shell-pairs
 PRISM was handed    16301692 working-precision words and  2366 shell-pairs
 PRISM was handed    16301692 working-precision words and  2366 shell-pairs
 PRISM was handed    16301692 working-precision words and  2366 shell-pairs
 PRISM was handed    16301692 working-precision words and  2366 shell-pairs
 PRISM was handed    16301692 working-precision words and  2366 shell-pairs
 PRISM was handed    16301692 working-precision words and  2366 shell-pairs
 Polarizability after L701:
                1             2             3
      1  0.488349D+02
      2 -0.120122D+01  0.566858D+02
      3 -0.442106D+01 -0.168913D+00  0.707236D+02
 Dipole Derivatives after L701:
               1            2            3            4            5
      1 0.355817D+00 0.180812D-01-0.671870D-01-0.827451D-01-0.259928D-01
      2 0.280463D-01 0.287813D+00-0.809085D-01-0.735915D-01 0.332201D-01
      3-0.393956D-01-0.726675D-01 0.570467D+00-0.189145D-01 0.451766D-01
               6            7            8            9           10
      1-0.279646D-01-0.219334D-01 0.518023D-01 0.433850D-01 0.339256D-01
      2-0.558946D-02 0.100334D+00-0.309786D-01-0.295333D-01 0.594042D-01
      3-0.310498D-01 0.220819D-01 0.334053D-01-0.196803D-01 0.117887D-01
              11           12           13           14           15
      1 0.806083D-02 0.186137D-01-0.104366D+00-0.608129D-01 0.566975D-03
      2-0.372864D-01 0.369716D-01-0.457314D-01-0.473153D-02-0.865264D-02
      3 0.775981D-01 0.492899D-01-0.144528D-01-0.219205D-01 0.841391D-02
              16           17           18           19           20
      1 0.117973D+00 0.127780D-01 0.241322D-01-0.126095D-01 0.903711D-01
      2 0.303780D-01 0.547051D-01 0.144626D-01 0.110717D+00-0.951339D-01
      3-0.866007D-02-0.275789D-01 0.242730D-01 0.800631D-02 0.275907D-01
              21           22           23           24           25
      1 0.282735D-01 0.711472D-01-0.165997D-01 0.186972D-02-0.122495D+00
      2-0.649000D-02-0.168601D-01 0.218033D-01-0.383792D-01-0.844290D-01
      3 0.613081D-01 0.251082D-02-0.792239D-01-0.128271D+00-0.334308D-02
              26           27           28           29           30
      1-0.420698D-01-0.573055D-01 0.449936D+00 0.122424D+00-0.552615D-01
      2 0.404995D-01-0.656825D-02 0.765121D-01 0.692283D+00-0.207323D+00
      3 0.170579D-01 0.442973D-01-0.496218D-01-0.181258D+00 0.380129D+00
              31           32           33           34           35
      1-0.182585D+00-0.104206D+00-0.902891D-01 0.445247D-01 0.101452D-01
      2-0.597223D-01-0.597303D-01-0.779386D-02 0.531555D-02 0.302436D-02
      3-0.420740D-01 0.122662D-01 0.148980D-02 0.109744D-01-0.474504D-01
              36           37           38           39           40
      1 0.497322D-01-0.541391D+00-0.234201D-01 0.597756D-01 0.304193D+00
      2-0.398830D-01-0.600915D-01-0.848323D+00 0.304013D+00-0.663297D-01
      3-0.152730D+00 0.687183D-01 0.233545D+00-0.494973D+00-0.142370D-01
              41           42           43           44           45
      1-0.482649D-01 0.180942D-03-0.160999D+00 0.111728D-01 0.490187D-01
      2 0.340573D+00-0.353465D-01 0.235408D-01-0.284928D+00-0.101702D+00
      3-0.107205D-01 0.256892D+00 0.711692D-01-0.118893D+00-0.556687D+00
              46           47           48
      1-0.148392D+00-0.346947D-02 0.224591D-01
      2-0.274927D-01-0.112809D+00 0.212722D+00
      3-0.455075D-02 0.113073D+00-0.131682D-01
 Hessian after L701:
                1             2             3             4             5
      1  0.184051D+02
      2 -0.375194D+00  0.154027D+02
      3  0.130911D+01  0.147517D+01  0.124011D+02
      4 -0.220745D+01  0.123677D+01  0.515257D+00  0.198709D+01
      5  0.138391D+01 -0.419481D+01  0.246304D+00 -0.151967D+01  0.409058D+01
      6  0.543793D+00  0.235576D+00 -0.475125D+01 -0.471803D+00 -0.347941D+00
      7 -0.343998D+01 -0.157609D+01 -0.837093D-01 -0.187196D+00  0.705532D-01
      8 -0.164985D+01 -0.284085D+01  0.862645D-01  0.667242D-01  0.120973D+00
      9 -0.760177D-01  0.760188D-01 -0.479924D+01 -0.331111D-01  0.971700D-02
     10 -0.621214D+01 -0.829924D-01 -0.161477D+00  0.693330D-01 -0.441419D-01
     11 -0.703947D-01 -0.532453D+01  0.206713D+01  0.388168D-03  0.105744D+00
     12 -0.163133D+00  0.218183D+01 -0.146980D+01 -0.530038D-01 -0.453525D-01
     13  0.161494D+00 -0.915863D-01 -0.557542D-01  0.639670D-01  0.730515D-01
     14 -0.662036D-01  0.441664D-01 -0.108500D+00  0.650466D-01  0.101066D-01
     15 -0.878735D-01 -0.159057D+00  0.510977D-01  0.816838D-01  0.587338D-01
     16 -0.527411D-01 -0.163465D-01 -0.281488D-02 -0.143660D-01  0.528453D-02
     17 -0.416077D-01 -0.757321D-01  0.151175D+00  0.912905D-02 -0.312460D-01
     18  0.597156D-03  0.230386D-01  0.268902D+00  0.609943D-01  0.750882D-02
     19 -0.222558D-01 -0.243084D-01  0.340185D-01  0.763254D-02  0.279694D-02
     20 -0.766494D-02  0.566323D-02 -0.455456D-01 -0.854684D-02 -0.233718D-02
     21  0.868794D-02 -0.209644D-01  0.183690D-01  0.223423D-04  0.277862D-02
     22 -0.470261D-01 -0.113986D-02 -0.130223D-01  0.506600D-05  0.937118D-03
     23 -0.292403D-03 -0.540370D-01  0.905326D-02  0.373770D-02 -0.268645D-05
     24 -0.194869D-01  0.205241D-03  0.198226D+00  0.112495D-01  0.558819D-02
     25  0.104713D-01  0.172097D-01 -0.203905D-01 -0.310246D-01 -0.277790D-02
     26 -0.121342D-02 -0.454693D-02  0.667056D-02 -0.259630D-02 -0.236288D-01
     27  0.702931D-02  0.388667D-02 -0.186501D-01 -0.576394D-03 -0.177101D-02
     28  0.629285D-01 -0.703817D-01 -0.763794D-01  0.297006D-01 -0.286849D-02
     29 -0.153168D+00  0.120656D+00  0.141331D+00  0.140646D-03 -0.539963D-01
     30 -0.117480D+00  0.979320D-01  0.139329D+00 -0.115299D-02 -0.581831D-01
     31 -0.509432D-01  0.673756D-01  0.992845D-02 -0.206141D-01 -0.401427D-01
     32  0.661963D-01 -0.371029D-01 -0.144359D-01 -0.160748D-01  0.285025D-01
     33  0.254388D-01 -0.156222D-01  0.241861D-01 -0.110263D-01  0.308882D-01
     34 -0.257071D-01 -0.543402D-01 -0.639505D-01 -0.207295D-02 -0.540148D-03
     35 -0.493722D-01  0.510901D-01  0.120006D+00  0.427568D-02  0.839019D-03
     36 -0.687415D-01  0.131774D+00  0.962036D-01  0.974271D-02  0.611174D-02
     37 -0.201351D+00 -0.133847D+00 -0.237701D-01 -0.182947D-01  0.938854D-02
     38 -0.134079D+00  0.373923D+00  0.120156D+00  0.512028D-01  0.597840D-01
     39 -0.306400D-01  0.158752D+00 -0.206776D+00  0.246038D-01  0.328472D-01
     40 -0.198225D-01  0.454991D-02  0.216256D-03 -0.100253D-02  0.508544D-02
     41 -0.300380D-02  0.425979D-01 -0.145844D-01  0.615012D-02  0.109534D-01
     42  0.853380D-02 -0.599165D-01 -0.121938D-01 -0.102199D-01 -0.928918D-02
     43 -0.637784D+01  0.105753D+01 -0.125677D+01  0.328933D+00  0.401986D-01
     44  0.102729D+01 -0.350632D+01 -0.369480D+01  0.725619D-01 -0.600471D-01
     45 -0.125546D+01 -0.379231D+01 -0.194253D+01 -0.121083D-01  0.105419D+00
     46  0.172191D-01  0.427966D-01 -0.110486D+00 -0.463945D-02  0.189345D-01
     47  0.746445D-01 -0.288734D-02 -0.545391D+00  0.307639D-01 -0.614157D-01
     48 -0.843574D-01 -0.336315D+00  0.304652D-02 -0.110551D+00 -0.433603D-01
                6             7             8             9            10
      6  0.455410D+01
      7 -0.308557D-01  0.342082D+01
      8  0.894226D-02  0.191670D+01  0.255685D+01
      9  0.124159D+00  0.780330D-01 -0.480211D-01  0.458540D+01
     10 -0.108094D+00  0.810775D-01  0.104533D-01  0.405725D-01  0.184415D+02
     11 -0.414306D-01  0.879635D-02  0.435380D-02 -0.764687D-01  0.120451D+01
     12 -0.260673D-01  0.590871D-02 -0.394694D-01  0.328165D-01  0.712181D+00
     13  0.816954D-01  0.163700D-01 -0.239697D-03 -0.723146D-02 -0.216856D+01
     14  0.511083D-01 -0.925773D-02 -0.270890D-01 -0.459136D-01  0.100715D+01
     15  0.232680D-01 -0.690979D-02 -0.485086D-01 -0.184575D-01  0.575971D+00
     16  0.312693D-01  0.320732D-02 -0.131020D-01 -0.174610D-01 -0.536401D+01
     17  0.103451D-02 -0.169334D-01 -0.478236D-02  0.900247D-02  0.788751D+00
     18  0.443268D-01 -0.375983D-01  0.207465D-01 -0.168385D-02 -0.805713D+00
     19  0.122223D-02 -0.231445D-01  0.465648D-02 -0.386992D-02  0.691852D-01
     20 -0.192070D-02  0.127004D-01 -0.257974D-01 -0.216726D-01 -0.295041D-01
     21 -0.671633D-02 -0.201867D-01 -0.327305D-03  0.431212D-01 -0.159111D-01
     22  0.151572D-02 -0.117324D-02 -0.900847D-03 -0.130468D-02  0.459294D-01
     23  0.261672D-02 -0.379374D-02  0.187181D-02  0.288355D-02 -0.204680D-02
     24  0.685060D-02 -0.997501D-02  0.106123D-01  0.628827D-02  0.214105D-01
     25 -0.254325D-01  0.934774D-02 -0.840881D-02 -0.144360D-02  0.843776D-01
     26 -0.155905D-01  0.252243D-02 -0.248969D-02 -0.450354D-03 -0.632420D-01
     27  0.542234D-01  0.448816D-03  0.150621D-02 -0.363920D-02  0.675914D-01
     28 -0.198877D-02  0.148855D-01 -0.992251D-01 -0.493926D-01 -0.454893D+01
     29 -0.597858D-01 -0.108017D+00  0.114876D+00  0.780709D-01 -0.265605D+01
     30 -0.256157D-01 -0.579822D-01  0.876241D-01 -0.165664D-01 -0.303491D-01
     31 -0.237071D-01  0.107474D-01 -0.122859D-01 -0.260875D-02 -0.222802D+00
     32  0.323096D-01 -0.333974D-02  0.812292D-03  0.119642D-02  0.143155D+00
     33 -0.360239D-02  0.493609D-03 -0.508562D-03 -0.193637D-02 -0.128690D+00
     34 -0.232270D-03  0.101900D-02 -0.222021D-03  0.194373D-02  0.129160D+00
     35  0.971204D-03 -0.147289D-02  0.347052D-03 -0.297101D-02  0.160411D-01
     36  0.299915D-02 -0.609550D-02  0.675821D-02 -0.132130D-03 -0.521421D-02
     37  0.447721D-02 -0.114955D-02 -0.201127D-01 -0.271450D-02 -0.627586D-01
     38  0.264279D-01 -0.340253D-01  0.439498D-01  0.688437D-02 -0.242751D+00
     39 -0.118683D-01 -0.144570D-01  0.241339D-01 -0.116261D-01  0.139399D+00
     40  0.102990D-02 -0.329753D-02 -0.288481D-02  0.156818D-03 -0.161955D-02
     41  0.783681D-03 -0.555575D-02  0.126466D-01 -0.457144D-03 -0.431871D-01
     42 -0.727630D-02  0.803176D-02 -0.117060D-01 -0.449210D-02  0.318313D-01
     43  0.340576D-01  0.164183D+00 -0.186662D+00  0.706973D-01 -0.147176D+00
     44  0.117512D+00 -0.222365D+00  0.941976D-01  0.351199D-01  0.109801D-01
     45  0.439376D-02  0.112036D+00 -0.126317D-01  0.239467D-01 -0.244807D+00
     46 -0.369468D-01 -0.657169D-01 -0.463905D-02  0.375203D-02 -0.192588D+00
     47 -0.106137D-01 -0.304196D-01 -0.498662D-01 -0.229389D-01 -0.171258D-01
     48  0.180803D-01  0.628175D-01 -0.854153D-01  0.420449D-01 -0.887007D-01
               11            12            13            14            15
     11  0.152433D+02
     12  0.402362D-01  0.142403D+02
     13  0.112547D+01  0.441755D+00  0.175383D+01
     14 -0.444370D+01  0.163929D+00 -0.114992D+01  0.435279D+01
     15  0.244491D+00 -0.477163D+01 -0.708246D+00 -0.122206D+00  0.453055D+01
     16  0.793225D+00 -0.806416D+00  0.893857D-01 -0.112058D-01  0.505644D-01
     17 -0.344432D+01 -0.240283D+01 -0.438951D-03  0.158155D-02  0.523143D-01
     18 -0.238350D+01 -0.304464D+01  0.341542D-01  0.439191D-01  0.579636D-02
     19 -0.533722D-01  0.115668D-01  0.927534D-02 -0.215490D-01  0.469131D-02
     20  0.538861D-01  0.840787D-03 -0.127189D-01 -0.392572D-01  0.234131D-01
     21  0.569918D-01  0.123448D-01  0.980226D-02  0.270656D-01  0.119242D-01
     22  0.157706D-02  0.191430D-01 -0.157399D-02 -0.146611D-01  0.286960D-01
     23  0.503136D-01  0.843858D-01 -0.227396D-01  0.488650D-02  0.244665D-01
     24  0.153367D-01  0.509191D-01  0.219149D-01  0.194134D-01 -0.255369D-01
     25 -0.169295D-01  0.492754D-02  0.931493D-01  0.835843D-01 -0.248589D-01
     26  0.429692D-01  0.165914D-01  0.907189D-01  0.246234D-01 -0.159193D-01
     27  0.471520D-01  0.761974D-01 -0.377612D-01 -0.232277D-01 -0.285575D-01
     28 -0.270754D+01  0.178823D-01 -0.431241D-01  0.152807D+00 -0.221630D-01
     29 -0.218176D+01 -0.107319D+00  0.118366D+00  0.111084D+00  0.194676D-01
     30  0.100707D-01 -0.611222D+01  0.124993D-01  0.993218D-02  0.174353D+00
     31  0.949089D-01 -0.196570D+00  0.209371D+00 -0.348069D-01  0.534729D-01
     32  0.196688D+00  0.794124D-01 -0.372792D-01 -0.496358D-01 -0.792656D-02
     33  0.491569D-01  0.162116D+00  0.450178D-01 -0.487107D-02 -0.416265D-01
     34  0.218190D-01  0.378461D-01 -0.509291D-01  0.446928D-01  0.327056D-01
     35 -0.527324D-01 -0.118564D+00  0.454660D-01  0.471871D-02 -0.187211D-01
     36 -0.700172D-01  0.406124D-01  0.313536D-01 -0.256544D-01  0.128557D-01
     37 -0.344403D+00  0.175254D+00 -0.573665D-01 -0.578865D-01  0.168613D-01
     38  0.301780D+00  0.147588D+00 -0.149736D+00  0.957198D-01 -0.717916D-01
     39  0.119197D+00 -0.205738D+00  0.102555D-01 -0.327119D-01 -0.997277D-01
     40 -0.311065D-01  0.246812D-01 -0.417990D-02  0.736546D-02 -0.744001D-02
     41 -0.865737D-01  0.286027D-01  0.789046D-02 -0.101458D-01  0.103883D-01
     42 -0.423546D-01  0.282409D-01  0.950632D-02  0.893913D-02  0.149148D-02
     43 -0.161230D-01 -0.179642D+00 -0.603869D-01  0.219093D-02  0.286050D-02
     44 -0.277839D+00 -0.138898D+00 -0.224381D-02 -0.662868D-01 -0.102512D-02
     45 -0.117107D+00  0.458739D+00  0.762906D-01  0.210707D-01  0.140312D+00
     46 -0.108351D-01 -0.523805D-01 -0.107286D-01  0.265659D-02  0.998360D-02
     47 -0.187614D+00  0.109015D+00  0.593750D-02 -0.135697D-01  0.118807D-01
     48  0.811219D-01  0.527812D+00  0.347469D-01  0.177072D-01  0.338927D-01
               16            17            18            19            20
     16  0.147047D+02
     17 -0.315898D+00  0.131823D+02
     18  0.404817D+00  0.162200D+01  0.126057D+02
     19 -0.314259D+01 -0.124667D+01 -0.807379D-01  0.318485D+01
     20 -0.132507D+01 -0.231894D+01  0.131529D+00  0.137516D+01  0.204443D+01
     21  0.263335D-01 -0.178950D-01 -0.410153D+01 -0.486532D-01  0.957722D-01
     22 -0.407873D+01  0.759360D-01  0.169836D+00  0.521107D-01  0.358696D-01
     23  0.655328D-01 -0.375043D+01  0.843042D+00  0.131443D-01 -0.883204D-03
     24  0.180667D+00  0.103054D+01 -0.177018D+01  0.172921D-01 -0.486537D-01
     25 -0.170899D+01  0.830573D+00  0.319204D+00 -0.894268D-01  0.475205D-01
     26  0.968412D+00 -0.386846D+01  0.138873D+00  0.674956D-01  0.864176D-01
     27  0.135222D+00  0.599468D-01 -0.418294D+01  0.774950D-02 -0.313394D-02
     28 -0.490286D-01 -0.757592D-01  0.876528D-02 -0.186981D-01 -0.704521D-01
     29 -0.149453D+00  0.149204D+00 -0.350060D-02 -0.781688D-01  0.148327D+00
     30  0.648635D-01 -0.101425D+00 -0.630867D-01  0.269323D-01 -0.591240D-01
     31  0.400935D-01 -0.601386D-01  0.528424D-01  0.272846D-02 -0.134508D-02
     32 -0.471574D-01 -0.151897D-01 -0.292460D-01  0.452660D-02 -0.620323D-02
     33  0.546564D-01 -0.386081D-01 -0.614390D-02  0.481307D-03 -0.195046D-03
     34 -0.322829D-01  0.369547D-02 -0.627076D-02  0.505511D-03 -0.715643D-02
     35  0.544841D-02  0.347104D-01  0.146236D-01 -0.730381D-02  0.119674D-01
     36 -0.146116D-01  0.405252D-01 -0.134454D-01 -0.610992D-02  0.106779D-01
     37 -0.174339D+00  0.966933D-02 -0.481299D-02 -0.465019D-02 -0.896409D-02
     38 -0.761691D-03  0.298404D+00 -0.220453D+00 -0.199137D-01  0.287863D-01
     39 -0.323041D-02 -0.218408D+00 -0.760868D-01  0.224889D-02 -0.601351D-02
     40 -0.107063D-01  0.516879D-02 -0.320756D-02 -0.172519D-02  0.115826D-02
     41  0.133588D-02  0.202915D-02 -0.732276D-02 -0.532224D-03  0.156698D-02
     42  0.161640D-02 -0.280023D-01  0.733390D-02  0.530411D-02 -0.108273D-01
     43 -0.141884D+00  0.322005D-01 -0.862766D-01 -0.149776D-01 -0.117337D-02
     44  0.347593D-01 -0.928094D-01 -0.170437D+00 -0.115288D-01  0.123165D-01
     45 -0.810776D-01 -0.147140D+00  0.238558D+00  0.167318D-01 -0.423859D-01
     46 -0.676661D-01  0.232341D-02 -0.265930D-01 -0.880988D-02  0.189363D-03
     47  0.499543D-02 -0.662681D-01 -0.308179D-01 -0.442959D-02  0.578243D-04
     48 -0.243976D-01 -0.122341D-01  0.891217D-01  0.111323D-01 -0.227604D-01
               21            22            23            24            25
     21  0.391979D+01
     22  0.414320D-01  0.407359D+01
     23 -0.625222D-01 -0.119265D-02  0.371198D+01
     24  0.302520D-01 -0.184101D+00 -0.848281D+00  0.138138D+01
     25 -0.243937D-01  0.171557D-01 -0.311714D-01 -0.610291D-01  0.164227D+01
     26  0.744449D-02 -0.596967D-01  0.429457D-01 -0.515284D-01 -0.995451D+00
     27  0.862054D-01 -0.850126D-01 -0.400759D-01  0.200069D-01 -0.906383D-01
     28  0.242265D-01 -0.123996D-01 -0.419052D-03  0.138554D-02  0.170102D-03
     29 -0.579439D-01 -0.918402D-02 -0.218943D-01 -0.219875D-01  0.106696D-01
     30 -0.320320D-01  0.136196D-01  0.590024D-02  0.273797D-01 -0.828097D-02
     31 -0.266361D-02  0.127917D-02  0.392481D-02  0.862712D-02 -0.286325D-01
     32  0.367748D-02  0.129157D-02 -0.231676D-02  0.207291D-02 -0.668931D-02
     33 -0.512178D-03  0.767641D-03  0.339918D-02  0.500114D-02  0.604022D-05
     34 -0.138143D-03 -0.152961D-01 -0.237013D-01  0.184959D-01 -0.196484D-03
     35  0.676893D-03 -0.254058D-01  0.333897D-01 -0.451177D-01  0.587255D-02
     36 -0.216143D-02  0.462480D-02 -0.171762D-01 -0.253365D-01  0.919013D-02
     37  0.651565D-03 -0.169213D-01 -0.196920D-03  0.498980D-02 -0.710014D-02
     38 -0.400071D-02 -0.454835D-02 -0.393345D-03 -0.531504D-01  0.390462D-01
     39 -0.900300D-02  0.394358D-02 -0.182107D-01  0.205992D-01 -0.697593D-02
     40 -0.545696D-04 -0.150187D-02 -0.780002D-04 -0.192511D-02  0.116117D-02
     41 -0.152365D-02  0.514128D-04  0.302140D-03 -0.220498D-02  0.742477D-03
     42  0.151321D-02  0.990866D-03 -0.639087D-03  0.130917D-01 -0.912875D-02
     43  0.117924D-02 -0.978188D-02 -0.144013D-03 -0.623410D-02  0.566816D-02
     44 -0.210149D-01  0.946773D-03 -0.965561D-02 -0.113283D-01  0.196603D-01
     45  0.163655D-01 -0.768957D-03  0.542429D-02  0.373147D-01 -0.372291D-01
     46 -0.334360D-03 -0.566273D-02 -0.563725D-03 -0.328075D-02  0.160284D-02
     47 -0.821508D-02  0.119771D-03 -0.607479D-02 -0.152103D-02  0.654987D-02
     48  0.120665D-01 -0.359645D-03  0.573419D-02  0.237390D-01 -0.235259D-01
               26            27            28            29            30
     26  0.364137D+01
     27  0.443039D-03  0.401201D+01
     28 -0.623348D-02  0.749817D-02  0.183221D+02
     29  0.705871D-03  0.198755D-01 -0.196808D+00  0.123709D+02
     30 -0.323683D-03 -0.206437D-01  0.161747D+01  0.235608D+01  0.173681D+02
     31 -0.312469D-01  0.146122D-01 -0.190116D+01  0.978285D+00  0.102885D+01
     32  0.419785D-01 -0.361489D-01  0.798230D+00 -0.430890D+01  0.289068D+00
     33 -0.411929D-01 -0.385371D-02  0.848850D+00  0.296824D+00 -0.424234D+01
     34 -0.866019D-03 -0.364457D-03 -0.453707D+01 -0.116998D+00 -0.577984D+00
     35 -0.578456D-02  0.195005D-02 -0.104441D+00 -0.447745D+01  0.703991D+00
     36  0.704948D-02  0.187202D-02 -0.466841D+00  0.640653D+00 -0.168846D+01
     37  0.134221D-01 -0.369286D-02 -0.712776D+01  0.244105D+01 -0.166979D+01
     38  0.334145D-01 -0.121677D-01  0.251571D+01 -0.183841D+01 -0.378101D+01
     39 -0.135411D-01 -0.121493D-01 -0.165442D+01 -0.355724D+01 -0.604847D+01
     40  0.162596D-02 -0.351960D-03  0.131072D+00  0.326696D-01  0.386035D-01
     41  0.140463D-03 -0.504182D-03 -0.240920D-01  0.174056D+00  0.120718D+00
     42 -0.670391D-02  0.694214D-03  0.333953D-01 -0.532718D-01  0.404195D-01
     43  0.119627D-01 -0.142336D-01 -0.243820D+00 -0.819482D-01 -0.254033D+00
     44 -0.391658D-02 -0.128209D-01 -0.851112D-01 -0.237591D+00  0.234253D+00
     45 -0.215273D-01  0.947726D-02 -0.232959D+00  0.233767D+00  0.392723D+00
     46  0.438653D-02 -0.751965D-02 -0.788687D-01 -0.313823D-01 -0.857840D-01
     47 -0.573896D-02 -0.490991D-02 -0.234218D-01 -0.697838D-01  0.845039D-01
     48 -0.102951D-01  0.974632D-02 -0.553310D-01  0.749883D-01  0.107111D+00
               31            32            33            34            35
     31  0.146779D+01
     32 -0.776429D+00  0.422232D+01
     33 -0.821092D+00 -0.399465D+00  0.416337D+01
     34  0.804032D-01 -0.659865D-01 -0.171529D+00  0.452965D+01
     35 -0.845675D-01  0.128492D+00 -0.126165D+00  0.346664D+00  0.448153D+01
     36 -0.198778D+00 -0.115739D+00 -0.114446D+00  0.706485D+00 -0.771810D+00
     37  0.376139D+00 -0.108427D-01  0.162785D+00 -0.442113D-01 -0.150344D+00
     38 -0.157393D-01 -0.144562D+00  0.197236D+00 -0.150731D+00 -0.164875D+00
     39  0.163820D+00  0.160521D+00  0.671718D-01  0.113925D+00  0.239629D+00
     40 -0.249233D-01 -0.374187D-01  0.416362D-01 -0.194349D-01  0.902618D-02
     41 -0.513579D-01 -0.109360D-01  0.346134D-01  0.133144D-01 -0.336172D-01
     42  0.264845D-01  0.251259D-01 -0.820184D-02 -0.610206D-01 -0.306910D-01
     43  0.490945D-01 -0.891252D-02 -0.355907D-01 -0.898252D-02 -0.686485D-02
     44 -0.240986D-01 -0.316882D-01  0.962241D-02 -0.654371D-02 -0.988214D-02
     45 -0.789987D-01  0.620770D-02 -0.194336D-02 -0.215046D-01  0.217989D-01
     46  0.114280D-01 -0.326975D-02 -0.122045D-01 -0.455012D-02 -0.302135D-02
     47 -0.123365D-01 -0.122533D-01  0.488781D-02 -0.310108D-02 -0.274598D-02
     48 -0.342187D-01  0.336953D-02  0.275434D-02 -0.840661D-02  0.103924D-01
               36            37            38            39            40
     36  0.121748D+01
     37  0.103398D+00  0.145903D+02
     38  0.163614D+00 -0.135168D+01  0.758714D+01
     39  0.217395D+00  0.281751D+01  0.164792D+01  0.785969D+01
     40 -0.613443D-01 -0.681410D+01 -0.211495D+00 -0.126515D+01  0.695855D+01
     41 -0.444857D-01 -0.917111D-01 -0.690626D+01  0.617808D+00  0.289124D+00
     42  0.172599D+00 -0.131010D+01  0.110563D+01 -0.169516D+01  0.128077D+01
     43 -0.262543D-01 -0.311917D+00 -0.227648D+00 -0.222932D+00 -0.166513D+00
     44  0.242795D-01 -0.237159D+00  0.182909D+00  0.599826D+00 -0.699106D-01
     45  0.550369D-01 -0.198091D+00  0.510382D+00  0.848980D-01 -0.494288D-01
     46 -0.108042D-01 -0.124508D+00 -0.628561D-01 -0.779090D-01 -0.219482D-01
     47  0.134401D-01 -0.663812D-01  0.486874D-01  0.245491D+00 -0.288057D-02
     48  0.269274D-01 -0.729551D-01  0.216739D+00  0.126855D+00  0.180082D-02
               41            42            43            44            45
     41  0.672777D+01
     42 -0.931941D+00  0.165491D+01
     43 -0.949383D-01 -0.220432D-01  0.153699D+02
     44  0.566867D-01  0.508723D-01 -0.375153D+00  0.881654D+01
     45  0.171539D+00 -0.157988D+00  0.303820D+01 -0.185479D+01 -0.330696D+01
     46 -0.423099D-02  0.604683D-02 -0.843447D+01 -0.132087D+00 -0.103083D+01
     47  0.187913D-01 -0.522145D-02 -0.144513D+00 -0.486661D+01  0.491229D+01
     48  0.185708D-01 -0.349826D-01 -0.104298D+01  0.483363D+01  0.394766D+01
               46            47            48
     46  0.898990D+01
     47  0.181598D+00  0.527729D+01
     48  0.143529D+01 -0.475188D+01 -0.493588D+01
 ReadGW:  IGet=0 IStart=         114 Next=        7220 LGW=        7106.
 ICntrl=12127.
 Symmetry not used in FoFDir.
 MinBra= 0 MaxBra= 2 Meth= 1.
 IRaf=       0 NMat=   1 IRICut=       1 DoRegI=T DoRafI=F ISym2E= 0 JSym2E=0.
 PrsmSu:  NPrtUS=   8 ThrOK=T
 PRISM was handed    16287861 working-precision words and  2438 shell-pairs
 PRISM was handed    16287861 working-precision words and  2438 shell-pairs
 PRISM was handed    16287861 working-precision words and  2438 shell-pairs
 PRISM was handed    16287861 working-precision words and  2438 shell-pairs
 PRISM was handed    16287861 working-precision words and  2438 shell-pairs
 PRISM was handed    16287861 working-precision words and  2438 shell-pairs
 PRISM was handed    16287861 working-precision words and  2438 shell-pairs
 PRISM was handed    16287861 working-precision words and  2438 shell-pairs
 Pruned (  75, 302) grid will be used in CalDFT.
 CkSvGd:  ISavGI=        -1 IRadAn=       4 IRASav=       4 ISavGd=        -1.
 CalDSu:  NPrtUS=   8 ThrOK=T
 IPart= 0 IRanGd=          0 ScrnBf=T ScrnGd=T RCrit=4.00D+00 DoMicB=T.
 IPart= 1 IRanGd=          0 ScrnBf=T ScrnGd=T RCrit=4.00D+00 DoMicB=T.
 IPart= 4 IRanGd=          0 ScrnBf=T ScrnGd=T RCrit=4.00D+00 DoMicB=T.
 IPart= 5 IRanGd=          0 ScrnBf=T ScrnGd=T RCrit=4.00D+00 DoMicB=T.
 IPart= 7 IRanGd=          0 ScrnBf=T ScrnGd=T RCrit=4.00D+00 DoMicB=T.
 IPart= 6 IRanGd=          0 ScrnBf=T ScrnGd=T RCrit=4.00D+00 DoMicB=T.
 CutRad = 1000.00    CtRdIn =    0.00    XCrit =  15.00   ICut = 0
 CutRad = 1000.00    CtRdIn =    0.00    XCrit =  15.00   ICut = 0
 CutRad = 1000.00    CtRdIn =    0.00    XCrit =  15.00   ICut = 0
 CutRad = 1000.00    CtRdIn =    0.00    XCrit =  15.00   ICut = 0
 CutRad = 1000.00    CtRdIn =    0.00    XCrit =  15.00   ICut = 0
 IPart= 2 IRanGd=          0 ScrnBf=T ScrnGd=T RCrit=4.00D+00 DoMicB=T.
 IPart= 3 IRanGd=          0 ScrnBf=T ScrnGd=T RCrit=4.00D+00 DoMicB=T.
 CutRad = 1000.00    CtRdIn =    0.00    XCrit =  15.00   ICut = 0
 CutRad = 1000.00    CtRdIn =    0.00    XCrit =  15.00   ICut = 0
 CutRad = 1000.00    CtRdIn =    0.00    XCrit =  15.00   ICut = 0
 IPart= 1        13619 of        15792 points in      34 batches and       91 microbatches, Max-NSigAt=      16 Max-NSgAt2=      16
 IPart= 0        14528 of        16294 points in      33 batches and       95 microbatches, Max-NSigAt=      16 Max-NSgAt2=      16
 IPart= 6        12523 of        14374 points in      30 batches and      106 microbatches, Max-NSigAt=      16 Max-NSgAt2=      16
 IPart= 7        15049 of        17238 points in      35 batches and      102 microbatches, Max-NSigAt=      16 Max-NSgAt2=      16
 IPart= 2        13193 of        15652 points in      33 batches and       87 microbatches, Max-NSigAt=      16 Max-NSgAt2=      16
 IPart= 5        15338 of        17076 points in      34 batches and       92 microbatches, Max-NSigAt=      16 Max-NSgAt2=      16
 IPart= 4        14222 of        15810 points in      31 batches and       97 microbatches, Max-NSigAt=      16 Max-NSgAt2=      16
 IPart= 3        13488 of        15700 points in      33 batches and       99 microbatches, Max-NSigAt=      16 Max-NSgAt2=      16
 Polarizability after L703:
                1             2             3
      1  0.488349D+02
      2 -0.120122D+01  0.566858D+02
      3 -0.442106D+01 -0.168913D+00  0.707236D+02
 Dipole Derivatives after L703:
               1            2            3            4            5
      1 0.355817D+00 0.180812D-01-0.671870D-01-0.827451D-01-0.259928D-01
      2 0.280463D-01 0.287813D+00-0.809085D-01-0.735915D-01 0.332201D-01
      3-0.393956D-01-0.726675D-01 0.570467D+00-0.189145D-01 0.451766D-01
               6            7            8            9           10
      1-0.279646D-01-0.219334D-01 0.518023D-01 0.433850D-01 0.339256D-01
      2-0.558946D-02 0.100334D+00-0.309786D-01-0.295333D-01 0.594042D-01
      3-0.310498D-01 0.220819D-01 0.334053D-01-0.196803D-01 0.117887D-01
              11           12           13           14           15
      1 0.806083D-02 0.186137D-01-0.104366D+00-0.608129D-01 0.566975D-03
      2-0.372864D-01 0.369716D-01-0.457314D-01-0.473153D-02-0.865264D-02
      3 0.775981D-01 0.492899D-01-0.144528D-01-0.219205D-01 0.841391D-02
              16           17           18           19           20
      1 0.117973D+00 0.127780D-01 0.241322D-01-0.126095D-01 0.903711D-01
      2 0.303780D-01 0.547051D-01 0.144626D-01 0.110717D+00-0.951339D-01
      3-0.866007D-02-0.275789D-01 0.242730D-01 0.800631D-02 0.275907D-01
              21           22           23           24           25
      1 0.282735D-01 0.711472D-01-0.165997D-01 0.186972D-02-0.122495D+00
      2-0.649000D-02-0.168601D-01 0.218033D-01-0.383792D-01-0.844290D-01
      3 0.613081D-01 0.251082D-02-0.792239D-01-0.128271D+00-0.334308D-02
              26           27           28           29           30
      1-0.420698D-01-0.573055D-01 0.449936D+00 0.122424D+00-0.552615D-01
      2 0.404995D-01-0.656825D-02 0.765121D-01 0.692283D+00-0.207323D+00
      3 0.170579D-01 0.442973D-01-0.496218D-01-0.181258D+00 0.380129D+00
              31           32           33           34           35
      1-0.182585D+00-0.104206D+00-0.902891D-01 0.445247D-01 0.101452D-01
      2-0.597223D-01-0.597303D-01-0.779386D-02 0.531555D-02 0.302436D-02
      3-0.420740D-01 0.122662D-01 0.148980D-02 0.109744D-01-0.474504D-01
              36           37           38           39           40
      1 0.497322D-01-0.541391D+00-0.234201D-01 0.597756D-01 0.304193D+00
      2-0.398830D-01-0.600915D-01-0.848323D+00 0.304013D+00-0.663297D-01
      3-0.152730D+00 0.687183D-01 0.233545D+00-0.494973D+00-0.142370D-01
              41           42           43           44           45
      1-0.482649D-01 0.180942D-03-0.160999D+00 0.111728D-01 0.490187D-01
      2 0.340573D+00-0.353465D-01 0.235408D-01-0.284928D+00-0.101702D+00
      3-0.107205D-01 0.256892D+00 0.711692D-01-0.118893D+00-0.556687D+00
              46           47           48
      1-0.148392D+00-0.346947D-02 0.224591D-01
      2-0.274927D-01-0.112809D+00 0.212722D+00
      3-0.455075D-02 0.113073D+00-0.131682D-01
 Hessian after L703:
                1             2             3             4             5
      1  0.593421D+00
      2 -0.371354D-01  0.514521D+00
      3  0.317941D-01  0.754357D-01  0.420693D+00
      4 -0.263045D+00 -0.794836D-01 -0.555700D-01  0.279439D+00
      5 -0.777714D-01 -0.783276D-01 -0.228894D-01  0.929358D-01  0.902417D-01
      6 -0.611219D-01 -0.266917D-01 -0.617790D-01  0.586270D-01  0.197196D-01
      7 -0.185735D+00  0.134504D+00  0.125115D-01 -0.183139D-01  0.204831D-01
      8  0.130437D+00 -0.175311D+00 -0.142123D-01 -0.791947D-02  0.103231D-01
      9  0.163547D-01 -0.208154D-01 -0.481886D-01 -0.622249D-02  0.456142D-02
     10 -0.840421D-01 -0.300404D-02 -0.936128D-02  0.307280D-03 -0.126056D-01
     11 -0.191413D-02 -0.111948D+00 -0.543891D-01  0.344358D-03 -0.486676D-02
     12 -0.711494D-02 -0.468832D-01 -0.147371D+00 -0.537257D-03 -0.427270D-02
     13  0.978660D-04  0.204035D-03 -0.601102D-03  0.119424D-02 -0.220337D-04
     14 -0.147634D-01 -0.697498D-02 -0.361998D-02  0.352931D-03 -0.482727D-03
     15 -0.305659D-01 -0.129669D-01 -0.911460D-02  0.465359D-03 -0.224268D-02
     16 -0.782697D-03  0.474106D-03  0.155337D-02  0.442256D-03  0.229204D-03
     17  0.209818D-02  0.104910D-01 -0.622843D-03  0.112349D-03  0.456753D-03
     18  0.790082D-02  0.224002D-01 -0.298944D-01 -0.278076D-04  0.588585D-03
     19  0.231252D-03  0.883447D-04  0.241488D-03 -0.144186D-03  0.180083D-03
     20  0.675654D-03 -0.127039D-03 -0.113545D-02 -0.904303D-04  0.326960D-04
     21 -0.117923D-02  0.161179D-02  0.397449D-03 -0.215388D-04 -0.826187D-04
     22 -0.470281D-03 -0.149369D-02  0.458599D-03  0.261936D-03  0.236544D-03
     23 -0.484924D-03 -0.393807D-02  0.123887D-02  0.188942D-03 -0.787371D-04
     24  0.125022D-02  0.477209D-02 -0.543912D-03 -0.928842D-04  0.111557D-03
     25 -0.189189D-03 -0.230949D-03 -0.103498D-02  0.315401D-03  0.191008D-03
     26  0.149367D-03  0.126797D-03 -0.132541D-02  0.258952D-03  0.498082D-03
     27  0.192860D-02  0.713112D-03  0.152864D-02 -0.483196D-03 -0.173443D-03
     28 -0.160547D-02  0.375039D-02  0.654741D-02  0.111560D-02 -0.231113D-02
     29  0.110073D-01 -0.142808D-01 -0.102125D-01  0.521475D-03  0.882685D-04
     30  0.243908D-01 -0.312919D-01 -0.557440D-03  0.339470D-03  0.573789D-03
     31  0.383523D-03 -0.185374D-02 -0.125313D-02  0.388414D-03  0.804165D-03
     32  0.536283D-03  0.134547D-02  0.118245D-02 -0.572942D-03 -0.259112D-05
     33  0.121057D-02  0.584781D-03  0.403455D-03 -0.106075D-03  0.187762D-03
     34 -0.276230D-02  0.288176D-02 -0.122318D-02  0.196609D-03  0.283863D-03
     35  0.438740D-02 -0.361105D-02  0.985370D-03  0.150658D-04  0.188708D-03
     36  0.453839D-03  0.521791D-03  0.943379D-03 -0.646433D-05  0.169962D-03
     37 -0.296655D-03 -0.138284D-02  0.233189D-03  0.737575D-04  0.642999D-03
     38 -0.128495D-02  0.141863D-02  0.311768D-02  0.375494D-04  0.121345D-03
     39 -0.755940D-03  0.265288D-02 -0.352866D-02 -0.644301D-04 -0.333029D-03
     40  0.156335D-02  0.163256D-03 -0.590244D-03 -0.262093D-03 -0.426734D-03
     41  0.194226D-03 -0.301234D-02  0.182517D-02  0.121131D-03  0.285985D-03
     42 -0.694982D-03  0.721388D-03  0.311993D-02  0.324964D-04  0.269315D-03
     43 -0.531421D-01 -0.235867D-01  0.500315D-02 -0.328105D-02 -0.237972D-01
     44 -0.181512D-01 -0.154537D+00  0.107700D-01 -0.783130D-02 -0.197975D-01
     45  0.101334D-01  0.434058D-01 -0.596751D-01  0.462695D-02  0.692006D-02
     46 -0.362662D-02  0.610475D-02  0.112911D-01  0.131134D-02  0.947388D-03
     47  0.201952D-02  0.241658D-01  0.138517D-01  0.100920D-02  0.131922D-02
     48  0.601582D-02 -0.141705D-01 -0.664326D-01 -0.959168D-03 -0.310818D-02
                6             7             8             9            10
      6  0.717122D-01
      7  0.248111D-02  0.190620D+00
      8 -0.254386D-03 -0.141320D+00  0.198218D+00
      9  0.234140D-02 -0.162760D-01  0.103654D-01  0.568893D-01
     10 -0.273017D-01  0.156009D-02  0.946845D-02  0.212380D-01  0.571550D+00
     11 -0.112048D-01 -0.255859D-02 -0.933956D-02 -0.205215D-01  0.475076D-01
     12 -0.720067D-02 -0.108604D-02 -0.168689D-02 -0.238859D-03  0.177379D-01
     13  0.890427D-03  0.860504D-03 -0.202505D-03 -0.520694D-03 -0.262731D+00
     14 -0.266453D-02 -0.140482D-03  0.985266D-04  0.362633D-03 -0.788052D-01
     15 -0.518040D-02  0.518944D-03  0.392186D-03  0.121682D-02 -0.410799D-01
     16 -0.955382D-03 -0.610545D-04 -0.261351D-03  0.216164D-03 -0.865497D-01
     17 -0.821608D-03  0.194481D-03  0.426856D-03 -0.113481D-02 -0.163536D-01
     18  0.175648D-02  0.133832D-03  0.747335D-03  0.137860D-02  0.182578D-01
     19  0.326174D-04  0.238448D-03 -0.312639D-05 -0.184811D-03  0.583474D-02
     20  0.840523D-04 -0.263478D-03  0.649510D-03  0.695951D-03  0.137916D-01
     21 -0.455752D-04  0.442179D-03 -0.237271D-03 -0.403719D-03 -0.163076D-01
     22  0.268129D-03  0.635443D-04 -0.309047D-03 -0.214919D-03 -0.666859D-03
     23  0.690316D-04 -0.296869D-03  0.617654D-04  0.144890D-03  0.250026D-02
     24  0.238365D-03  0.905621D-04 -0.292834D-04  0.185146D-03 -0.192484D-02
     25  0.804741D-03 -0.760302D-05 -0.852669D-04 -0.722178D-04 -0.691084D-02
     26  0.446715D-03  0.116409D-03  0.389288D-04  0.758953D-04 -0.221385D-01
     27 -0.376361D-03 -0.563090D-04  0.246208D-04 -0.731658D-04  0.230171D-01
     28 -0.153738D-02  0.668006D-03 -0.931578D-03 -0.117942D-02 -0.126088D+00
     29  0.142150D-02 -0.339375D-03  0.716204D-03 -0.387827D-03  0.453302D-01
     30  0.109865D-02 -0.174080D-03 -0.256502D-02 -0.676796D-02  0.352076D-02
     31  0.104862D-02  0.567981D-03  0.159450D-03 -0.915415D-04 -0.212156D-01
     32 -0.178421D-03 -0.254966D-03  0.826067D-04  0.253722D-03  0.241667D-01
     33  0.304745D-03 -0.736310D-04  0.114574D-03  0.125803D-03  0.233721D-02
     34  0.176062D-03  0.309846D-03  0.614935D-03  0.111388D-02 -0.207660D-02
     35  0.340461D-03  0.145290D-03 -0.454430D-03 -0.162842D-02  0.172017D-02
     36  0.131180D-03  0.652451D-04 -0.636454D-04 -0.142892D-04 -0.462855D-03
     37  0.408129D-03  0.856979D-04 -0.110264D-03 -0.322339D-03  0.957436D-02
     38 -0.122205D-03  0.450501D-03 -0.864074D-04 -0.387967D-03 -0.148774D-01
     39  0.354573D-03 -0.173415D-04  0.283222D-03  0.881428D-03  0.401539D-04
     40  0.399341D-04 -0.192335D-03 -0.164571D-03  0.351908D-04  0.186503D-02
     41 -0.169558D-03 -0.209283D-04  0.268392D-03 -0.170914D-03  0.322352D-03
     42 -0.373305D-03  0.131800D-03  0.100843D-03 -0.420049D-03 -0.996825D-03
     43  0.267870D-01  0.874052D-02  0.104941D-01 -0.137745D-01 -0.111254D-02
     44  0.182754D-01 -0.959113D-02 -0.285025D-01  0.272466D-01  0.429327D-02
     45 -0.810414D-02  0.268854D-02  0.106975D-01 -0.126566D-01  0.812224D-02
     46 -0.647417D-03  0.595402D-03  0.133288D-03 -0.990170D-04  0.702359D-03
     47  0.175045D-02 -0.110786D-02  0.281075D-02  0.134029D-02 -0.131624D-02
     48  0.512189D-02 -0.138032D-02 -0.367692D-02  0.574479D-02  0.316396D-02
               11            12            13            14            15
     11  0.481980D+00
     12  0.139736D-01  0.468718D+00
     13 -0.783941D-01 -0.429088D-01  0.286278D+00
     14 -0.762732D-01 -0.182026D-01  0.855347D-01  0.871309D-01
     15 -0.177959D-01 -0.569830D-01  0.452846D-01  0.189089D-01  0.655598D-01
     16 -0.153570D-01  0.168347D-01 -0.568781D-02 -0.206340D-01  0.236002D-01
     17 -0.120423D+00  0.442600D-01 -0.250047D-02 -0.888186D-02  0.936100D-02
     18  0.460218D-01 -0.123624D+00 -0.229011D-03 -0.235056D-02  0.292752D-02
     19 -0.805972D-02 -0.111536D-02  0.577419D-03  0.171500D-03 -0.625326D-03
     20 -0.177526D-01 -0.137363D-02 -0.298015D-03  0.342203D-03 -0.551825D-03
     21  0.184868D-01  0.143968D-03  0.177580D-03 -0.795165D-03  0.763413D-03
     22  0.352211D-02  0.871529D-02  0.233840D-03  0.542445D-03  0.933337D-04
     23  0.864692D-02  0.224680D-01  0.211959D-03  0.106319D-02 -0.805928D-03
     24 -0.863155D-02 -0.213980D-01  0.321974D-03 -0.189768D-03  0.982331D-03
     25 -0.339340D-02  0.170734D-03  0.105353D-02 -0.602523D-03  0.135668D-02
     26 -0.829579D-02 -0.299341D-02 -0.478772D-03 -0.238036D-02  0.384446D-02
     27  0.662934D-02  0.257221D-02  0.919725D-03  0.317696D-02 -0.307866D-02
     28  0.416134D-01  0.505008D-02 -0.246237D-01  0.263821D-01  0.601139D-03
     29 -0.115398D+00 -0.117989D-01 -0.656356D-02  0.631006D-02  0.122031D-02
     30 -0.883811D-02 -0.838248D-01 -0.399432D-02  0.515067D-02  0.752317D-03
     31 -0.349668D-02 -0.948012D-02 -0.182298D-02  0.322528D-02  0.151471D-03
     32  0.507959D-02  0.778749D-02  0.354923D-02 -0.391427D-02 -0.474037D-04
     33 -0.242015D-02  0.155845D-02  0.768896D-03  0.296336D-03  0.584987D-03
     34  0.920852D-02  0.207442D-01  0.377727D-03 -0.640749D-03  0.185855D-03
     35 -0.920666D-02 -0.225946D-01  0.148891D-03  0.626598D-03  0.328207D-03
     36 -0.126702D-02 -0.161595D-02  0.353679D-03 -0.496652D-04  0.141301D-03
     37  0.123627D-01 -0.865857D-02  0.434455D-02 -0.162576D-02  0.117695D-03
     38 -0.362175D-01  0.231831D-01 -0.152429D-02  0.285882D-02 -0.513687D-04
     39  0.946404D-02 -0.611739D-05  0.462132D-03 -0.101904D-02 -0.384183D-03
     40 -0.585831D-03 -0.125272D-02 -0.474691D-03  0.213494D-03 -0.481246D-03
     41  0.127928D-02  0.128579D-02  0.261892D-03 -0.177778D-03 -0.256109D-04
     42 -0.115554D-02  0.184445D-02 -0.489432D-03  0.555956D-03 -0.289205D-03
     43  0.964597D-03  0.213200D-02  0.241223D-03  0.644979D-03 -0.135465D-03
     44  0.143759D-01 -0.619045D-02 -0.914490D-04  0.688777D-03  0.236340D-03
     45  0.213173D-01 -0.301560D-01 -0.691782D-04  0.588915D-03  0.221417D-02
     46 -0.176388D-02  0.768910D-03  0.811978D-04  0.144662D-03  0.512601D-03
     47 -0.164021D-02  0.303860D-02  0.164476D-03 -0.338429D-04  0.196172D-03
     48  0.103307D-01 -0.241846D-02 -0.366463D-03 -0.149033D-03 -0.112573D-03
               16            17            18            19            20
     16  0.552996D+00
     17 -0.224444D-01  0.516931D+00
     18  0.180090D-01  0.555210D-01  0.516963D+00
     19 -0.145102D+00  0.126689D+00  0.816333D-02  0.154228D+00
     20  0.125885D+00 -0.208503D+00 -0.108731D-01 -0.138245D+00  0.227562D+00
     21  0.879270D-02 -0.113794D-01 -0.473360D-01 -0.104965D-01  0.940309D-02
     22 -0.483352D-01 -0.912534D-02 -0.213519D-01  0.170703D-02  0.780937D-02
     23 -0.930814D-02 -0.901752D-01 -0.998744D-01 -0.344753D-02 -0.103249D-01
     24 -0.209433D-01 -0.981253D-01 -0.264626D+00  0.311777D-03 -0.506380D-03
     25 -0.274009D+00 -0.755675D-01 -0.297755D-01 -0.181167D-01 -0.641488D-02
     26 -0.751315D-01 -0.730171D-01 -0.101198D-01  0.245151D-01  0.952142D-02
     27 -0.298850D-01 -0.995077D-02 -0.518670D-01  0.222890D-02  0.702599D-03
     28  0.733677D-02 -0.615930D-02 -0.319378D-02  0.513649D-05 -0.335940D-02
     29  0.104456D-01 -0.230491D-01  0.641265D-02 -0.552663D-03 -0.280441D-03
     30 -0.142719D-01  0.191346D-01 -0.746139D-03  0.128694D-02  0.279774D-02
     31 -0.728073D-03 -0.141077D-03  0.570889D-03  0.410056D-03  0.512156D-03
     32  0.122574D-03  0.157113D-02 -0.589503D-03 -0.299559D-03  0.890240D-04
     33 -0.170249D-03 -0.442110D-03 -0.217915D-03  0.146874D-03  0.104850D-03
     34  0.101609D-02 -0.113710D-02  0.780618D-03 -0.210157D-03 -0.387385D-03
     35 -0.491241D-04  0.689455D-03 -0.182009D-02 -0.160481D-03  0.298947D-03
     36 -0.661544D-03  0.117455D-02  0.724299D-03  0.422926D-04  0.137001D-03
     37 -0.799266D-03  0.306914D-02  0.710030D-03  0.285660D-03  0.656046D-03
     38  0.588538D-02 -0.544740D-02 -0.339398D-02 -0.663509D-03 -0.186198D-02
     39 -0.150156D-02  0.153525D-02  0.126736D-02  0.252059D-03  0.877111D-03
     40 -0.432953D-03  0.442994D-03 -0.150004D-03 -0.841654D-05  0.132245D-03
     41  0.574241D-04 -0.568771D-03 -0.917217D-04  0.444153D-04 -0.107979D-03
     42  0.496698D-03 -0.759028D-03 -0.429569D-03  0.231373D-04 -0.298114D-03
     43  0.344711D-03  0.363896D-03 -0.256055D-03  0.601614D-04 -0.363903D-03
     44  0.107063D-03 -0.102917D-02 -0.327189D-02 -0.324153D-03  0.429642D-03
     45 -0.585401D-03 -0.483583D-02 -0.401823D-02 -0.237232D-03 -0.104817D-03
[...]
   X10       -3.28913   0.00000   0.00000   0.00001  -0.00004  -3.28916
   Y10        4.43859   0.00000   0.00000   0.00020   0.00016   4.43875
   Z10        2.97749   0.00000   0.00000   0.00042   0.00027   2.97775
   X11       -5.15757   0.00000   0.00000  -0.00032  -0.00028  -5.15785
   Y11        3.88406  -0.00001   0.00000   0.00038   0.00029   3.88435
   Z11        2.24147   0.00001   0.00000   0.00110   0.00078   2.24225
   X12       -3.55033   0.00000   0.00000   0.00074   0.00051  -3.54982
   Y12        4.98809  -0.00001   0.00000   0.00024   0.00022   4.98831
   Z12        4.95044   0.00000   0.00000   0.00051   0.00033   4.95077
   X13       -2.35309  -0.00001   0.00000  -0.00014  -0.00011  -2.35321
   Y13        6.62175   0.00000   0.00000   0.00007   0.00003   6.62178
   Z13        1.74021  -0.00001   0.00000   0.00005  -0.00005   1.74016
   X14       -2.00816  -0.00001   0.00000  -0.00118  -0.00099  -2.00915
   Y14        6.18157   0.00000   0.00000   0.00012   0.00006   6.18163
   Z14        0.00736   0.00001   0.00000  -0.00015  -0.00021   0.00714
   X15       -0.90049  -0.00001   0.00000  -0.00051  -0.00010  -0.90059
   Y15        2.72151   0.00000   0.00000  -0.00003  -0.00010   2.72141
   Z15       -1.67047   0.00000   0.00000  -0.00025  -0.00015  -1.67062
   X16       -0.74041  -0.00001   0.00000   0.00198   0.00261  -0.73780
   Y16        1.68115   0.00001   0.00000  -0.00058  -0.00068   1.68047
   Z16       -3.92548   0.00000   0.00000   0.00019   0.00032  -3.92517
         Item               Value     Threshold  Converged?
 Maximum Force            0.000014     0.000450     YES
 RMS     Force            0.000005     0.000300     YES
 Maximum Displacement     0.002613     0.001800     NO 
 RMS     Displacement     0.000509     0.001200     YES
 Predicted change in Energy=-9.854094D-09
 GradGradGradGradGradGradGradGradGradGradGradGradGradGradGradGradGradGrad


 Test job not archived.
 1\1\GINC-NODE29\Freq\UB3LYP\CBSB7\C4H9O3(2)\SHAMEL\18-Jun-2013\0\\# fr
 eq nosymm b3lyp/cbsb7 iop(7/33=1)\\Title Card Required\\0,2\C,-0.79271
 ,0.455354,0.154405\H,-1.775921,0.044572,-0.093151\H,-0.041598,-0.33336
 8,0.080415\C,-0.78843,1.140684,1.516397\H,0.221213,1.519667,1.709812\C
 ,-1.148878,0.099721,2.587311\H,-0.488281,-0.770072,2.542355\H,-1.06146
 5,0.532497,3.586117\H,-2.177228,-0.255742,2.465758\C,-1.74053,2.348802
 ,1.575618\H,-2.72927,2.055354,1.186133\H,-1.878753,2.639583,2.619661\O
 ,-1.245204,3.504081,0.92088\H,-1.062672,3.271147,0.003894\O,-0.476517,
 1.440161,-0.883975\O,-0.39181,0.889626,-2.077277\\Version=AM64L-G03Rev
 D.01\HF=-383.4844084\S2=0.753112\S2-1=0.\S2A=0.750007\RMSD=6.263e-09\R
 MSF=5.411e-06\ZeroPoint=0.1333434\Thermal=0.1417645\Dipole=-0.2188972,
 -0.9811934,0.7790512\DipoleDeriv=0.355817,0.0280463,-0.0393956,0.01808
 12,0.2878128,-0.0726675,-0.067187,-0.0809085,0.5704671,-0.0827451,-0.0
 735915,-0.0189145,-0.0259928,0.0332201,0.0451766,-0.0279646,-0.0055895
 ,-0.0310498,-0.0219334,0.1003342,0.0220819,0.0518023,-0.0309786,0.0334
 053,0.043385,-0.0295333,-0.0196803,0.0339256,0.0594042,0.0117887,0.008
 0608,-0.0372864,0.0775981,0.0186137,0.0369716,0.0492899,-0.1043659,-0.
 0457314,-0.0144528,-0.0608129,-0.0047315,-0.0219205,0.000567,-0.008652
 6,0.0084139,0.1179729,0.030378,-0.0086601,0.012778,0.0547051,-0.027578
 9,0.0241322,0.0144626,0.024273,-0.0126095,0.1107171,0.0080063,0.090371
 1,-0.0951339,0.0275907,0.0282735,-0.00649,0.0613081,0.0711472,-0.01686
 01,0.0025108,-0.0165997,0.0218033,-0.0792239,0.0018697,-0.0383792,-0.1
 282714,-0.122495,-0.084429,-0.0033431,-0.0420698,0.0404995,0.0170579,-
 0.0573055,-0.0065683,0.0442973,0.4499358,0.0765121,-0.0496218,0.122423
 8,0.692283,-0.1812576,-0.0552615,-0.207323,0.3801286,-0.1825852,-0.059
 7223,-0.042074,-0.1042057,-0.0597303,0.0122662,-0.0902891,-0.0077939,0
 .0014898,0.0445247,0.0053155,0.0109744,0.0101452,0.0030244,-0.0474504,
 0.0497322,-0.039883,-0.1527304,-0.5413914,-0.0600915,0.0687183,-0.0234
 201,-0.8483233,0.2335446,0.0597756,0.3040135,-0.4949727,0.3041927,-0.0
 663297,-0.014237,-0.0482649,0.3405733,-0.0107205,0.0001809,-0.0353465,
 0.2568916,-0.1609987,0.0235408,0.0711692,0.0111728,-0.2849283,-0.11889
 28,0.0490187,-0.1017022,-0.5566865,-0.1483916,-0.0274927,-0.0045507,-0
 .0034695,-0.112809,0.1130728,0.0224591,0.2127222,-0.0131682\Polar=48.8
 34863,-1.2012187,56.6858402,-4.4210622,-0.1689128,70.7235952\PG=C01 [X
 (C4H9O3)]\NImag=0\\0.59342145,-0.03713539,0.51452054,0.03179411,0.0754
 3572,0.42069253,-0.26304498,-0.07948364,-0.05556998,0.27943936,-0.0777
 7142,-0.07832759,-0.02288939,0.09293582,0.09024172,-0.06112190,-0.0266
 9172,-0.06177899,0.05862702,0.01971959,0.07171215,-0.18573506,0.134504
 33,0.01251151,-0.01831389,0.02048313,0.00248111,0.19061991,0.13043741,
 -0.17531132,-0.01421226,-0.00791947,0.01032312,-0.00025439,-0.14132045
 ,0.19821752,0.01635472,-0.02081537,-0.04818860,-0.00622249,0.00456142,
 0.00234140,-0.01627600,0.01036542,0.05688931,-0.08404209,-0.00300404,-
 0.00936128,0.00030728,-0.01260564,-0.02730174,0.00156009,0.00946845,0.
 02123804,0.57154973,-0.00191413,-0.11194761,-0.05438906,0.00034436,-0.
 00486676,-0.01120477,-0.00255859,-0.00933956,-0.02052149,0.04750761,0.
 48197966,-0.00711494,-0.04688322,-0.14737107,-0.00053726,-0.00427270,-
 0.00720067,-0.00108604,-0.00168689,-0.00023886,0.01773786,0.01397355,0
 .46871799,0.00009787,0.00020404,-0.00060110,0.00119424,-0.00002203,0.0
 0089043,0.00086050,-0.00020250,-0.00052069,-0.26273108,-0.07839410,-0.
 04290881,0.28627819,-0.01476335,-0.00697498,-0.00361998,0.00035293,-0.
 00048273,-0.00266453,-0.00014048,0.00009853,0.00036263,-0.07880523,-0.
 07627323,-0.01820264,0.08553471,0.08713087,-0.03056590,-0.01296689,-0.
 00911460,0.00046536,-0.00224268,-0.00518040,0.00051894,0.00039219,0.00
 121682,-0.04107994,-0.01779588,-0.05698301,0.04528461,0.01890890,0.065
 55977,-0.00078270,0.00047411,0.00155337,0.00044226,0.00022920,-0.00095
 538,-0.00006105,-0.00026135,0.00021616,-0.08654972,-0.01535696,0.01683
 471,-0.00568781,-0.02063400,0.02360019,0.55299557,0.00209818,0.0104910
 0,-0.00062284,0.00011235,0.00045675,-0.00082161,0.00019448,0.00042686,
 -0.00113481,-0.01635358,-0.12042318,0.04425999,-0.00250047,-0.00888186
 ,0.00936100,-0.02244443,0.51693053,0.00790082,0.02240018,-0.02989442,-
 0.00002781,0.00058859,0.00175648,0.00013383,0.00074733,0.00137860,0.01
 825777,0.04602184,-0.12362407,-0.00022901,-0.00235056,0.00292752,0.018
 00897,0.05552099,0.51696251,0.00023125,0.00008834,0.00024149,-0.000144
 19,0.00018008,0.00003262,0.00023845,-0.00000313,-0.00018481,0.00583474
 ,-0.00805972,-0.00111536,0.00057742,0.00017150,-0.00062533,-0.14510225
 ,0.12668854,0.00816333,0.15422794,0.00067565,-0.00012704,-0.00113545,-
 0.00009043,0.00003270,0.00008405,-0.00026348,0.00064951,0.00069595,0.0
 1379160,-0.01775256,-0.00137363,-0.00029801,0.00034220,-0.00055182,0.1
 2588548,-0.20850302,-0.01087312,-0.13824534,0.22756153,-0.00117923,0.0
 0161179,0.00039745,-0.00002154,-0.00008262,-0.00004558,0.00044218,-0.0
 0023727,-0.00040372,-0.01630763,0.01848680,0.00014397,0.00017758,-0.00
 079516,0.00076341,0.00879270,-0.01137942,-0.04733596,-0.01049653,0.009
 40309,0.05002641,-0.00047028,-0.00149369,0.00045860,0.00026194,0.00023
 654,0.00026813,0.00006354,-0.00030905,-0.00021492,-0.00066686,0.003522
 11,0.00871529,0.00023384,0.00054244,0.00009333,-0.04833516,-0.00912534
 ,-0.02135187,0.00170703,0.00780937,0.01914086,0.04851534,-0.00048492,-
 0.00393807,0.00123887,0.00018894,-0.00007874,0.00006903,-0.00029687,0.
 00006177,0.00014489,0.00250026,0.00864692,0.02246799,0.00021196,0.0010
 6319,-0.00080593,-0.00930814,-0.09017517,-0.09987443,-0.00344753,-0.01
 032485,-0.02300107,0.01109878,0.09764585,0.00125022,0.00477209,-0.0005
 4391,-0.00009288,0.00011156,0.00023837,0.00009056,-0.00002928,0.000185
 15,-0.00192484,-0.00863155,-0.02139804,0.00032197,-0.00018977,0.000982
 33,-0.02094334,-0.09812529,-0.26462572,0.00031178,-0.00050638,-0.00045
 165,0.02146588,0.10528605,0.28869966,-0.00018919,-0.00023095,-0.001034
 98,0.00031540,0.00019101,0.00080474,-0.00000760,-0.00008527,-0.0000722
 2,-0.00691084,-0.00339340,0.00017073,0.00105353,-0.00060252,0.00135668
 ,-0.27400894,-0.07556746,-0.02977546,-0.01811667,-0.00641488,-0.002872
 34,-0.00172288,-0.00006153,-0.00061667,0.29826483,0.00014937,0.0001268
 0,-0.00132541,0.00025895,0.00049808,0.00044671,0.00011641,0.00003893,0
 .00007590,-0.02213854,-0.00829579,-0.00299341,-0.00047877,-0.00238036,
 0.00384446,-0.07513150,-0.07301713,-0.01011979,0.02451507,0.00952142,0
 .00366270,-0.01275470,-0.00474301,-0.00112233,0.08556134,0.07762359,0.
 00192860,0.00071311,0.00152864,-0.00048320,-0.00017344,-0.00037636,-0.
 00005631,0.00002462,-0.00007317,0.02301713,0.00662934,0.00257221,0.000
 91973,0.00317696,-0.00307866,-0.02988500,-0.00995077,-0.05186701,0.002
 22890,0.00070260,-0.00080313,-0.02856527,-0.00829489,-0.00263980,0.031
 68855,0.00801692,0.05402269,-0.00160547,0.00375039,0.00654741,0.001115
 60,-0.00231113,-0.00153738,0.00066801,-0.00093158,-0.00117942,-0.12608
 829,0.04161345,0.00505008,-0.02462373,0.02638209,0.00060114,0.00733677
 ,-0.00615930,-0.00319378,0.00000514,-0.00335940,0.00298855,-0.00010815
 ,-0.00022262,0.00055391,0.00019683,-0.00185953,0.00069444,0.52093089,0
 .01100735,-0.01428082,-0.01021255,0.00052148,0.00008827,0.00142150,-0.
 00033937,0.00071620,-0.00038783,0.04533025,-0.11539836,-0.01179894,-0.
 00656356,0.00631006,0.00122031,0.01044565,-0.02304906,0.00641265,-0.00
 055266,-0.00028044,0.00074280,-0.00012155,0.00120265,-0.00172813,0.001
 11397,0.00078240,-0.00050693,0.02923637,0.44822897,0.02439081,-0.03129
 188,-0.00055744,0.00033947,0.00057379,0.00109865,-0.00017408,-0.002565
 02,-0.00676796,0.00352076,-0.00883811,-0.08382479,-0.00399432,0.005150
 67,0.00075232,-0.01427190,0.01913465,-0.00074614,0.00128694,0.00279774
 ,-0.00348460,-0.00104944,0.00136672,-0.00038550,-0.00014582,-0.0006427
 1,0.00077503,0.00943922,0.04839690,0.60907952,0.00038352,-0.00185374,-
 0.00125313,0.00038841,0.00080417,0.00104862,0.00056798,0.00015945,-0.0
 0009154,-0.02121557,-0.00349668,-0.00948012,-0.00182298,0.00322528,0.0
 0015147,-0.00072807,-0.00014108,0.00057089,0.00041006,0.00051216,-0.00
 013481,0.00008779,-0.00000666,0.00008802,0.00064317,0.00062821,-0.0003
 9973,-0.23176368,-0.04413425,-0.08094304,0.25827369,0.00053628,0.00134
 547,0.00118245,-0.00057294,-0.00000259,-0.00017842,-0.00025497,0.00008
 261,0.00025372,0.02416668,0.00507959,0.00778749,0.00354923,-0.00391427
 ,-0.00004740,0.00012257,0.00157113,-0.00058950,-0.00029956,0.00008902,
 -0.00024558,0.00004704,-0.00009247,0.00003966,-0.00052794,-0.00024474,
 0.00006014,-0.04482507,-0.05934163,-0.02173427,0.05773526,0.07603447,0
 .00121057,0.00058478,0.00040345,-0.00010607,0.00018776,0.00030474,-0.0
 0007363,0.00011457,0.00012580,0.00233721,-0.00242015,0.00155845,0.0007
 6890,0.00029634,0.00058499,-0.00017025,-0.00044211,-0.00021792,0.00014
 687,0.00010485,0.00014926,-0.00006140,-0.00005680,0.00022865,0.0000694
 0,0.00051445,-0.00003860,-0.08261988,-0.02328426,-0.09203317,0.0856324
 6,0.02044381,0.08952520,-0.00276230,0.00288176,-0.00122318,0.00019661,
 0.00028386,0.00017606,0.00030985,0.00061493,0.00111388,-0.00207660,0.0
 0920852,0.02074423,0.00037773,-0.00064075,0.00018586,0.00101609,-0.001
 13710,0.00078062,-0.00021016,-0.00038738,-0.00000572,0.00019154,0.0001
 7611,-0.00056866,-0.00000958,0.00005017,-0.00028354,-0.05487964,0.0072
 0141,0.02025866,0.00370099,-0.00838373,-0.02748984,0.05583973,0.004387
 40,-0.00361105,0.00098537,0.00001507,0.00018871,0.00034046,0.00014529,
 -0.00045443,-0.00162842,0.00172017,-0.00920666,-0.02259464,0.00014889,
 0.00062660,0.00032821,-0.00004912,0.00068946,-0.00182009,-0.00016048,0
 .00029895,0.00027751,0.00032101,-0.00030032,0.00095407,-0.00015750,-0.
 00016941,-0.00002960,0.00946643,-0.06965856,-0.08048707,0.00124033,-0.
 00037591,-0.00670099,-0.00647529,0.08416057,0.00045384,0.00052179,0.00
 094338,-0.00000646,0.00016996,0.00013118,0.00006525,-0.00006365,-0.000
 01429,-0.00046285,-0.00126702,-0.00161595,0.00035368,-0.00004967,0.000
 14130,-0.00066154,0.00117455,0.00072430,0.00004229,0.00013700,0.000369
 34,-0.00005565,-0.00024048,0.00074803,0.00003170,-0.00019417,-0.000019
 78,0.02539582,-0.07217816,-0.28123585,-0.00006025,-0.00503702,-0.01080
 302,-0.03279655,0.06871449,0.31084515,-0.00029665,-0.00138284,0.000233
 19,0.00007376,0.00064300,0.00040813,0.00008570,-0.00011026,-0.00032234
 ,0.00957436,0.01236265,-0.00865857,0.00434455,-0.00162576,0.00011770,-
 0.00079927,0.00306914,0.00071003,0.00028566,0.00065605,-0.00062690,-0.
 00010935,-0.00012657,-0.00012344,0.00026267,0.00104284,-0.00043201,-0.
 08592976,-0.05614850,0.02551943,-0.00914106,-0.03218248,0.01924691,-0.
 00172504,-0.00825577,0.00717544,0.10838744,-0.00128495,0.00141863,0.00
 311768,0.00003755,0.00012134,-0.00012221,0.00045050,-0.00008641,-0.000
 38797,-0.01487738,-0.03621746,0.02318311,-0.00152429,0.00285882,-0.000
 05137,0.00588538,-0.00544740,-0.00339398,-0.00066351,-0.00186198,0.002
 15612,0.00011431,0.00024745,0.00025062,-0.00010022,0.00012414,-0.00016
 620,-0.04166889,-0.17665750,0.02549352,-0.01426896,-0.02064334,0.01100
 720,-0.00072956,0.00207298,0.00526483,0.06134669,0.31187523,-0.0007559
 4,0.00265288,-0.00352866,-0.00006443,-0.00033303,0.00035457,-0.0000173
 4,0.00028322,0.00088143,0.00004015,0.00946404,-0.00000612,0.00046213,-
 0.00101904,-0.00038418,-0.00150156,0.00153525,0.00126736,0.00025206,0.
 00087711,-0.00013358,0.00013420,-0.00043232,0.00079902,0.00018667,-0.0
 0016577,-0.00009516,0.03488297,0.06442273,-0.12260627,0.00500565,-0.00
 001411,0.00866873,0.01759392,0.03773429,-0.02097738,-0.13932967,0.0356
 1519,0.59520932,0.00156335,0.00016326,-0.00059024,-0.00026209,-0.00042
 673,0.00003993,-0.00019234,-0.00016457,0.00003519,0.00186503,-0.000585
 83,-0.00125272,-0.00047469,0.00021349,-0.00048125,-0.00043295,0.000442
 99,-0.00015000,-0.00000842,0.00013225,-0.00005624,-0.00007153,0.000033
 36,0.00010730,-0.00010399,-0.00023021,0.00012759,-0.00515596,0.0023631
 7,0.01674528,0.00006937,0.00091213,0.00112509,-0.00005474,-0.00211993,
 0.00053476,-0.02604353,0.00561014,0.08122886,0.03137023,0.00019423,-0.
 00301234,0.00182517,0.00012113,0.00028598,-0.00016956,-0.00002093,0.00
 026839,-0.00017091,0.00032235,0.00127928,0.00128579,0.00026189,-0.0001
 7778,-0.00002561,0.00005742,-0.00056877,-0.00009172,0.00004442,-0.0001
 0798,-0.00005289,0.00002699,0.00010285,-0.00040856,0.00004140,0.000155
 30,0.00000687,-0.00909058,0.00369548,0.04087275,-0.00066983,0.00007583
 ,-0.00026497,-0.00252896,-0.00467213,0.00330085,0.01867935,-0.07591805
 ,-0.14571622,-0.00693446,0.07966742,-0.00069498,0.00072139,0.00311993,
 0.00003250,0.00026931,-0.00037330,0.00013180,0.00010084,-0.00042005,-0
 .00099682,-0.00115554,0.00184445,-0.00048943,0.00055596,-0.00028921,0.
 00049670,-0.00075903,-0.00042957,0.00002314,-0.00029811,0.00032557,0.0
 0002585,-0.00000450,-0.00000566,-0.00008808,-0.00003806,0.00006441,0.0
 0369921,-0.00394627,-0.02188222,-0.00077920,-0.00181384,0.00152665,0.0
 0156229,0.00365521,0.00068255,0.09434365,-0.09639981,-0.45878641,-0.09
 791531,0.10042963,0.47946973,-0.05314209,-0.02358669,0.00500315,-0.003
 28105,-0.02379725,0.02678703,0.00874052,0.01049410,-0.01377455,-0.0011
 1254,0.00096460,0.00213200,0.00024122,0.00064498,-0.00013547,0.0003447
 1,0.00036390,-0.00025606,0.00006016,-0.00036390,0.00013892,0.00046216,
 -0.00007294,-0.00007913,0.00032598,0.00023764,-0.00041052,-0.00000509,
 0.00120574,-0.00079724,0.00014920,-0.00006951,0.00002488,0.00007898,-0
 .00023092,0.00002717,0.00079405,0.00147847,0.00210732,-0.00195565,-0.0
 0076181,0.00031063,0.05320490,-0.01815123,-0.15453737,0.01077001,-0.00
 783130,-0.01979750,0.01827539,-0.00959113,-0.02850246,0.02724658,0.004
 29327,0.01437592,-0.00619045,-0.00009145,0.00068878,0.00023634,0.00010
 706,-0.00102917,-0.00327189,-0.00032415,0.00042964,-0.00042540,0.00015
 546,0.00090992,-0.00088934,0.00027947,-0.00002556,-0.00015137,0.000571
 25,-0.00095603,0.00034174,0.00013383,0.00016781,-0.00001323,-0.0001382
 4,0.00012364,-0.00017562,0.00088899,-0.00112861,-0.00345206,0.00166186
 ,-0.00266194,-0.00084233,0.02963555,0.31887040,0.01013338,0.04340585,-
 0.05967509,0.00462695,0.00692006,-0.00810414,0.00268854,0.01069747,-0.
 01265665,0.00812224,0.02131732,-0.03015604,-0.00006918,0.00058892,0.00
 221417,-0.00058540,-0.00483583,-0.00401823,-0.00023723,-0.00010482,0.0
 0042456,0.00060462,0.00129369,-0.00093232,0.00018082,-0.00001544,0.000
 00342,-0.00112655,0.00004895,0.00251342,0.00040650,0.00003386,0.000028
 38,-0.00014353,0.00047699,-0.00002186,0.00181302,-0.00461447,-0.001736
 41,0.00052102,0.00024214,-0.00343840,-0.04976367,0.07727044,0.43936903
 ,-0.00362662,0.00610475,0.01129106,0.00131134,0.00094739,-0.00064742,0
 .00059540,0.00013329,-0.00009902,0.00070236,-0.00176388,0.00076891,0.0
 0008120,0.00014466,0.00051260,0.00035252,0.00045917,0.00045774,0.00000
 384,-0.00003972,0.00002015,-0.00003896,-0.00018162,0.00015934,0.000007
 27,0.00003325,-0.00008936,-0.00009346,-0.00056548,-0.00012473,-0.00000
 282,0.00004700,-0.00004121,0.00000654,0.00000443,-0.00003662,0.0002364
 7,0.00019472,-0.00022500,-0.00011209,0.00025739,0.00033808,-0.00490546
 ,-0.00159925,0.02282848,0.00548247,0.00201952,0.02416576,0.01385168,0.
 00100920,0.00131922,0.00175045,-0.00110786,0.00281075,0.00134029,-0.00
 131624,-0.00164021,0.00303860,0.00016448,-0.00003384,0.00019617,-0.000
 02137,0.00052905,0.00069351,0.00006814,0.00003289,-0.00012140,-0.00006
 974,-0.00022797,0.00021658,-0.00004552,0.00000534,-0.00005737,-0.00059
 187,-0.00140164,0.00143057,0.00013251,0.00016902,-0.00007125,0.0000042
 5,0.00028759,-0.00007768,0.00114348,-0.00075784,-0.00145216,-0.0010709
 1,0.00158844,-0.00047486,0.00385804,-0.12692748,-0.15272515,-0.0041761
 0,0.10008094,0.00601582,-0.01417049,-0.06643258,-0.00095917,-0.0031081
 8,0.00512189,-0.00138032,-0.00367692,0.00574479,0.00316396,0.01033068,
 -0.00241846,-0.00036646,-0.00014903,-0.00011257,-0.00052844,-0.0029147
 3,-0.00225774,-0.00007016,0.00004095,0.00005825,0.00039178,0.00084318,
 -0.00089860,0.00011628,0.00005594,0.00002528,-0.00019575,0.00137721,-0
 .00069500,0.00023823,-0.00014099,-0.00001160,0.00009553,-0.00020579,0.
 00010291,-0.00007456,-0.00095228,0.00107375,-0.00001926,-0.00106276,-0
 .00140846,0.02868553,-0.11872881,-0.32381385,-0.03511300,0.13246202,0.
 38592202\\-0.00000220,-0.00000245,0.00000242,-0.00000228,0.00000200,-0
 .00000033,-0.00000425,-0.00000552,0.00000473,0.00000071,-0.00000054,-0
 .00000012,0.00000012,-0.00000505,0.00000284,-0.00000912,0.00000090,-0.
 00000073,-0.00001252,-0.00000171,0.00000356,-0.00000937,0.00000221,0.0
 0000055,-0.00000966,0.00000610,-0.00000133,0.00000481,0.00000357,-0.00
 000477,0.00000306,0.00000660,-0.00000532,0.00000286,0.00000539,-0.0000
 0389,0.00000947,0.00000202,0.00000687,0.00001351,-0.00000322,-0.000009
 01,0.00000753,-0.00000341,0.00000384,0.00000732,-0.00000689,0.00000070
 \\\@


 I (ERNEST RUTHERFORD) CAME INTO THE ROOM, WHICH WAS HALF DARK, AND PRESENTLY
 SPOTTED LORD KELVIN IN THE AUDIENCE AND REALIZED I WAS IN TROUBLE AT
 THE LAST PART OF MY SPEECH DEALING THE AGE OF THE EARTH, WHERE MY VIEWS
 CONFLICTED WITH HIS.  TO MY RELIEF KELVIN FELL FAST ASLEEP, BUT AS I CAME
 TO THE IMPORTANT POINT, I SAW THE OLD BIRD SIT UP AND COCK A BALEFUL GLANCE
 AT ME! THEN A SUDDEN INSPIRATION CAME AND I SAID LORD KELVIN HAD LIMITED
 THE AGE OF THE EARTH PROVIDED NO NEW SOURCE WAS DISCOVERED. THAT
 PROPHETIC UTTERANCE REFERS TO WHAT WE ARE NOW CONSIDERING TONIGHT, RADIUM!
 BEHOLD!  THE OLD BOY BEAMED UPON ME.
 Job cpu time:  0 days  1 hours  7 minutes 32.8 seconds.
 File lengths (MBytes):  RWF=    125 Int=      0 D2E=      0 Chk=      8 Scr=      1
 Normal termination of Gaussian 03 at Tue Jun 18 10:48:10 2013.
