 Entering Gaussian System, Link 0=g03
 Input=p11freq.gjf
 Output=p11freq.log
 Initial command:
 /opt/g03/l1.exe /scratch/nyee/Gau-26851.inp -scrdir=/scratch/nyee/
 Entering Link 1 = /opt/g03/l1.exe PID=     26853.
  
 Copyright (c) 1988,1990,1992,1993,1995,1998,2003,2004, Gaussian, Inc.
                  All Rights Reserved.
  
 This is the Gaussian(R) 03 program.  It is based on the
 the Gaussian(R) 98 system (copyright 1998, Gaussian, Inc.),
 the Gaussian(R) 94 system (copyright 1995, Gaussian, Inc.),
 the Gaussian 92(TM) system (copyright 1992, Gaussian, Inc.),
 the Gaussian 90(TM) system (copyright 1990, Gaussian, Inc.),
 the Gaussian 88(TM) system (copyright 1988, Gaussian, Inc.),
 the Gaussian 86(TM) system (copyright 1986, Carnegie Mellon
 University), and the Gaussian 82(TM) system (copyright 1983,
 Carnegie Mellon University). Gaussian is a federally registered
 trademark of Gaussian, Inc.
  
 This software contains proprietary and confidential information,
 including trade secrets, belonging to Gaussian, Inc.
  
 This software is provided under written license and may be
 used, copied, transmitted, or stored only in accord with that
 written license.
  
 The following legend is applicable only to US Government
 contracts under FAR:
  
                    RESTRICTED RIGHTS LEGEND
  
 Use, reproduction and disclosure by the US Government is
 subject to restrictions as set forth in subparagraphs (a)
 and (c) of the Commercial Computer Software - Restricted
 Rights clause in FAR 52.227-19.
  
 Gaussian, Inc.
 340 Quinnipiac St., Bldg. 40, Wallingford CT 06492
  
  
 ---------------------------------------------------------------
 Warning -- This program may not be used in any manner that
 competes with the business of Gaussian, Inc. or will provide
 assistance to any competitor of Gaussian, Inc.  The licensee
 of this program is prohibited from giving any competitor of
 Gaussian, Inc. access to this program.  By using this program,
 the user acknowledges that Gaussian, Inc. is engaged in the
 business of creating and licensing software in the field of
 computational chemistry and represents and warrants to the
 licensee that it is not a competitor of Gaussian, Inc. and that
 it will not use this program in any manner prohibited above.
 ---------------------------------------------------------------
  

 Cite this work as:
 Gaussian 03, Revision D.01,
 M. J. Frisch, G. W. Trucks, H. B. Schlegel, G. E. Scuseria, 
 M. A. Robb, J. R. Cheeseman, J. A. Montgomery, Jr., T. Vreven, 
 K. N. Kudin, J. C. Burant, J. M. Millam, S. S. Iyengar, J. Tomasi, 
 V. Barone, B. Mennucci, M. Cossi, G. Scalmani, N. Rega, 
 G. A. Petersson, H. Nakatsuji, M. Hada, M. Ehara, K. Toyota, 
 R. Fukuda, J. Hasegawa, M. Ishida, T. Nakajima, Y. Honda, O. Kitao, 
 H. Nakai, M. Klene, X. Li, J. E. Knox, H. P. Hratchian, J. B. Cross, 
 V. Bakken, C. Adamo, J. Jaramillo, R. Gomperts, R. E. Stratmann, 
 O. Yazyev, A. J. Austin, R. Cammi, C. Pomelli, J. W. Ochterski, 
 P. Y. Ayala, K. Morokuma, G. A. Voth, P. Salvador, J. J. Dannenberg, 
 V. G. Zakrzewski, S. Dapprich, A. D. Daniels, M. C. Strain, 
 O. Farkas, D. K. Malick, A. D. Rabuck, K. Raghavachari, 
 J. B. Foresman, J. V. Ortiz, Q. Cui, A. G. Baboul, S. Clifford, 
 J. Cioslowski, B. B. Stefanov, G. Liu, A. Liashenko, P. Piskorz, 
 I. Komaromi, R. L. Martin, D. J. Fox, T. Keith, M. A. Al-Laham, 
 C. Y. Peng, A. Nanayakkara, M. Challacombe, P. M. W. Gill, 
 B. Johnson, W. Chen, M. W. Wong, C. Gonzalez, and J. A. Pople, 
 Gaussian, Inc., Wallingford CT, 2004.
 
 ******************************************
 Gaussian 03:  AM64L-G03RevD.01 13-Oct-2005
                24-Jul-2014 
 ******************************************
 %chk=p11_freq.chk
 %mem=1000mb
 %nproc=8
 Will use up to    8 processors via shared memory.
 -------------------------------------
 # freq nosymm b3lyp/cbsb7 iop(7/33=1)
 -------------------------------------
 1/10=4,30=1,38=1/1,3;
 2/15=1,17=6,18=5,40=1/2;
 3/5=4,6=6,7=700,11=2,16=1,25=1,30=1,74=-5/1,2,3;
 4//1;
 5/5=2,38=5/2;
 8/6=4,10=90,11=11/1;
 11/6=1,8=1,9=11,15=111,16=1,31=1/1,2,10;
 10/6=1,31=1/2;
 6/7=2,8=2,9=2,10=2,18=1,28=1/1;
 7/8=1,10=1,25=1,30=1,33=1/1,2,3,16;
 1/10=4,30=1/3;
 99//99;
 -------------------
 Title Card Required
 -------------------
 Symbolic Z-matrix:
 Charge =  0 Multiplicity = 2
 O                     0.15486   0.39927   0.2206 
 C                    -0.80739   1.33628   0.14009 
 C                    -2.19246   0.65759  -0.10575 
 H                    -2.43515   0.05522   0.7717 
 H                    -2.96904   1.41233  -0.24637 
 H                    -2.1486   -0.00058  -0.9747 
 C                    -0.51532   2.06258  -1.2408 
 H                    -0.37269   1.34853  -2.07322 
 C                    -0.83369   2.3293    1.30361 
 H                    -1.55996   3.12836   1.14306 
 H                    -1.08777   1.79706   2.22304 
 H                     0.1521    2.77984   1.42735 
 O                    -0.45569   3.24723  -1.35911 
 

 GradGradGradGradGradGradGradGradGradGradGradGradGradGradGradGradGradGrad
 Berny optimization.
 Initialization pass.
 Trust Radius=3.00D-01 FncErr=1.00D-07 GrdErr=1.00D-07
 Number of steps in this run=   2 maximum allowed number of steps=   2.
 GradGradGradGradGradGradGradGradGradGradGradGradGradGradGradGradGradGrad

                          Input orientation:                          
 ---------------------------------------------------------------------
 Center     Atomic     Atomic              Coordinates (Angstroms)
 Number     Number      Type              X           Y           Z
 ---------------------------------------------------------------------
    1          8             0        0.154864    0.399270    0.220604
    2          6             0       -0.807392    1.336284    0.140090
    3          6             0       -2.192462    0.657587   -0.105748
    4          1             0       -2.435152    0.055218    0.771697
    5          1             0       -2.969035    1.412332   -0.246373
    6          1             0       -2.148598   -0.000576   -0.974698
    7          6             0       -0.515321    2.062584   -1.240796
    8          1             0       -0.372685    1.348531   -2.073222
    9          6             0       -0.833685    2.329295    1.303610
   10          1             0       -1.559957    3.128356    1.143058
   11          1             0       -1.087769    1.797063    2.223042
   12          1             0        0.152097    2.779840    1.427351
   13          8             0       -0.455693    3.247227   -1.359113
 ---------------------------------------------------------------------
                    Distance matrix (angstroms):
                    1          2          3          4          5
     1  O    0.000000
     2  C    1.345516   0.000000
     3  C    2.383941   1.561885   0.000000
     4  H    2.670254   2.165562   1.091630   0.000000
     5  H    3.317093   2.197234   1.092008   1.778554   0.000000
     6  H    2.625750   2.197449   1.090952   1.770627   1.788822
     7  C    2.313320   1.587345   2.464782   3.430073   2.726246
     8  H    2.537921   2.255631   2.767661   3.744328   3.175292
     9  C    2.423866   1.529883   2.574330   2.831793   2.793383
    10  H    3.352528   2.187195   2.839767   3.216839   2.619305
    11  H    2.740022   2.151655   2.818158   2.637398   3.128129
    12  H    2.668962   2.159054   3.514443   3.814093   3.796432
    13  O    3.313479   2.454181   3.360584   4.318279   3.304833
                    6          7          8          9         10
     6  H    0.000000
     7  C    2.644812   0.000000
     8  H    2.486104   1.105961   0.000000
     9  C    3.513970   2.578079   3.546465   0.000000
    10  H    3.823821   2.812453   3.862881   1.091671   0.000000
    11  H    3.818692   3.520848   4.378403   1.092330   1.778108
    12  H    4.335176   2.842343   3.818122   1.090903   1.770145
    13  O    3.682652   1.192029   2.030243   2.841755   2.737588
                   11         12         13
    11  H    0.000000
    12  H    1.770944   0.000000
    13  O    3.915907   2.890024   0.000000
 Symmetry turned off by external request.
 Stoichiometry    C4H7O2(2)
 Framework group  C1[X(C4H7O2)]
 Deg. of freedom    33
 Full point group                 C1
 Rotational constants (GHZ):      4.7058213      2.9842010      2.8066099
 Standard basis: CBSB7 (5D, 7F)
 Integral buffers will be    131072 words long.
 Raffenetti 2 integral format.
 Two-electron integral symmetry is turned off.
   150 basis functions,   248 primitive gaussians,   156 cartesian basis functions
    24 alpha electrons       23 beta electrons
       nuclear repulsion energy       238.0554051019 Hartrees.
 NAtoms=   13 NActive=   13 NUniq=   13 SFac= 7.50D-01 NAtFMM=   80 NAOKFM=F Big=F
 One-electron integrals computed using PRISM.
 NBasis=   150 RedAO= T  NBF=   150
 NBsUse=   150 1.00D-06 NBFU=   150
 Harris functional with IExCor=  402 diagonalized for initial guess.
 ExpMin= 1.03D-01 ExpMax= 8.59D+03 ExpMxC= 1.30D+03 IAcc=1 IRadAn=         1 AccDes= 1.00D-06
 HarFok:  IExCor= 402 AccDes= 1.00D-06 IRadAn=         1 IDoV=1
 ScaDFX=  1.000000  1.000000  1.000000  1.000000
 <S**2> of initial guess= 0.7500
 Requested convergence on RMS density matrix=1.00D-08 within 128 cycles.
 Requested convergence on MAX density matrix=1.00D-06.
 Requested convergence on             energy=1.00D-06.
 No special actions if energy rises.
 Integral accuracy reduced to 1.0D-05 until final iterations.
 EnCoef did     2 forward-backward iterations
 Initial convergence to 1.0D-05 achieved.  Increase integral accuracy.
 SCF Done:  E(UB+HF-LYP) =  -307.094802097     A.U. after   24 cycles
             Convg  =    0.7900D-08             -V/T =  2.0035
             S**2   =   0.7562
 Annihilation of the first spin contaminant:
 S**2 before annihilation     0.7562,   after     0.7500
 Range of M.O.s used for correlation:     1   150
 NBasis=   150 NAE=    24 NBE=    23 NFC=     0 NFV=     0
 NROrb=    150 NOA=    24 NOB=    23 NVA=   126 NVB=   127
 Symmetrizing basis deriv contribution to polar:
 IMax=3 JMax=2 DiffMx= 0.00D+00
 G2DrvN: will do   14 centers at a time, making    1 passes doing MaxLOS=2.
 FoFDir/FoFCou used for L=0 through L=2.
 DoAtom=TTTTTTTTTTTTT
          Differentiating once with respect to electric field.
                with respect to dipole field.
          Differentiating once with respect to nuclear coordinates.
 Symmetry not used in FoFDir.
 MinBra= 0 MaxBra= 2 Meth= 1.
 IRaf=       0 NMat=  42 IRICut=      42 DoRegI=T DoRafI=T ISym2E= 0 JSym2E=0.
          There are  42 degrees of freedom in the 1st order CPHF.
    39 vectors were produced by pass  0.
 AX will form  39 AO Fock derivatives at one time.
    39 vectors were produced by pass  1.
    39 vectors were produced by pass  2.
    39 vectors were produced by pass  3.
    39 vectors were produced by pass  4.
    39 vectors were produced by pass  5.
    23 vectors were produced by pass  6.
     4 vectors were produced by pass  7.
     3 vectors were produced by pass  8.
 Inv2:  IOpt= 1 Iter= 1 AM= 2.56D-15 Conv= 1.00D-12.
 Inverted reduced A of dimension  264 with in-core refinement.
 Isotropic polarizability for W=    0.000000       55.55 Bohr**3.
 End of Minotr Frequency-dependent properties file   721 does not exist.

 **********************************************************************

            Population analysis using the SCF density.

 **********************************************************************

 Alpha  occ. eigenvalues --  -19.16219 -19.15025 -10.29252 -10.25558 -10.19546
 Alpha  occ. eigenvalues --  -10.16803  -1.09880  -1.03959  -0.78849  -0.71489
 Alpha  occ. eigenvalues --   -0.66616  -0.56410  -0.50957  -0.49121  -0.47417
 Alpha  occ. eigenvalues --   -0.45508  -0.42842  -0.40947  -0.40325  -0.39640
 Alpha  occ. eigenvalues --   -0.38326  -0.35380  -0.28952  -0.27100
 Alpha virt. eigenvalues --   -0.05285   0.03984   0.06542   0.08393   0.09270
 Alpha virt. eigenvalues --    0.09971   0.12954   0.13999   0.15612   0.18758
 Alpha virt. eigenvalues --    0.19826   0.22723   0.24839   0.28783   0.30177
 Alpha virt. eigenvalues --    0.34155   0.37747   0.39981   0.41272   0.43935
 Alpha virt. eigenvalues --    0.48935   0.50005   0.51481   0.54344   0.55702
 Alpha virt. eigenvalues --    0.57444   0.58148   0.59241   0.60645   0.61490
 Alpha virt. eigenvalues --    0.62125   0.64840   0.65264   0.71447   0.73873
 Alpha virt. eigenvalues --    0.79049   0.84277   0.89218   0.90058   0.92812
 Alpha virt. eigenvalues --    0.96860   0.99594   1.04326   1.09767   1.16572
 Alpha virt. eigenvalues --    1.22858   1.27510   1.30421   1.36721   1.38642
 Alpha virt. eigenvalues --    1.42678   1.44948   1.45914   1.47170   1.47505
 Alpha virt. eigenvalues --    1.50283   1.52750   1.53760   1.57666   1.60270
 Alpha virt. eigenvalues --    1.61907   1.62658   1.66557   1.71947   1.72434
 Alpha virt. eigenvalues --    1.78842   1.81977   1.87222   1.89855   1.90154
 Alpha virt. eigenvalues --    1.95035   2.04926   2.08016   2.16405   2.21833
 Alpha virt. eigenvalues --    2.27569   2.30652   2.33026   2.36147   2.41101
 Alpha virt. eigenvalues --    2.42239   2.45212   2.46856   2.48354   2.49585
 Alpha virt. eigenvalues --    2.53399   2.54587   2.55612   2.60437   2.62171
 Alpha virt. eigenvalues --    2.65551   2.77384   2.81066   2.82276   2.84883
 Alpha virt. eigenvalues --    2.87102   2.89074   2.96113   3.03017   3.10625
 Alpha virt. eigenvalues --    3.20104   3.25103   3.30671   3.37106   3.46721
 Alpha virt. eigenvalues --    3.49212   3.71972   3.76188   3.77335   3.80433
 Alpha virt. eigenvalues --    3.81400   3.96582   4.07926   4.25908   4.83332
 Alpha virt. eigenvalues --    4.89884   4.93512   4.99746   5.46432   5.55590
 Alpha virt. eigenvalues --   23.66950  23.79561  23.87960  23.92136  49.85408
 Alpha virt. eigenvalues --   49.91583
  Beta  occ. eigenvalues --  -19.15971 -19.13019 -10.29063 -10.25574 -10.19367
  Beta  occ. eigenvalues --  -10.16812  -1.09375  -1.00015  -0.77575  -0.71325
  Beta  occ. eigenvalues --   -0.65574  -0.55763  -0.49543  -0.48640  -0.46407
  Beta  occ. eigenvalues --   -0.44684  -0.42578  -0.40653  -0.39299  -0.39134
  Beta  occ. eigenvalues --   -0.37492  -0.29927  -0.26344
  Beta virt. eigenvalues --   -0.15204  -0.04664   0.04058   0.06733   0.08520
  Beta virt. eigenvalues --    0.09427   0.10081   0.13006   0.14069   0.15841
  Beta virt. eigenvalues --    0.19118   0.20343   0.22965   0.25181   0.29047
  Beta virt. eigenvalues --    0.30721   0.34291   0.38017   0.40260   0.41809
  Beta virt. eigenvalues --    0.44274   0.49326   0.50292   0.51822   0.54548
  Beta virt. eigenvalues --    0.55945   0.57656   0.58279   0.59448   0.60770
  Beta virt. eigenvalues --    0.61710   0.62271   0.65005   0.65580   0.72375
  Beta virt. eigenvalues --    0.75040   0.79407   0.84953   0.89819   0.90749
  Beta virt. eigenvalues --    0.93963   0.99345   0.99913   1.04678   1.10142
  Beta virt. eigenvalues --    1.16798   1.23074   1.28102   1.30706   1.36890
  Beta virt. eigenvalues --    1.38813   1.43004   1.45055   1.46110   1.47443
  Beta virt. eigenvalues --    1.47635   1.50548   1.53036   1.54039   1.57951
  Beta virt. eigenvalues --    1.60517   1.62318   1.63054   1.66856   1.72156
  Beta virt. eigenvalues --    1.72746   1.79257   1.82439   1.87455   1.89919
  Beta virt. eigenvalues --    1.90406   1.95376   2.05101   2.08209   2.16718
  Beta virt. eigenvalues --    2.22046   2.27969   2.30840   2.33394   2.36332
  Beta virt. eigenvalues --    2.41226   2.42462   2.45373   2.47022   2.48457
  Beta virt. eigenvalues --    2.49741   2.53787   2.54851   2.55786   2.60936
  Beta virt. eigenvalues --    2.62411   2.66192   2.78010   2.81791   2.83202
  Beta virt. eigenvalues --    2.86925   2.90814   2.93143   2.97456   3.04063
  Beta virt. eigenvalues --    3.11068   3.24009   3.26429   3.30858   3.37734
  Beta virt. eigenvalues --    3.47469   3.50038   3.72254   3.76376   3.77496
  Beta virt. eigenvalues --    3.80489   3.81465   3.97920   4.08828   4.26057
  Beta virt. eigenvalues --    4.85063   4.95145   4.95824   5.01838   5.47960
  Beta virt. eigenvalues --    5.56000  23.66954  23.79746  23.88137  23.92152
  Beta virt. eigenvalues --   49.87447  49.91831
          Condensed to atoms (all electrons):
              1          2          3          4          5          6
     1  O    8.098334   0.299190  -0.056620  -0.001804   0.004994   0.006463
     2  C    0.299190   5.355619   0.309285  -0.025248  -0.033532  -0.030832
     3  C   -0.056620   0.309285   4.990743   0.400389   0.380592   0.386763
     4  H   -0.001804  -0.025248   0.400389   0.540383  -0.025387  -0.025059
     5  H    0.004994  -0.033532   0.380592  -0.025387   0.568143  -0.021480
     6  H    0.006463  -0.030832   0.386763  -0.025059  -0.021480   0.553280
     7  C   -0.035074   0.205902  -0.049866   0.006760  -0.002817  -0.009294
     8  H    0.011383  -0.107906  -0.007505  -0.001168   0.001992   0.007575
     9  C   -0.066906   0.272509  -0.086383  -0.008172   0.003345   0.010007
    10  H    0.004600  -0.026692  -0.000553   0.000164   0.000288  -0.000385
    11  H    0.001776  -0.031606  -0.005380   0.003494  -0.000841  -0.000182
    12  H    0.003790  -0.028079   0.008980  -0.000054  -0.000442  -0.000535
    13  O    0.000935  -0.095855  -0.000473  -0.000262   0.001736   0.000355
              7          8          9         10         11         12
     1  O   -0.035074   0.011383  -0.066906   0.004600   0.001776   0.003790
     2  C    0.205902  -0.107906   0.272509  -0.026692  -0.031606  -0.028079
     3  C   -0.049866  -0.007505  -0.086383  -0.000553  -0.005380   0.008980
     4  H    0.006760  -0.001168  -0.008172   0.000164   0.003494  -0.000054
     5  H   -0.002817   0.001992   0.003345   0.000288  -0.000841  -0.000442
     6  H   -0.009294   0.007575   0.010007  -0.000385  -0.000182  -0.000535
     7  C    4.732543   0.386506  -0.073274  -0.000782   0.007798  -0.003312
     8  H    0.386506   0.621220   0.013038   0.000236  -0.000382   0.000055
     9  C   -0.073274   0.013038   4.969727   0.377230   0.397631   0.392317
    10  H   -0.000782   0.000236   0.377230   0.580324  -0.025746  -0.022230
    11  H    0.007798  -0.000382   0.397631  -0.025746   0.564708  -0.023287
    12  H   -0.003312   0.000055   0.392317  -0.022230  -0.023287   0.550583
    13  O    0.612891  -0.037834   0.021099   0.005386   0.000134   0.002054
             13
     1  O    0.000935
     2  C   -0.095855
     3  C   -0.000473
     4  H   -0.000262
     5  H    0.001736
     6  H    0.000355
     7  C    0.612891
     8  H   -0.037834
     9  C    0.021099
    10  H    0.005386
    11  H    0.000134
    12  H    0.002054
    13  O    7.721592
 Mulliken atomic charges:
              1
     1  O   -0.271060
     2  C   -0.062753
     3  C   -0.269972
     4  H    0.135966
     5  H    0.123409
     6  H    0.123325
     7  C    0.222018
     8  H    0.112790
     9  C   -0.222167
    10  H    0.108160
    11  H    0.111882
    12  H    0.120161
    13  O   -0.231757
 Sum of Mulliken charges=   0.00000
 Atomic charges with hydrogens summed into heavy atoms:
              1
     1  O   -0.271060
     2  C   -0.062753
     3  C    0.112728
     4  H    0.000000
     5  H    0.000000
     6  H    0.000000
     7  C    0.334808
     8  H    0.000000
     9  C    0.118035
    10  H    0.000000
    11  H    0.000000
    12  H    0.000000
    13  O   -0.231757
 Sum of Mulliken charges=   0.00000
          Atomic-Atomic Spin Densities.
              1          2          3          4          5          6
     1  O    0.849207  -0.064329  -0.011622   0.005058   0.000236  -0.001073
     2  C   -0.064329  -0.036969  -0.007024   0.001427   0.003525   0.001127
     3  C   -0.011622  -0.007024   0.120344  -0.012232  -0.005105   0.002242
     4  H    0.005058   0.001427  -0.012232   0.007503   0.003735  -0.000083
     5  H    0.000236   0.003525  -0.005105   0.003735   0.003494  -0.000864
     6  H   -0.001073   0.001127   0.002242  -0.000083  -0.000864  -0.004457
     7  C   -0.011201   0.065881  -0.019451   0.001261   0.001967  -0.000136
     8  H    0.005618  -0.004955   0.007514  -0.000570  -0.001183  -0.000194
     9  C   -0.000529   0.014768   0.007077  -0.000572  -0.001325  -0.000363
    10  H   -0.000131  -0.000596   0.000778  -0.000200  -0.000231   0.000044
    11  H    0.000956   0.000857  -0.003127   0.001062   0.000449   0.000006
    12  H    0.001433  -0.003815   0.001556  -0.000304  -0.000123   0.000022
    13  O    0.001278  -0.006541   0.003490  -0.000156  -0.000691  -0.000019
              7          8          9         10         11         12
     1  O   -0.011201   0.005618  -0.000529  -0.000131   0.000956   0.001433
     2  C    0.065881  -0.004955   0.014768  -0.000596   0.000857  -0.003815
     3  C   -0.019451   0.007514   0.007077   0.000778  -0.003127   0.001556
     4  H    0.001261  -0.000570  -0.000572  -0.000200   0.001062  -0.000304
     5  H    0.001967  -0.001183  -0.001325  -0.000231   0.000449  -0.000123
     6  H   -0.000136  -0.000194  -0.000363   0.000044   0.000006   0.000022
     7  C    0.075174  -0.008909  -0.003687  -0.001281   0.000644  -0.002257
     8  H   -0.008909   0.022308  -0.000211   0.000125  -0.000127   0.000439
     9  C   -0.003687  -0.000211  -0.019198   0.002351   0.000214   0.000429
    10  H   -0.001281   0.000125   0.002351  -0.002655  -0.000470   0.000421
    11  H    0.000644  -0.000127   0.000214  -0.000470   0.003410  -0.001978
    12  H   -0.002257   0.000439   0.000429   0.000421  -0.001978   0.004322
    13  O   -0.029747  -0.000201  -0.000724   0.000531  -0.000294   0.001791
             13
     1  O    0.001278
     2  C   -0.006541
     3  C    0.003490
     4  H   -0.000156
     5  H   -0.000691
     6  H   -0.000019
     7  C   -0.029747
     8  H   -0.000201
     9  C   -0.000724
    10  H    0.000531
    11  H   -0.000294
    12  H    0.001791
    13  O    0.114159
 Mulliken atomic spin densities:
              1
     1  O    0.774901
     2  C   -0.036644
     3  C    0.084440
     4  H    0.005928
     5  H    0.003883
     6  H   -0.003749
     7  C    0.068257
     8  H    0.019654
     9  C   -0.001770
    10  H   -0.001312
    11  H    0.001601
    12  H    0.001935
    13  O    0.082875
 Sum of Mulliken spin densities=   1.00000
 APT atomic charges:
              1
     1  O   -0.178614
     2  C   -0.234650
     3  C    0.166912
     4  H    0.003492
     5  H   -0.017854
     6  H   -0.003013
     7  C    0.939979
     8  H   -0.043671
     9  C    0.052163
    10  H    0.001424
    11  H   -0.001131
    12  H   -0.003440
    13  O   -0.681597
 Sum of APT charges=   0.00000
 APT Atomic charges with hydrogens summed into heavy atoms:
              1
     1  O   -0.178614
     2  C   -0.234650
     3  C    0.149536
     4  H    0.000000
     5  H    0.000000
     6  H    0.000000
     7  C    0.896308
     8  H    0.000000
     9  C    0.049017
    10  H    0.000000
    11  H    0.000000
    12  H    0.000000
    13  O   -0.681597
 Sum of APT charges=   0.00000
 Electronic spatial extent (au):  <R**2>=  1133.3153
 Charge=     0.0000 electrons
 Dipole moment (field-independent basis, Debye):
    X=    -1.9417    Y=    -0.5814    Z=    -0.1287  Tot=     2.0310
 Quadrupole moment (field-independent basis, Debye-Ang):
   XX=   -33.2677   YY=   -43.5789   ZZ=   -35.0512
   XY=    -0.5669   XZ=    -0.4914   YZ=     2.8807
 Traceless Quadrupole moment (field-independent basis, Debye-Ang):
   XX=     4.0315   YY=    -6.2796   ZZ=     2.2481
   XY=    -0.5669   XZ=    -0.4914   YZ=     2.8807
 Octapole moment (field-independent basis, Debye-Ang**2):
  XXX=    89.9047  YYY=  -215.2192  ZZZ=     9.4803  XYY=    33.6567
  XXY=   -55.6731  XXZ=     3.3915  XZZ=    30.4094  YZZ=   -63.4772
  YYZ=    18.8812  XYZ=    -0.9678
 Hexadecapole moment (field-independent basis, Debye-Ang**3):
 XXXX=  -335.7325 YYYY=  -994.0557 ZZZZ=  -254.4041 XXXY=   123.5192
 XXXZ=     0.7201 YYYX=   144.7084 YYYZ=    98.8164 ZZZX=    -0.7988
 ZZZY=    42.2133 XXYY=  -189.5189 XXZZ=   -99.7736 YYZZ=  -207.1590
 XXYZ=    11.2560 YYXZ=    -4.9567 ZZXY=    47.0267
 N-N= 2.380554051019D+02 E-N=-1.194786430403D+03  KE= 3.060119965912D+02
  Exact polarizability:  48.237   2.834  61.455  -1.725  -6.617  56.957
 Approx polarizability:  67.904  -5.765 103.743   1.825 -17.424  75.870
                          Isotropic Fermi Contact Couplings
        Atom                 a.u.       MegaHertz       Gauss      10(-4) cm-1
     1  O(17)              0.04374     -26.51717      -9.46199      -8.84518
     2  C(13)             -0.03098     -34.82730     -12.42725     -11.61714
     3  C(13)              0.05158      57.98097      20.68905      19.34037
     4  H(1)              -0.00001      -0.06299      -0.02248      -0.02101
     5  H(1)               0.00119       5.32275       1.89929       1.77548
     6  H(1)              -0.00126      -5.61062      -2.00201      -1.87150
     7  C(13)              0.07310      82.18052      29.32405      27.41247
     8  H(1)               0.00713      31.84794      11.36414      10.62333
     9  C(13)             -0.00460      -5.17061      -1.84500      -1.72473
    10  H(1)              -0.00044      -1.96386      -0.70076      -0.65507
    11  H(1)               0.00016       0.70906       0.25301       0.23652
    12  H(1)              -0.00002      -0.09461      -0.03376      -0.03156
    13  O(17)              0.00823      -4.98908      -1.78023      -1.66418
 --------------------------------------------------------
       Center         ----  Spin Dipole Couplings  ----
                      3XX-RR        3YY-RR        3ZZ-RR
 --------------------------------------------------------
     1   Atom        0.130578      0.302543     -0.433121
     2   Atom        0.004350      0.019107     -0.023457
     3   Atom        0.104063     -0.042487     -0.061576
     4   Atom        0.009508     -0.006054     -0.003454
     5   Atom        0.009380     -0.000068     -0.009313
     6   Atom        0.004262     -0.004279      0.000017
     7   Atom       -0.065339     -0.021357      0.086696
     8   Atom       -0.010452     -0.002798      0.013249
     9   Atom       -0.004881      0.004989     -0.000109
    10   Atom       -0.002220      0.002951     -0.000731
    11   Atom       -0.003042     -0.001465      0.004508
    12   Atom       -0.006460      0.006299      0.000161
    13   Atom       -0.104335     -0.184172      0.288507
 --------------------------------------------------------
                        XY            XZ            YZ
 --------------------------------------------------------
     1   Atom        1.754441     -1.357494     -1.420287
     2   Atom        0.005879     -0.036036     -0.046442
     3   Atom        0.056515      0.024588      0.008993
     4   Atom        0.005958     -0.005327     -0.006954
     5   Atom       -0.006324      0.002488     -0.002126
     6   Atom        0.005796      0.008478      0.008119
     7   Atom        0.013462     -0.039752     -0.087491
     8   Atom       -0.001116      0.003608     -0.001156
     9   Atom       -0.005336     -0.002055      0.007567
    10   Atom       -0.003405     -0.002636      0.003762
    11   Atom       -0.003040     -0.004282      0.006348
    12   Atom        0.000115      0.000826      0.007356
    13   Atom        0.030681     -0.321981     -0.100729
 --------------------------------------------------------


 ---------------------------------------------------------------------------------
              Anisotropic Spin Dipole Couplings in Principal Axis System
 ---------------------------------------------------------------------------------

       Atom             a.u.   MegaHertz   Gauss  10(-4) cm-1        Axes

              Baa    -1.5414   111.532    39.797    37.203  0.7982 -0.4955  0.3426
     1 O(17)  Bbb    -1.5324   110.885    39.567    36.987  0.0258  0.5963  0.8023
              Bcc     3.0738  -222.417   -79.364   -74.190  0.6019  0.6315 -0.4888
 
              Baa    -0.0648    -8.695    -3.103    -2.900  0.3897  0.4249  0.8171
     2 C(13)  Bbb     0.0040     0.533     0.190     0.178  0.8111 -0.5786 -0.0859
              Bcc     0.0608     8.162     2.912     2.723  0.4363  0.6962 -0.5701
 
              Baa    -0.0653    -8.763    -3.127    -2.923 -0.0770 -0.1947  0.9778
     3 C(13)  Bbb    -0.0617    -8.274    -2.952    -2.760 -0.3396  0.9272  0.1579
              Bcc     0.1270    17.037     6.079     5.683  0.9374  0.3199  0.1375
 
              Baa    -0.0119    -6.354    -2.267    -2.120 -0.0691  0.7915  0.6073
     4 H(1)   Bbb    -0.0027    -1.454    -0.519    -0.485  0.5367 -0.4837  0.6914
              Bcc     0.0146     7.808     2.786     2.604  0.8410  0.3737 -0.3913
 
              Baa    -0.0099    -5.259    -1.877    -1.754 -0.0723  0.1669  0.9833
     5 H(1)   Bbb    -0.0031    -1.679    -0.599    -0.560  0.4657  0.8775 -0.1147
              Bcc     0.0130     6.938     2.475     2.314  0.8820 -0.4497  0.1412
 
              Baa    -0.0106    -5.638    -2.012    -1.881  0.0672  0.7650 -0.6406
     6 H(1)   Bbb    -0.0050    -2.670    -0.953    -0.891  0.7375 -0.4705 -0.4845
              Bcc     0.0156     8.309     2.965     2.771  0.6720  0.4399  0.5958
 
              Baa    -0.0795   -10.665    -3.805    -3.557  0.7662  0.4747  0.4332
     7 C(13)  Bbb    -0.0642    -8.613    -3.073    -2.873 -0.6127  0.7430  0.2694
              Bcc     0.1437    19.278     6.879     6.430 -0.1940 -0.4718  0.8601
 
              Baa    -0.0111    -5.920    -2.112    -1.975  0.9837  0.1127 -0.1404
     8 H(1)   Bbb    -0.0028    -1.491    -0.532    -0.497 -0.1001  0.9905  0.0939
              Bcc     0.0139     7.411     2.644     2.472  0.1497 -0.0783  0.9856
 
              Baa    -0.0076    -1.019    -0.364    -0.340  0.7931  0.5235 -0.3113
     9 C(13)  Bbb    -0.0046    -0.621    -0.222    -0.207  0.5245 -0.3273  0.7860
              Bcc     0.0122     1.641     0.585     0.547 -0.3096  0.7867  0.5341
 
              Baa    -0.0043    -2.289    -0.817    -0.763  0.8678  0.1644  0.4690
    10 H(1)   Bbb    -0.0030    -1.575    -0.562    -0.525 -0.2763 -0.6248  0.7303
              Bcc     0.0072     3.864     1.379     1.289 -0.4131  0.7633  0.4967
 
              Baa    -0.0056    -2.995    -1.069    -0.999  0.3945  0.8443 -0.3626
    11 H(1)   Bbb    -0.0049    -2.639    -0.942    -0.880  0.8455 -0.1790  0.5031
              Bcc     0.0106     5.634     2.010     1.879 -0.3599  0.5051  0.7845
 
              Baa    -0.0067    -3.563    -1.271    -1.188  0.9515  0.1453 -0.2711
    12 H(1)   Bbb    -0.0045    -2.423    -0.864    -0.808  0.3060 -0.5368  0.7862
              Bcc     0.0112     5.985     2.136     1.997  0.0313  0.8311  0.5553
 
              Baa    -0.2906    21.026     7.503     7.014  0.8311  0.2368  0.5033
    13 O(17)  Bbb    -0.1945    14.074     5.022     4.694 -0.2811  0.9596  0.0127
              Bcc     0.4851   -35.100   -12.524   -11.708 -0.4799 -0.1520  0.8640
 

 ---------------------------------------------------------------------------------

 Use density number 0.
 Entering OneElI...
 Calculate overlap and kinetic energy integrals
    NBasis = 156  MinDer = 2  MaxDer = 2
 Requested accuracy = 0.1000D-12
 PrsmSu:  NPrtUS=   1 ThrOK=F
 PRISM was handed   130852807 working-precision words and  1710 shell-pairs
 Entering OneElI...
 Calculate potential energy integrals
    NBasis = 156  MinDer = 2  MaxDer = 2
 Requested accuracy = 0.1000D-12
 PrsmSu:  NPrtUS=   8 ThrOK=T
 PRISM was handed    16323974 working-precision words and  1660 shell-pairs
 PRISM was handed    16323974 working-precision words and  1660 shell-pairs
 PRISM was handed    16323974 working-precision words and  1660 shell-pairs
 PRISM was handed    16323974 working-precision words and  1660 shell-pairs
 PRISM was handed    16323974 working-precision words and  1660 shell-pairs
 PRISM was handed    16323974 working-precision words and  1660 shell-pairs
 PRISM was handed    16323974 working-precision words and  1660 shell-pairs
 PRISM was handed    16323974 working-precision words and  1660 shell-pairs
 Polarizability after L701:
                1             2             3
      1  0.482371D+02
      2  0.283418D+01  0.614550D+02
      3 -0.172508D+01 -0.661732D+01  0.569570D+02
 Dipole Derivatives after L701:
               1            2            3            4            5
      1-0.225432D+00 0.256174D-01-0.306089D-02-0.493641D-01-0.168276D+00
      2-0.404525D-01 0.841675D-03-0.131579D+00-0.213008D-01-0.477760D+00
      3 0.161974D+00-0.458604D+00-0.311252D+00-0.496181D-01 0.924656D+00
               6            7            8            9           10
      1 0.866487D-01 0.158007D+00 0.692086D-01 0.700205D-01 0.506209D-02
      2 0.797138D+00-0.391468D-01 0.266088D+00-0.729641D-01-0.171701D-02
      3-0.176827D+00-0.141141D-01-0.212279D+00 0.766402D-01-0.685607D-02
              11           12           13           14           15
      1-0.467928D-01 0.253755D-01-0.754774D-01 0.606884D-01-0.167039D-01
      2 0.432480D-01 0.796581D-01-0.347893D-01-0.619555D-01 0.252720D-02
      3 0.574478D-01-0.378347D-01 0.599537D-01 0.448909D-01 0.838699D-01
              16           17           18           19           20
      1 0.428751D-01-0.252010D-01-0.216494D-01 0.333912D+00 0.157756D+00
      2 0.214812D-01 0.290561D-02-0.973412D-01 0.244974D+00 0.133552D+01
      3 0.157457D-01-0.862574D-01-0.548196D-01-0.284139D+00-0.418020D+00
              21           22           23           24           25
      1-0.219308D+00 0.415129D-01 0.421747D-01 0.298518D-01 0.914504D-01
      2-0.620260D+00-0.412188D-01 0.105188D-01-0.145063D-01 0.881439D-02
      3 0.115051D+01 0.824207D-01-0.155097D+00-0.183045D+00-0.599567D-01
              26           27           28           29           30
      1 0.281105D-01-0.124774D-01-0.263535D-01 0.771378D-01-0.482311D-01
      2 0.794951D-01-0.218384D+00 0.748459D-01-0.989188D-02 0.462518D-01
      3-0.170106D+00-0.144558D-01-0.143862D-03-0.309232D-01 0.405168D-01
              31           32           33           34           35
      1 0.606095D-01-0.288697D-01 0.353619D-01-0.765265D-01-0.495737D-01
      2-0.235489D-01-0.849229D-02 0.225763D-01-0.693390D-01 0.183138D-01
      3 0.479145D-01 0.994569D-01-0.555095D-01-0.358305D-01-0.283114D-01
              36           37           38           39
      1 0.547753D-02-0.280276D+00-0.141980D+00 0.686947D-01
      2-0.118900D-01-0.786027D-01-0.119883D+01 0.218773D+00
      3 0.478939D-01 0.826494D-01 0.433146D+00-0.565682D+00
 Hessian after L701:
                1             2             3             4             5
      1  0.409963D+01
      2  0.592087D+01  0.407714D+01
      3 -0.834992D+00  0.691579D+00  0.963509D+01
      4 -0.407147D+01 -0.571226D+01  0.456085D+00  0.146147D+02
      5 -0.565022D+01 -0.447892D+01 -0.388505D+00  0.292162D+01  0.151020D+02
      6  0.372303D+00 -0.320999D+00 -0.100067D+02 -0.419978D-01  0.456361D+00
      7  0.519043D+00  0.197793D+00  0.232131D+00 -0.925362D+00  0.205778D+01
      8  0.463665D-01 -0.257149D+00 -0.656112D-02  0.210187D+01 -0.433927D+01
      9  0.246795D+00 -0.814474D-03 -0.373315D-01  0.787285D+00  0.334474D+00
     10  0.756966D-01  0.296136D-02  0.119346D-01  0.595109D-01  0.192432D-01
     11  0.476559D-01 -0.395783D-01 -0.452563D-02  0.451648D-01  0.514394D-01
     12 -0.548526D-01 -0.586486D-02 -0.355283D-01 -0.703090D-01 -0.606138D-01
     13  0.159750D+00 -0.929623D-01  0.155564D-01 -0.100676D+00  0.444258D-01
     14 -0.986145D-01 -0.450994D-02 -0.126619D-01 -0.298230D-01  0.813599D-01
     15  0.259387D-01 -0.118577D-01 -0.482243D-01  0.830843D-02  0.612344D-02
     16  0.100732D+00 -0.405765D-03  0.543619D-01  0.517392D-01 -0.487119D-01
     17  0.548917D-01 -0.761646D-01  0.201619D-01 -0.790080D-02  0.103928D-01
     18  0.124518D+00  0.441292D-02 -0.372409D-01  0.117334D-01  0.235707D-02
     19 -0.255336D+00 -0.860969D-01  0.213347D+00 -0.465465D+01  0.585608D+00
     20 -0.623728D-01 -0.117326D+00 -0.447422D+00  0.541619D+00 -0.341540D+01
     21  0.190831D+00 -0.373956D+00  0.249905D+00 -0.901193D+00 -0.285383D+01
     22 -0.101607D+00 -0.187242D-01  0.109427D-01  0.364300D+00  0.342907D-01
     23 -0.128720D-01 -0.549952D-01 -0.645075D-01  0.346802D-01  0.422875D+00
     24  0.364776D-01 -0.165654D+00  0.123577D+00  0.142291D+00 -0.173127D+00
     25 -0.255829D+00  0.653968D-01 -0.176899D+00 -0.557176D+01 -0.390685D-01
     26  0.121203D+00  0.251680D+00  0.502530D+00 -0.230906D-01 -0.298251D+01
     27 -0.775340D-01  0.389012D+00  0.284558D+00 -0.218423D+00  0.285378D+01
     28  0.358553D-01 -0.113715D+00 -0.239749D-01  0.229940D-01 -0.201718D-02
     29 -0.115101D+00  0.109022D+00  0.285490D-01  0.306427D-01 -0.252651D-02
     30 -0.203846D-01  0.236335D-01 -0.484226D-01  0.336761D-01 -0.284804D-01
     31 -0.602544D-02 -0.510002D-01 -0.599249D-01  0.391614D-01 -0.926984D-02
     32 -0.251118D-01 -0.284549D-01  0.216782D-01  0.547488D-02  0.776890D-01
     33 -0.824475D-01  0.839139D-01  0.441532D-01 -0.591695D-02  0.725626D-01
     34 -0.656977D-01  0.397628D-01  0.192189D-01  0.520364D-01  0.415127D-01
     35 -0.347338D-01  0.993788D-01  0.649662D-01 -0.744383D-02  0.571341D-01
     36 -0.165523D-01  0.593579D-01 -0.435456D-01 -0.291629D-01  0.187389D-01
     37 -0.234739D+00 -0.151625D+00  0.822133D-01  0.119461D+00  0.448091D-01
     38 -0.191965D+00  0.519876D+00 -0.405281D+00  0.994450D-01 -0.584234D+00
     39  0.898998D-01 -0.372762D+00 -0.802838D-01 -0.172375D+00 -0.239849D+00
                6             7             8             9            10
      6  0.168334D+02
      7  0.844509D+00  0.106060D+02
      8  0.351519D+00 -0.166967D+01  0.130554D+02
      9 -0.512374D+01 -0.498718D+00  0.942075D-01  0.136086D+02
     10 -0.212181D-02 -0.378795D+01  0.411117D+00 -0.617903D+00  0.354583D+01
     11 -0.176287D-01  0.324425D+00 -0.310371D+01 -0.123699D+01 -0.568275D+00
     12  0.662675D-01 -0.450156D+00 -0.114383D+01 -0.225017D+01  0.689190D+00
     13  0.181122D-01 -0.254244D+01 -0.142513D+01  0.275319D+00  0.629603D-01
     14 -0.279775D-02 -0.120282D+01 -0.268950D+01 -0.240823D+00  0.359350D-01
     15  0.725243D-01  0.251683D+00 -0.261629D+00 -0.386487D+01 -0.409140D-01
     16 -0.479318D-01 -0.395701D+01  0.219072D-01  0.319202D-01  0.530657D-01
     17 -0.264640D-01 -0.114684D+00 -0.295266D+01  0.133225D+01  0.213681D-02
     18  0.671173D-01 -0.139703D+00  0.125071D+01 -0.226225D+01  0.223799D-01
     19 -0.919404D+00  0.306544D-01  0.133256D+00 -0.170914D+00  0.205226D-01
     20 -0.276591D+01  0.141928D+00  0.221394D-01 -0.170220D+00  0.697519D-01
     21 -0.662701D-01 -0.122402D+00 -0.132882D+00  0.238727D-01 -0.732411D-01
     22  0.169861D+00 -0.101468D-01 -0.125942D-03 -0.162245D-01 -0.173968D-02
     23 -0.168575D+00 -0.176138D-01 -0.255676D-01  0.255035D-01 -0.427477D-02
     24 -0.617683D+00  0.198129D-02  0.849014D-02  0.125117D-01  0.225354D-02
     25 -0.241199D+00  0.748797D-01  0.117643D-01  0.174356D-01 -0.235367D-01
     26  0.275471D+01 -0.707219D-01  0.319694D-01 -0.319322D-01 -0.197495D-01
     27 -0.238385D+01 -0.117800D+00 -0.101346D+00  0.124349D-01 -0.628579D-02
     28 -0.133501D-01 -0.328361D-01 -0.987342D-02 -0.549123D-02 -0.479761D-02
     29  0.386239D-01  0.440852D-02  0.626926D-01  0.527676D-01  0.758594D-02
     30  0.614102D-01  0.260377D-02  0.314924D-01 -0.174616D-01  0.167910D-04
     31 -0.247425D-01 -0.891230D-02  0.305257D-02  0.900373D-02 -0.276750D-02
     32 -0.119013D-01 -0.276729D-03 -0.263246D-01 -0.151670D-01  0.154126D-01
     33  0.270265D-01  0.145466D-01  0.321617D-02  0.264187D-01  0.236354D-01
     34  0.447206D-01  0.676772D-01  0.104478D+00  0.779296D-01  0.557877D-02
     35  0.549717D-01  0.105535D+00  0.370140D-01  0.646210D-01  0.632471D-02
     36  0.714946D-01  0.779443D-01  0.642048D-01 -0.607012D-02  0.149091D-02
     37 -0.158760D+00 -0.335417D-01  0.270983D+00 -0.136439D+00 -0.237554D-02
     38 -0.341901D+00  0.243926D+00  0.184998D+00 -0.207877D+00  0.218303D-01
     39  0.999001D+00 -0.966204D-01 -0.157596D+00 -0.121917D+00 -0.104360D-01
               11            12            13            14            15
     11  0.296045D+01
     12  0.126941D+01  0.220526D+01
     13  0.330234D-01 -0.251257D-01  0.219917D+01
     14 -0.204136D-01  0.459960D-01  0.123536D+01  0.277137D+01
     15  0.802289D-01  0.213886D-01 -0.305152D+00  0.246801D+00  0.382779D+01
     16  0.782041D-02  0.778528D-02  0.359893D-01  0.520379D-01  0.453488D-01
     17  0.685631D-01  0.165027D-01  0.612099D-01 -0.390503D-01 -0.684514D-01
     18 -0.231660D-01 -0.380235D-01  0.299266D-01 -0.327628D-01  0.429915D-01
     19  0.715097D-01 -0.729380D-01  0.294815D-01 -0.155963D-01 -0.124334D-01
     20  0.277749D-01 -0.704073D-01 -0.109487D-02 -0.220289D-01 -0.405630D-02
     21 -0.781930D-01  0.306189D-01 -0.210021D-01 -0.307919D-02 -0.176544D-01
     22 -0.367680D-03  0.192215D-02  0.212311D-01 -0.573276D-02 -0.172930D-01
     23 -0.397625D-02  0.747285D-02 -0.803770D-02 -0.450008D-02  0.248194D-02
     24 -0.149627D-02  0.320020D-02 -0.305324D-01  0.786432D-02  0.543976D-02
     25 -0.334202D-02 -0.140969D-01  0.722768D-01  0.746309D-02  0.621654D-01
     26 -0.310565D-02 -0.116131D-01  0.379596D-01 -0.414997D-01  0.209406D-01
     27 -0.229821D-02  0.121658D-02  0.631074D-01  0.669725D-02 -0.138635D-01
     28 -0.218166D-02  0.366855D-02 -0.658095D-02  0.356436D-02  0.155622D-02
     29  0.206524D-01 -0.837918D-02  0.198045D-01 -0.442541D-02  0.122424D-01
     30  0.559972D-03 -0.364769D-02  0.689123D-02  0.306258D-02 -0.230900D-02
     31  0.160668D-01  0.947329D-02 -0.109809D-02 -0.878425D-03  0.671100D-03
     32  0.456101D-02  0.132466D-01 -0.448315D-02  0.285357D-03 -0.260569D-02
     33  0.341179D-01 -0.843430D-02  0.114660D-01 -0.833498D-02  0.557815D-02
     34  0.110006D-01 -0.694618D-02  0.967689D-02 -0.539324D-02  0.347871D-02
     35  0.616649D-02 -0.443004D-02  0.442397D-02 -0.357881D-02  0.143918D-02
     36  0.168619D-02 -0.308270D-02  0.260426D-02 -0.129408D-02 -0.517038D-03
     37  0.175000D-01 -0.176158D-01  0.602601D-01  0.244984D-01 -0.233576D-01
     38  0.311762D-01 -0.474943D-01  0.954936D-01 -0.235053D-01 -0.216576D-01
     39 -0.217129D-01  0.109422D-01 -0.411710D-01 -0.866756D-02 -0.282717D-01
               16            17            18            19            20
     16  0.375676D+01
     17 -0.135303D+00  0.286895D+01
     18 -0.121969D+00 -0.136433D+01  0.219914D+01
     19 -0.175319D-01 -0.115179D-02  0.123979D-01  0.269841D+02
     20 -0.197363D-01 -0.205959D-01  0.106727D-01 -0.137434D+01  0.415167D+01
     21  0.446351D-02  0.772227D-02  0.508403D-03  0.175387D+01  0.365374D+01
     22  0.153389D-01  0.393204D-01 -0.154918D-01 -0.402163D+01 -0.287435D+00
     23  0.250338D-01 -0.856498D-02 -0.144875D-01 -0.259858D+00 -0.288114D+01
     24 -0.354715D-01 -0.357584D-01 -0.183884D-01 -0.298734D+00  0.170957D+01
     25 -0.250533D-01  0.624029D-01  0.632555D-01  0.126809D+00 -0.185371D-01
     26  0.659617D-01  0.667810D-01  0.119246D+00  0.374996D-02  0.161160D-01
     27  0.657036D-01  0.118660D+00  0.617598D-01  0.272834D-02  0.778439D-01
     28 -0.129405D-02 -0.444035D-02 -0.459647D-02 -0.162673D-01 -0.356240D-01
     29 -0.224921D-03  0.636472D-02  0.819183D-02 -0.125841D-01  0.741659D-02
     30 -0.203204D-03  0.476244D-03 -0.524772D-03 -0.550592D-02  0.347532D-01
     31 -0.190506D-02 -0.453944D-03 -0.575929D-03 -0.379676D-01  0.120502D-04
     32  0.318375D-03 -0.239569D-02 -0.720840D-03  0.324113D-02 -0.563740D-01
     33  0.201307D-02  0.889710D-02  0.129849D-01 -0.344815D-01 -0.685206D-02
     34 -0.869747D-03  0.321400D-02  0.535914D-02 -0.255970D-02  0.266907D-01
     35 -0.354350D-02 -0.205246D-03  0.146336D-02  0.447773D-02 -0.112823D-01
     36 -0.401449D-02 -0.265229D-02 -0.538538D-03  0.266223D-02  0.117635D-01
     37 -0.995771D-02  0.407587D-01  0.127660D-01 -0.181856D+02  0.101914D+01
     38  0.348462D-01  0.785837D-01  0.384079D-01  0.947785D+00  0.229903D+01
     39 -0.200610D-02 -0.701258D-02 -0.275413D-01 -0.470597D+00 -0.203347D+01
               21            22            23            24            25
     21  0.182962D+02
     22 -0.311365D+00  0.369267D+01
     23  0.157139D+01  0.307125D+00  0.273902D+01
     24 -0.221177D+01  0.261899D+00 -0.170633D+01  0.210140D+01
     25 -0.146157D-01 -0.588096D-01 -0.148761D-01 -0.384264D-01  0.145113D+02
     26 -0.906127D-01 -0.109979D-01 -0.450468D-01  0.893076D-01 -0.171595D+00
     27 -0.230943D+00 -0.406952D-01  0.104375D+00  0.232959D+00  0.399502D+00
     28 -0.281949D-01 -0.474200D-03 -0.711932D-02 -0.962656D-02 -0.279765D+01
     29  0.397792D-01 -0.335078D-02  0.549418D-02  0.116723D-01 -0.131445D+01
     30  0.222577D-01 -0.278962D-02  0.585740D-02  0.669710D-02  0.187185D+00
     31 -0.404349D-01 -0.245474D-03 -0.130053D-02 -0.175528D-02 -0.379192D+01
     32 -0.214466D-01  0.896706D-03 -0.151463D-02 -0.497413D-02  0.263416D+00
     33  0.180045D+00 -0.623391D-03  0.609900D-02  0.319514D-02 -0.544050D+00
     34  0.262365D-01 -0.260909D-02  0.709839D-02  0.102506D-01 -0.182400D+01
     35  0.416058D-02  0.107374D-03  0.249615D-02  0.792143D-02  0.108355D+01
     36 -0.459593D-03  0.646151D-03  0.605947D-02  0.814598D-02  0.407297D+00
     37 -0.462953D+00  0.103725D+00 -0.479853D-01 -0.406063D-01 -0.436716D+00
     38 -0.172280D+01 -0.550061D-01 -0.144582D+00  0.252506D+00  0.678791D-01
     39 -0.162763D+02 -0.407887D-01  0.224653D+00  0.350719D+00 -0.107553D+00
               26            27            28            29            30
     26  0.123176D+02
     27 -0.166460D+01  0.114434D+02
     28 -0.127312D+01  0.342741D+00  0.280992D+01
     29 -0.251577D+01 -0.389048D+00  0.134959D+01  0.236134D+01
     30 -0.203655D+00 -0.392794D+01 -0.884111D-01  0.793429D-01  0.377658D+01
     31  0.297249D+00 -0.515038D+00  0.660674D-01  0.447005D-01 -0.469266D-01
     32 -0.340322D+01 -0.962424D+00  0.192698D-01 -0.279542D-01  0.807709D-01
     33 -0.115128D+01 -0.195893D+01 -0.277484D-01  0.851887D-01  0.146507D-01
     34  0.980359D+00  0.198696D+00 -0.538717D-01  0.620726D-02 -0.505493D-02
     35 -0.354401D+01  0.951649D-01  0.438476D-01  0.658679D-01  0.565702D-02
     36  0.176854D+00 -0.399921D+01 -0.324054D-01  0.526199D-02  0.516413D-01
     37  0.627975D-01 -0.967016D-01 -0.210640D-01 -0.172295D-01 -0.610970D-01
     38 -0.149014D+00 -0.525824D+00  0.318232D-01 -0.881745D-01 -0.334711D-01
     39 -0.509891D+00  0.478377D+00 -0.114167D+00  0.358074D-01  0.670690D-01
               31            32            33            34            35
     31  0.375377D+01
     32 -0.258174D+00  0.343640D+01
     33  0.633834D+00  0.907774D+00  0.155105D+01
     34  0.737144D-02 -0.266457D-01  0.248293D-01  0.184357D+01
     35 -0.536085D-01  0.201643D-01  0.228999D-01 -0.115122D+01  0.333237D+01
     36  0.536312D-01  0.277274D-01  0.450056D-01 -0.483749D+00 -0.322985D+00
     37 -0.155327D-01  0.666210D-02 -0.150562D-01 -0.363088D-01  0.228153D-02
     38  0.136038D-01  0.713325D-02 -0.581996D-01 -0.370699D-01 -0.615134D-01
     39 -0.172145D-01 -0.319580D-01  0.572567D-01  0.850303D-01  0.414981D-02
               36            37            38            39
     36  0.378665D+01
     37  0.196075D-01  0.186924D+02
     38 -0.447224D-01 -0.127259D+01 -0.206977D+01
     39  0.904858D-01  0.897999D+00  0.311831D+01  0.144805D+02
 ReadGW:  IGet=0 IStart=          96 Next=        5853 LGW=        5757.
 ICntrl=12127.
 Symmetry not used in FoFDir.
 MinBra= 0 MaxBra= 2 Meth= 1.
 IRaf=       0 NMat=   1 IRICut=       1 DoRegI=T DoRafI=F ISym2E= 0 JSym2E=0.
 PrsmSu:  NPrtUS=   8 ThrOK=T
 PRISM was handed    16314561 working-precision words and  1693 shell-pairs
 PRISM was handed    16314561 working-precision words and  1693 shell-pairs
 PRISM was handed    16314561 working-precision words and  1693 shell-pairs
 PRISM was handed    16314561 working-precision words and  1693 shell-pairs
 PRISM was handed    16314561 working-precision words and  1693 shell-pairs
 PRISM was handed    16314561 working-precision words and  1693 shell-pairs
 PRISM was handed    16314561 working-precision words and  1693 shell-pairs
 PRISM was handed    16314561 working-precision words and  1693 shell-pairs
 Pruned (  75, 302) grid will be used in CalDFT.
 CkSvGd:  ISavGI=        -1 IRadAn=       4 IRASav=       4 ISavGd=        -1.
 CalDSu:  NPrtUS=   8 ThrOK=T
 IPart= 0 IRanGd=          0 ScrnBf=T ScrnGd=T RCrit=4.00D+00 DoMicB=T.
 IPart= 4 IRanGd=          0 ScrnBf=T ScrnGd=T RCrit=4.00D+00 DoMicB=T.
 IPart= 5 IRanGd=          0 ScrnBf=T ScrnGd=T RCrit=4.00D+00 DoMicB=T.
 IPart= 7 IRanGd=          0 ScrnBf=T ScrnGd=T RCrit=4.00D+00 DoMicB=T.
 CutRad = 1000.00    CtRdIn =    0.00    XCrit =  15.00   ICut = 0
 CutRad = 1000.00    CtRdIn =    0.00    XCrit =  15.00   ICut = 0
 IPart= 2 IRanGd=          0 ScrnBf=T ScrnGd=T RCrit=4.00D+00 DoMicB=T.
 IPart= 6 IRanGd=          0 ScrnBf=T ScrnGd=T RCrit=4.00D+00 DoMicB=T.
 CutRad = 1000.00    CtRdIn =    0.00    XCrit =  15.00   ICut = 0
 IPart= 1 IRanGd=          0 ScrnBf=T ScrnGd=T RCrit=4.00D+00 DoMicB=T.
 IPart= 3 IRanGd=          0 ScrnBf=T ScrnGd=T RCrit=4.00D+00 DoMicB=T.
 CutRad = 1000.00    CtRdIn =    0.00    XCrit =  15.00   ICut = 0
 CutRad = 1000.00    CtRdIn =    0.00    XCrit =  15.00   ICut = 0
 CutRad = 1000.00    CtRdIn =    0.00    XCrit =  15.00   ICut = 0
 CutRad = 1000.00    CtRdIn =    0.00    XCrit =  15.00   ICut = 0
 CutRad = 1000.00    CtRdIn =    0.00    XCrit =  15.00   ICut = 0
 IPart= 5        10207 of        11754 points in      25 batches and       77 microbatches, Max-NSigAt=      13 Max-NSgAt2=      13
 IPart= 1        12300 of        13568 points in      27 batches and       85 microbatches, Max-NSigAt=      13 Max-NSgAt2=      13
 IPart= 4        11899 of        13090 points in      25 batches and       69 microbatches, Max-NSigAt=      13 Max-NSgAt2=      13
 IPart= 6        10366 of        11594 points in      24 batches and       82 microbatches, Max-NSigAt=      13 Max-NSgAt2=      13
 IPart= 2        11406 of        12534 points in      27 batches and       94 microbatches, Max-NSigAt=      13 Max-NSgAt2=      13
 IPart= 0        11969 of        13566 points in      27 batches and       65 microbatches, Max-NSigAt=      13 Max-NSgAt2=      13
 IPart= 3        12217 of        14280 points in      30 batches and       96 microbatches, Max-NSigAt=      13 Max-NSgAt2=      13
 IPart= 7        11539 of        12876 points in      25 batches and       74 microbatches, Max-NSigAt=      13 Max-NSgAt2=      13
 Polarizability after L703:
                1             2             3
      1  0.482371D+02
      2  0.283418D+01  0.614550D+02
      3 -0.172508D+01 -0.661732D+01  0.569570D+02
 Dipole Derivatives after L703:
               1            2            3            4            5
      1-0.225432D+00 0.256174D-01-0.306089D-02-0.493641D-01-0.168276D+00
      2-0.404525D-01 0.841675D-03-0.131579D+00-0.213008D-01-0.477760D+00
      3 0.161974D+00-0.458604D+00-0.311252D+00-0.496181D-01 0.924656D+00
               6            7            8            9           10
      1 0.866487D-01 0.158007D+00 0.692086D-01 0.700205D-01 0.506209D-02
      2 0.797138D+00-0.391468D-01 0.266088D+00-0.729641D-01-0.171701D-02
      3-0.176827D+00-0.141141D-01-0.212279D+00 0.766402D-01-0.685607D-02
              11           12           13           14           15
      1-0.467928D-01 0.253755D-01-0.754774D-01 0.606884D-01-0.167039D-01
      2 0.432480D-01 0.796581D-01-0.347893D-01-0.619555D-01 0.252720D-02
      3 0.574478D-01-0.378347D-01 0.599537D-01 0.448909D-01 0.838699D-01
              16           17           18           19           20
      1 0.428751D-01-0.252010D-01-0.216494D-01 0.333912D+00 0.157756D+00
      2 0.214812D-01 0.290561D-02-0.973412D-01 0.244974D+00 0.133552D+01
      3 0.157457D-01-0.862574D-01-0.548196D-01-0.284139D+00-0.418020D+00
              21           22           23           24           25
      1-0.219308D+00 0.415129D-01 0.421747D-01 0.298518D-01 0.914504D-01
      2-0.620260D+00-0.412188D-01 0.105188D-01-0.145063D-01 0.881439D-02
      3 0.115051D+01 0.824207D-01-0.155097D+00-0.183045D+00-0.599567D-01
              26           27           28           29           30
      1 0.281105D-01-0.124774D-01-0.263535D-01 0.771378D-01-0.482311D-01
      2 0.794951D-01-0.218384D+00 0.748459D-01-0.989188D-02 0.462518D-01
      3-0.170106D+00-0.144558D-01-0.143862D-03-0.309232D-01 0.405168D-01
              31           32           33           34           35
      1 0.606095D-01-0.288697D-01 0.353619D-01-0.765265D-01-0.495737D-01
      2-0.235489D-01-0.849229D-02 0.225763D-01-0.693390D-01 0.183138D-01
      3 0.479145D-01 0.994569D-01-0.555095D-01-0.358305D-01-0.283114D-01
              36           37           38           39
      1 0.547753D-02-0.280276D+00-0.141980D+00 0.686947D-01
      2-0.118900D-01-0.786027D-01-0.119883D+01 0.218773D+00
      3 0.478939D-01 0.826494D-01 0.433146D+00-0.565682D+00
 Hessian after L703:
                1             2             3             4             5
      1  0.211502D+00
      2 -0.167203D+00  0.189402D+00
      3  0.212024D-01  0.523057D-02  0.588577D-01
      4 -0.142192D+00  0.114230D+00 -0.195311D-01  0.358619D+00
      5  0.114229D+00 -0.119265D+00 -0.192535D-01 -0.596780D-01  0.362424D+00
      6  0.372353D-02 -0.574556D-01 -0.511330D-01 -0.132592D-02  0.150454D+00
      7 -0.540310D-01  0.168806D-01 -0.897550D-02 -0.868127D-01 -0.403635D-01
      8  0.166543D-01 -0.767062D-02  0.121243D-01 -0.149285D-01 -0.503315D-01
      9 -0.154308D-01  0.139905D-01 -0.149888D-02  0.140349D-01 -0.280364D-01
     10  0.538454D-02 -0.440127D-02  0.105871D-02 -0.178001D-01 -0.122154D-01
     11  0.189132D-02 -0.109551D-02 -0.588970D-03 -0.738820D-02 -0.580787D-02
     12  0.722615D-03 -0.173285D-02  0.928762D-03 -0.331095D-02 -0.228809D-02
     13 -0.445438D-02  0.335275D-02 -0.381203D-02 -0.214908D-01  0.789889D-02
     14 -0.836001D-03  0.293666D-02 -0.184637D-02 -0.140971D-01  0.379441D-02
     15 -0.483679D-04  0.539597D-03  0.740937D-03 -0.220901D-02  0.161449D-02
     16  0.322958D-02 -0.887685D-03  0.825089D-03 -0.101425D-02 -0.164144D-01
     17  0.152433D-02  0.159583D-02  0.134495D-02 -0.100188D-03 -0.121192D-01
     18  0.809624D-03  0.424507D-03  0.869619D-03 -0.724611D-03 -0.177619D-02
     19 -0.198235D-01  0.113170D-01 -0.174633D-01 -0.356967D-01  0.234870D-01
     20  0.249199D-01 -0.465443D-01  0.239453D-01 -0.106123D-01 -0.575343D-02
     21 -0.229620D-01  0.522237D-01 -0.207850D-01  0.223105D-01 -0.716479D-01
     22  0.462249D-02 -0.783986D-03 -0.218340D-02  0.475699D-02 -0.126590D-02
     23 -0.371632D-02 -0.845219D-04  0.131393D-02  0.217587D-02  0.830934D-02
     24  0.226942D-02 -0.673883D-02  0.497617D-02  0.258941D-02 -0.778889D-02
     25 -0.120102D-01  0.283192D-01  0.239221D-01 -0.677090D-01 -0.103666D-02
     26  0.183206D-01 -0.394135D-01 -0.208530D-01 -0.548279D-02 -0.930136D-01
     27  0.599514D-02  0.293239D-02  0.645978D-02 -0.105197D-01 -0.577843D-01
     28  0.137696D-02  0.212258D-02  0.233880D-03 -0.171648D-02 -0.412856D-02
     29  0.239027D-02 -0.515252D-02 -0.471787D-02  0.115663D-01 -0.103568D-01
     30  0.301609D-02 -0.774490D-02 -0.483394D-02  0.160846D-01 -0.119899D-01
     31  0.479987D-03  0.233529D-03 -0.185193D-03 -0.221291D-02 -0.102276D-03
     32 -0.155158D-02  0.250735D-02  0.109848D-02  0.545289D-02  0.762226D-02
     33 -0.105741D-02  0.190904D-02  0.222259D-02  0.521784D-02  0.960885D-02
     34  0.137658D-02 -0.429675D-03  0.358798D-03  0.988397D-03  0.277053D-02
     35 -0.758287D-04  0.322503D-02  0.915265D-03 -0.188342D-01 -0.112658D-01
     36  0.886240D-04  0.237769D-02  0.161294D-02 -0.243903D-01 -0.938360D-02
     37  0.453863D-02 -0.274929D-02  0.454956D-02  0.122798D-01 -0.131803D-01
     38 -0.654617D-02  0.195592D-01  0.128690D-02 -0.230335D-02 -0.742363D-01
     39  0.167113D-02 -0.595577D-02  0.158238D-02  0.177436D-02  0.482713D-01
                6             7             8             9            10
      6  0.360712D+00
      7 -0.410133D-02  0.432012D+00
      8 -0.410801D-01 -0.729756D-01  0.527334D+00
      9 -0.583761D-01 -0.263702D-01  0.202371D-02  0.563657D+00
     10  0.194482D-01 -0.531983D-01 -0.300844D-01  0.477895D-01  0.612483D-01
     11  0.967288D-02 -0.283037D-01 -0.127351D+00  0.120420D+00  0.354180D-01
     12  0.323733D-02  0.470788D-01  0.118835D+00 -0.221128D+00 -0.494973D-01
     13  0.843768D-02 -0.176868D+00  0.135281D+00 -0.262835D-01  0.625181D-02
     14  0.335467D-02  0.132033D+00 -0.174561D+00  0.225522D-01  0.120465D-01
     15 -0.874448D-03 -0.241262D-01  0.239404D-01 -0.524051D-01 -0.192796D-01
     16 -0.232879D-01 -0.464727D-01  0.108669D-01  0.126660D-01 -0.591641D-03
     17 -0.958698D-02  0.906932D-02 -0.141932D+00 -0.128259D+00 -0.306654D-03
     18 -0.428118D-02  0.109720D-01 -0.128207D+00 -0.218258D+00  0.103220D-02
     19 -0.769790D-02 -0.153736D-01 -0.337643D-01  0.242311D-01 -0.457093D-02
     20 -0.356800D-01 -0.159902D-01 -0.182218D-01  0.120731D-01 -0.921856D-03
     21 -0.683841D-01  0.460113D-02  0.199284D-01 -0.359334D-02 -0.132953D-02
     22  0.113078D-01  0.170734D-02  0.591865D-02 -0.197716D-02  0.589702D-03
     23  0.711896D-02  0.651870D-03 -0.188460D-02  0.631491D-03  0.208982D-03
     24 -0.232700D-01 -0.776617D-04 -0.299881D-02  0.164291D-02 -0.231059D-03
     25 -0.132923D-01 -0.162926D-02 -0.236432D-01 -0.237739D-01  0.124467D-02
     26 -0.547983D-01 -0.517305D-02 -0.146895D-01 -0.124736D-01  0.748890D-03
     27 -0.132358D+00 -0.205635D-02 -0.804545D-03 -0.554000D-02  0.941922D-03
     28  0.190899D-02 -0.560045D-03  0.593454D-03 -0.307918D-03  0.107736D-03
     29  0.655453D-02  0.738529D-03  0.254225D-03  0.102789D-02 -0.954568D-04
     30  0.682845D-02  0.992123D-04  0.251890D-03  0.798782D-03 -0.233928D-03
     31  0.458489D-03  0.272381D-03  0.589418D-03 -0.431644D-03  0.187592D-03
     32 -0.196266D-01  0.722112D-03  0.136689D-02 -0.133189D-03 -0.144940D-03
     33 -0.210950D-01  0.675869D-03  0.217289D-02  0.330740D-03 -0.591573D-03
     34 -0.489853D-03  0.328239D-03 -0.204451D-03 -0.391181D-03  0.719402D-04
     35 -0.126019D-02  0.682027D-03 -0.218336D-02 -0.380132D-02  0.492879D-03
     36 -0.525230D-02  0.757166D-03 -0.331140D-02 -0.406316D-02  0.950329D-04
     37  0.491058D-02  0.625970D-03  0.569652D-02 -0.375527D-02  0.107468D-02
     38  0.423327D-01  0.202884D-02  0.987092D-02 -0.155156D-04 -0.745377D-03
     39 -0.575386D-02  0.152313D-02 -0.287441D-02 -0.156645D-02  0.797483D-03
               11            12            13            14            15
     11  0.134334D+00
     12 -0.129862D+00  0.237634D+00
     13 -0.533731D-02  0.576651D-03  0.191610D+00
     14 -0.112257D-01  0.686132D-03 -0.142963D+00  0.189276D+00
     15  0.175362D-01 -0.231175D-02  0.260447D-01 -0.261943D-01  0.502263D-01
     16  0.459716D-02  0.486908D-02  0.305265D-03  0.118897D-01  0.188450D-01
     17  0.119587D-01  0.144494D-01 -0.638187D-03 -0.116532D-01 -0.167427D-01
     18 -0.165227D-01 -0.196313D-01  0.540282D-03  0.448050D-02  0.531693D-02
     19 -0.181997D-02 -0.630103D-03  0.445157D-02  0.263867D-02  0.126879D-02
     20 -0.115182D-02  0.923847D-03  0.516736D-02  0.140604D-02 -0.365842D-03
     21 -0.102782D-02 -0.497823D-03 -0.638993D-02 -0.291567D-02 -0.769427D-03
     22  0.417273D-03  0.154288D-04 -0.167573D-02 -0.737894D-03 -0.445067D-04
     23 -0.849383D-04 -0.130999D-03  0.929003D-03  0.570452D-03  0.172492D-03
     24  0.244464D-03  0.334917D-03  0.793016D-03  0.414490D-03  0.114016D-03
     25  0.587133D-03  0.247628D-04  0.244533D-02  0.120276D-02  0.318429D-05
     26 -0.130294D-03 -0.271911D-03  0.248548D-02  0.767386D-03  0.260918D-03
     27  0.788143D-03  0.788119D-03 -0.144332D-02 -0.774233D-03 -0.241031D-03
     28 -0.553596D-04  0.146979D-04 -0.528810D-04 -0.721065D-03 -0.321441D-03
     29 -0.960754D-04 -0.123165D-03 -0.763940D-03 -0.958204D-04 -0.493492D-03
     30 -0.320415D-04 -0.515030D-04 -0.323529D-03 -0.493223D-03  0.125423D-04
     31 -0.232720D-03 -0.156886D-03 -0.947850D-04  0.237215D-04 -0.141663D-03
     32  0.111450D-04  0.122388D-03 -0.278999D-03 -0.167496D-03  0.625872D-04
     33 -0.705600D-03  0.211758D-03 -0.406148D-03 -0.245128D-03 -0.102829D-03
     34  0.169528D-03  0.834248D-04  0.424371D-03  0.103720D-03  0.232223D-03
     35  0.331428D-03  0.799186D-04 -0.168546D-03  0.243111D-03 -0.288002D-04
     36 -0.211772D-03  0.119449D-03  0.490262D-03  0.312686D-03 -0.263249D-05
     37  0.568985D-04  0.209824D-03 -0.852314D-03 -0.582699D-03 -0.223050D-03
     38  0.308158D-03 -0.687696D-03 -0.496451D-02 -0.129078D-02 -0.301469D-03
     39  0.289424D-03  0.365858D-03  0.177584D-02  0.668199D-03  0.296532D-03
               16            17            18            19            20
     16  0.491775D-01
     17 -0.664437D-02  0.152839D+00
     18 -0.124203D-01  0.140599D+00  0.234396D+00
     19  0.847729D-03  0.102112D-02  0.754862D-03  0.186963D+00
     20 -0.152781D-02 -0.930268D-03  0.160683D-02  0.138040D-01  0.100475D+01
     21 -0.156034D-02 -0.322045D-02 -0.501637D-04 -0.355605D-01  0.577015D-01
     22  0.529529D-05 -0.268906D-03  0.163714D-03 -0.557269D-01  0.190249D-01
     23  0.319496D-04  0.299132D-03  0.171396D-04  0.149363D-01 -0.124817D+00
     24  0.801653D-03  0.111228D-02  0.429296D-03  0.240031D-01 -0.102291D+00
     25 -0.539684D-02 -0.316675D-02 -0.148278D-02 -0.367836D-02  0.303170D-04
     26 -0.167947D-02 -0.435927D-03 -0.869441D-04 -0.498223D-02  0.856470D-02
     27  0.192614D-03  0.487838D-03  0.650049D-03  0.547658D-02 -0.118457D-01
     28  0.149016D-03  0.404774D-04  0.183152D-03  0.891389D-03  0.270805D-02
     29 -0.152327D-03  0.363825D-03 -0.677313D-04 -0.190721D-03 -0.193451D-02
     30  0.131405D-03  0.247011D-03  0.291681D-04  0.234117D-03 -0.138031D-02
     31 -0.441161D-04  0.617909D-04  0.128677D-03  0.693192D-03  0.117592D-03
     32  0.171345D-03  0.114823D-03  0.179792D-03  0.459925D-03 -0.448968D-02
     33  0.687352D-04 -0.185520D-03  0.452357D-03  0.713597D-03 -0.277370D-02
     34  0.171356D-03 -0.744722D-04  0.129075D-03 -0.421268D-03 -0.179429D-02
     35 -0.120049D-02 -0.309438D-03 -0.356617D-03  0.328283D-03 -0.176535D-03
     36 -0.132807D-02 -0.102325D-02 -0.575898D-04 -0.156324D-02 -0.230308D-02
     37 -0.366252D-03 -0.517511D-03 -0.858772D-04 -0.585559D-01 -0.349258D-01
     38  0.949571D-03  0.209036D-03 -0.289939D-03 -0.272351D-01 -0.810697D+00
     39  0.197052D-03  0.777530D-03  0.134709D-03  0.623298D-02  0.603892D-01
               21            22            23            24            25
     21  0.424224D+00
     22  0.241420D-01  0.267671D-01
     23 -0.106241D+00 -0.182326D-01  0.161868D+00
     24 -0.195845D+00 -0.316913D-01  0.119698D+00  0.198587D+00
     25  0.990542D-02  0.153022D-02 -0.108329D-02  0.104682D-02  0.580351D+00
     26  0.158727D-01  0.183084D-03 -0.236390D-02  0.318905D-02 -0.421839D-02
     27 -0.356644D-01 -0.273420D-03  0.287255D-02 -0.248936D-02  0.458126D-02
     28 -0.153909D-02 -0.299705D-03 -0.300990D-04  0.187699D-03 -0.164836D+00
     29  0.154866D-02  0.808291D-04 -0.913988D-04 -0.180941D-03  0.128541D+00
     30  0.192729D-02  0.273312D-03 -0.125541D-03  0.148532D-03 -0.296733D-01
     31 -0.559607D-03  0.160258D-04  0.948456D-04  0.126859D-04 -0.608947D-01
     32 -0.374226D-02  0.191466D-03  0.725971D-03 -0.106064D-02 -0.303988D-01
     33 -0.380948D-02  0.126406D-03  0.679068D-03 -0.100639D-02  0.525101D-01
     34  0.723519D-03  0.431726D-04  0.391235D-04 -0.180208D-03 -0.268432D+00
     35  0.353972D-04 -0.361044D-04 -0.151487D-04  0.809415D-04 -0.981150D-01
     36  0.127192D-02  0.139212D-03 -0.435712D-04  0.470507D-04 -0.236682D-01
     37  0.821848D-02  0.176640D-01  0.399437D-02  0.476457D-03 -0.985044D-03
     38  0.414845D-01 -0.449087D-02 -0.424309D-01 -0.368040D-02  0.298176D-02
     39 -0.980241D-01  0.184066D-05 -0.259633D-01  0.163311D-01 -0.103206D-03
               26            27            28            29            30
     26  0.527088D+00
     27 -0.562123D-01  0.501250D+00
     28  0.129319D+00 -0.274484D-01  0.176570D+00
     29 -0.188601D+00  0.271862D-01 -0.142358D+00  0.203273D+00
     30  0.289357D-01 -0.546988D-01  0.312815D-01 -0.306132D-01  0.553153D-01
     31 -0.308819D-01  0.515165D-01  0.590914D-02  0.960934D-02 -0.192530D-01
     32 -0.110536D+00  0.110802D+00 -0.718562D-02 -0.106918D-01  0.187498D-01
     33  0.110247D+00 -0.231881D+00  0.382466D-03  0.129297D-02 -0.277340D-02
     34 -0.100340D+00 -0.261316D-01 -0.178163D-01 -0.898565D-02 -0.160230D-02
     35 -0.905022D-01 -0.115768D-01  0.219053D-01  0.112343D-01  0.256416D-02
     36 -0.119611D-01 -0.488770D-01 -0.407940D-02 -0.193204D-02 -0.145223D-02
     37  0.170094D-02 -0.831291D-03  0.276788D-03 -0.380332D-03 -0.342498D-04
     38  0.326624D-02 -0.607157D-02 -0.221036D-02  0.189447D-02  0.163053D-02
     39 -0.184854D-02  0.260178D-02 -0.496130D-03  0.518183D-03 -0.125018D-02
               31            32            33            34            35
     31  0.610867D-01
     32  0.345593D-01  0.119248D+00
     33 -0.567573D-01 -0.118563D+00  0.252354D+00
     34 -0.559571D-02 -0.177457D-02 -0.630893D-03  0.288338D+00
     35 -0.139787D-01 -0.676010D-02 -0.236304D-02  0.109154D+00  0.960406D-01
     36  0.254922D-01  0.104403D-01  0.394976D-02  0.274618D-01  0.155394D-01
     37  0.197162D-03 -0.222524D-03 -0.251724D-03  0.523190D-03 -0.153565D-03
     38 -0.939511D-04  0.104889D-02 -0.107412D-02  0.136628D-02  0.138121D-03
     39 -0.123288D-03  0.167011D-02  0.114666D-02  0.437216D-03  0.171663D-03
               36            37            38            39
     36  0.525113D-01
     37  0.504972D-03  0.235793D-01
     38  0.149976D-02  0.412633D-01  0.892360D+00
     39  0.192498D-03 -0.136884D-01 -0.761136D-01  0.839430D-01
 FrcOut:
 IF    =   899 IFX   =   938 IFXYZ =   977
 IFFX  =  1016 IFFFX =  1796 IFLen =    39
 IFFLen=   780 IFFFLn=     0 IEDerv=  1796
 LEDerv=  1925 IFroze=  3725 ICStrt= 49164
 DipoleDeriv   =-2.25431550D-01-4.04524736D-02 1.61973993D-01
                 2.56173918D-02 8.41675432D-04-4.58604284D-01
                -3.06089051D-03-1.31578540D-01-3.11251911D-01
                -4.93641459D-02-2.13007990D-02-4.96180699D-02
                -1.68276143D-01-4.77759952D-01 9.24655838D-01
                 8.66487105D-02 7.97138315D-01-1.76827185D-01
                 1.58006811D-01-3.91467720D-02-1.41140912D-02
                 6.92086108D-02 2.66087904D-01-2.12278617D-01
                 7.00204509D-02-7.29640856D-02 7.66402007D-02
                 5.06209062D-03-1.71700929D-03-6.85607205D-03
                -4.67928203D-02 4.32479719D-02 5.74478118D-02
                 2.53755210D-02 7.96581498D-02-3.78347288D-02
                -7.54774044D-02-3.47892822D-02 5.99536854D-02
                 6.06884375D-02-6.19554879D-02 4.48909469D-02
                -1.67039128D-02 2.52719697D-03 8.38698887D-02
                 4.28750703D-02 2.14812155D-02 1.57457446D-02
                -2.52009771D-02 2.90561444D-03-8.62574312D-02
                -2.16493879D-02-9.73411969D-02-5.48196432D-02
                 3.33912359D-01 2.44974168D-01-2.84138741D-01
                 1.57755744D-01 1.33552023D+00-4.18019751D-01
                -2.19307934D-01-6.20260303D-01 1.15050519D+00
                 4.15129228D-02-4.12188418D-02 8.24207311D-02
                 4.21746575D-02 1.05188327D-02-1.55096719D-01
                 2.98517814D-02-1.45062798D-02-1.83045304D-01
                 9.14503746D-02 8.81439449D-03-5.99566952D-02
                 2.81104785D-02 7.94951491D-02-1.70105974D-01
                -1.24773768D-02-2.18384441D-01-1.44558022D-02
                -2.63534739D-02 7.48458828D-02-1.43862492D-04
                 7.71378210D-02-9.89188190D-03-3.09231503D-02
                -4.82310796D-02 4.62518070D-02 4.05167578D-02
                 6.06095334D-02-2.35488530D-02 4.79144611D-02
                -2.88697074D-02-8.49228843D-03 9.94568775D-02
                 3.53619269D-02 2.25762627D-02-5.55094900D-02
                -7.65264895D-02-6.93389760D-02-3.58304832D-02
                -4.95736641D-02 1.83137929D-02-2.83113727D-02
                 5.47753272D-03-1.18900461D-02 4.78939008D-02
                -2.80276098D-01-7.86026533D-02 8.26493998D-02
                -1.41979829D-01-1.19883156D+00 4.33145824D-01
                 6.86946579D-02 2.18773160D-01-5.65681872D-01
 Full mass-weighted force constant matrix:
 Low frequencies ---   -9.0052   -7.1286   -0.0004    0.0007    0.0009   13.0422
 Low frequencies ---   71.5150  173.2264  210.3728
 Dipole derivatives wrt mode   1: -2.47061D+00  4.45817D-01 -8.40370D-01
 Vibrational polarizability contributions from mode   1      32.1458587       1.0467160       3.7192642
 Vibrational hyperpolarizability contributions from mode   1       0.0000000       0.0000000       0.0000000
 Dipole derivatives wrt mode   2: -4.36299D-01 -3.57213D-01  5.98851D-01
 Vibrational polarizability contributions from mode   2       0.1707248       0.1144412       0.3216374
 Vibrational hyperpolarizability contributions from mode   2       0.0000000       0.0000000       0.0000000
 Dipole derivatives wrt mode   3:  3.33281D-01 -1.77041D+00  2.08058D+00
 Vibrational polarizability contributions from mode   3       0.0675523       1.9061984       2.6326240
 Vibrational hyperpolarizability contributions from mode   3       0.0000000       0.0000000       0.0000000
 Dipole derivatives wrt mode   4: -8.37203D-01  8.69916D-01  8.42501D-01
 Vibrational polarizability contributions from mode   4       0.3082333       0.3327920       0.3121473
 Vibrational hyperpolarizability contributions from mode   4       0.0000000       0.0000000       0.0000000
 Dipole derivatives wrt mode   5: -5.20629D-01 -3.12123D+00  4.51376D+00
 Vibrational polarizability contributions from mode   5       0.0941959       3.3855356       7.0802938
 Vibrational hyperpolarizability contributions from mode   5       0.0000000       0.0000000       0.0000000
 Dipole derivatives wrt mode   6: -1.34072D+00  1.02859D-01 -6.60931D-01
 Vibrational polarizability contributions from mode   6       0.4427175       0.0026057       0.1075880
 Vibrational hyperpolarizability contributions from mode   6       0.0000000       0.0000000       0.0000000
 Dipole derivatives wrt mode   7: -1.93262D+00 -1.09338D-01  1.35122D-01
 Vibrational polarizability contributions from mode   7       0.6527656       0.0020893       0.0031910
 Vibrational hyperpolarizability contributions from mode   7       0.0000000       0.0000000       0.0000000
 Dipole derivatives wrt mode   8: -2.00532D-01 -9.98828D-02 -4.59526D+00
 Vibrational polarizability contributions from mode   8       0.0051567       0.0012793       2.7078177
 Vibrational hyperpolarizability contributions from mode   8       0.0000000       0.0000000       0.0000000
 Dipole derivatives wrt mode   9: -3.28700D-01 -4.61939D+00  2.19235D+00
 Vibrational polarizability contributions from mode   9       0.0101809       2.0107319       0.4529029
 Vibrational hyperpolarizability contributions from mode   9       0.0000000       0.0000000       0.0000000
 Dipole derivatives wrt mode  10: -2.87330D+00 -6.35159D+00  9.78814D+00
 Vibrational polarizability contributions from mode  10       0.4492784       2.1954214       5.2137907
 Vibrational hyperpolarizability contributions from mode  10       0.0000000       0.0000000       0.0000000
 Dipole derivatives wrt mode  11: -2.41517D+00 -4.02099D+00  3.58728D+00
 Vibrational polarizability contributions from mode  11       0.2624072       0.7273539       0.5789074
 Vibrational hyperpolarizability contributions from mode  11       0.0000000       0.0000000       0.0000000
 Dipole derivatives wrt mode  12: -6.34489D-01 -2.83675D+00  1.96604D+00
 Vibrational polarizability contributions from mode  12       0.0134483       0.2688204       0.1291226
 Vibrational hyperpolarizability contributions from mode  12       0.0000000       0.0000000       0.0000000
 Dipole derivatives wrt mode  13:  3.74704D-01  8.11043D-01 -4.02909D-03
 Vibrational polarizability contributions from mode  13       0.0043706       0.0204764       0.0000005
 Vibrational hyperpolarizability contributions from mode  13       0.0000000       0.0000000       0.0000000
 Dipole derivatives wrt mode  14:  2.23634D-01 -6.66526D-01  1.53658D+00
 Vibrational polarizability contributions from mode  14       0.0013969       0.0124089       0.0659491
 Vibrational hyperpolarizability contributions from mode  14       0.0000000       0.0000000       0.0000000
 Dipole derivatives wrt mode  15:  3.00457D-01 -3.58557D-01  2.61607D-01
 Vibrational polarizability contributions from mode  15       0.0023542       0.0033527       0.0017848
 Vibrational hyperpolarizability contributions from mode  15       0.0000000       0.0000000       0.0000000
 Dipole derivatives wrt mode  16:  1.02312D-01  3.46433D+00 -2.26153D+00
 Vibrational polarizability contributions from mode  16       0.0002448       0.2806313       0.1195916
 Vibrational hyperpolarizability contributions from mode  16       0.0000000       0.0000000       0.0000000
 Dipole derivatives wrt mode  17:  6.53024D-01  2.33779D+00 -2.70705D-01
 Vibrational polarizability contributions from mode  17       0.0089159       0.1142663       0.0015321
 Vibrational hyperpolarizability contributions from mode  17       0.0000000       0.0000000       0.0000000
 Dipole derivatives wrt mode  18: -1.03548D+00  1.77781D+00  3.00005D+00
 Vibrational polarizability contributions from mode  18       0.0180311       0.0531507       0.1513546
 Vibrational hyperpolarizability contributions from mode  18       0.0000000       0.0000000       0.0000000
 Dipole derivatives wrt mode  19: -1.34276D-01  3.93814D-01  3.61060D+00
 Vibrational polarizability contributions from mode  19       0.0002700       0.0023221       0.1951922
 Vibrational hyperpolarizability contributions from mode  19       0.0000000       0.0000000       0.0000000
 Dipole derivatives wrt mode  20:  2.53733D-01 -8.69049D-01 -2.39402D+00
 Vibrational polarizability contributions from mode  20       0.0009132       0.0107133       0.0812996
 Vibrational hyperpolarizability contributions from mode  20       0.0000000       0.0000000       0.0000000
 Dipole derivatives wrt mode  21:  4.02516D-01 -2.50960D+00 -2.67110D+00
 Vibrational polarizability contributions from mode  21       0.0021866       0.0849998       0.0962923
 Vibrational hyperpolarizability contributions from mode  21       0.0000000       0.0000000       0.0000000
 Dipole derivatives wrt mode  22:  8.58131D-01 -1.47880D-01  1.28025D+00
 Vibrational polarizability contributions from mode  22       0.0091687       0.0002723       0.0204073
 Vibrational hyperpolarizability contributions from mode  22       0.0000000       0.0000000       0.0000000
 Dipole derivatives wrt mode  23:  1.67534D+00  1.00047D+00  1.36285D-01
 Vibrational polarizability contributions from mode  23       0.0344568       0.0122878       0.0002280
 Vibrational hyperpolarizability contributions from mode  23       0.0000000       0.0000000       0.0000000
 Dipole derivatives wrt mode  24:  1.04446D+00  6.32016D-01 -2.10999D+00
 Vibrational polarizability contributions from mode  24       0.0132309       0.0048446       0.0539963
 Vibrational hyperpolarizability contributions from mode  24       0.0000000       0.0000000       0.0000000
 Dipole derivatives wrt mode  25:  1.28220D+00 -3.89801D+00  2.35210D+00
 Vibrational polarizability contributions from mode  25       0.0197053       0.1821189       0.0663101
 Vibrational hyperpolarizability contributions from mode  25       0.0000000       0.0000000       0.0000000
 Dipole derivatives wrt mode  26:  2.20332D+00  1.49453D+01 -6.70107D+00
 Vibrational polarizability contributions from mode  26       0.0389839       1.7936620       0.3605936
 Vibrational hyperpolarizability contributions from mode  26       0.0000000       0.0000000       0.0000000
 Dipole derivatives wrt mode  27:  1.66025D+00 -1.10203D+00 -8.83148D+00
 Vibrational polarizability contributions from mode  27       0.0085914       0.0037853       0.2431001
 Vibrational hyperpolarizability contributions from mode  27       0.0000000       0.0000000       0.0000000
 Dipole derivatives wrt mode  28:  3.03617D+00  1.95299D+00  1.23212D+00
 Vibrational polarizability contributions from mode  28       0.0268840       0.0111235       0.0044274
 Vibrational hyperpolarizability contributions from mode  28       0.0000000       0.0000000       0.0000000
 Dipole derivatives wrt mode  29: -1.52602D+00  7.50218D-01  2.66821D+00
 Vibrational polarizability contributions from mode  29       0.0067592       0.0016336       0.0206640
 Vibrational hyperpolarizability contributions from mode  29       0.0000000       0.0000000       0.0000000
 Dipole derivatives wrt mode  30: -2.49553D-01 -1.45789D+00  6.89277D-01
 Vibrational polarizability contributions from mode  30       0.0001729       0.0058996       0.0013188
 Vibrational hyperpolarizability contributions from mode  30       0.0000000       0.0000000       0.0000000
 Dipole derivatives wrt mode  31: -9.73855D-02  2.80367D+00 -2.86153D+00
 Vibrational polarizability contributions from mode  31       0.0000262       0.0217409       0.0226475
 Vibrational hyperpolarizability contributions from mode  31       0.0000000       0.0000000       0.0000000
 Dipole derivatives wrt mode  32:  3.43318D+00  1.03716D+00  1.36873D+00
 Vibrational polarizability contributions from mode  32       0.0325131       0.0029673       0.0051677
 Vibrational hyperpolarizability contributions from mode  32       0.0000000       0.0000000       0.0000000
 Dipole derivatives wrt mode  33:  2.37415D+00 -2.33511D+00 -2.65139D+00
 Vibrational polarizability contributions from mode  33       0.0155261       0.0150196       0.0193638
 Vibrational hyperpolarizability contributions from mode  33       0.0000000       0.0000000       0.0000000
 Diagonal vibrational polarizability:
       34.8672213      14.6316623      24.7905083
 Harmonic frequencies (cm**-1), IR intensities (KM/Mole), Raman scattering
 activities (A**4/AMU), depolarization ratios for plane and unpolarized
 incident light, reduced masses (AMU), force constants (mDyne/A),
 and normal coordinates:
                           1         2         3         4         5
                           A         A         A         A         A
       Frequencies ---    71.4840  173.2217  210.3572  247.3759  278.2782
    Reduced masses ---     3.9082    1.0665    1.1729    3.6366    3.0910
   Force constants ---     0.0118    0.0189    0.0306    0.1311    0.1410
    IR Intensities ---     7.0089    0.6766    7.5743    2.1675   30.3872
 Coord Atom Element:
   1     1     8          0.06023   0.00502  -0.05716   0.11273  -0.13404
   2     1     8          0.15302   0.01803  -0.03986   0.14709  -0.08473
   3     1     8         -0.12045  -0.01681   0.03730  -0.05056   0.02671
   1     2     6         -0.10809  -0.00879   0.00608  -0.00390   0.03170
   2     2     6         -0.01855   0.00880   0.04111   0.00288   0.13638
   3     2     6          0.00889   0.00333  -0.02464   0.10105  -0.06489
   1     3     6         -0.04824   0.00826   0.02335  -0.04740   0.10129
   2     3     6         -0.13238  -0.03272  -0.02311   0.15900  -0.10113
   3     3     6          0.10862   0.03241   0.00896  -0.06443   0.09087
   1     4     1          0.02955   0.20081   0.27041  -0.14631   0.13022
[...]
     32  0.171396D-04 -0.869441D-04 -0.677313D-04  0.179792D-03 -0.356617D-03
     33 -0.106241D+00  0.158727D-01  0.154866D-02 -0.374226D-02  0.353972D-04
     34  0.119698D+00  0.318905D-02 -0.180941D-03 -0.106064D-02  0.809415D-04
     35  0.287255D-02 -0.562123D-01  0.271862D-01  0.110802D+00 -0.115768D-01
     36 -0.125541D-03  0.289357D-01 -0.306132D-01  0.187498D-01  0.256416D-02
     37  0.679068D-03  0.110247D+00  0.129297D-02 -0.118563D+00 -0.236304D-02
     38 -0.435712D-04 -0.119611D-01 -0.193204D-02  0.104403D-01  0.155394D-01
     39 -0.259633D-01 -0.184854D-02  0.518183D-03  0.167011D-02  0.171663D-03
               26            27            28            29            30
     26  0.892360D+00
     27  0.128690D-02  0.588577D-01
     28  0.423327D-01 -0.511330D-01  0.360712D+00
     29 -0.155156D-04 -0.149888D-02 -0.583761D-01  0.563657D+00
     30 -0.687696D-03  0.928762D-03  0.323733D-02 -0.221128D+00  0.237634D+00
     31 -0.301469D-03  0.740937D-03 -0.874448D-03 -0.524051D-01 -0.231175D-02
     32 -0.289939D-03  0.869619D-03 -0.428118D-02 -0.218258D+00 -0.196313D-01
     33  0.414845D-01 -0.207850D-01 -0.683841D-01 -0.359334D-02 -0.497823D-03
     34 -0.368040D-02  0.497617D-02 -0.232700D-01  0.164291D-02  0.334917D-03
     35 -0.607157D-02  0.645978D-02 -0.132358D+00 -0.554000D-02  0.788119D-03
     36  0.163053D-02 -0.483394D-02  0.682845D-02  0.798782D-03 -0.515030D-04
     37 -0.107412D-02  0.222259D-02 -0.210950D-01  0.330740D-03  0.211758D-03
     38  0.149976D-02  0.161294D-02 -0.525230D-02 -0.406316D-02  0.119449D-03
     39 -0.761136D-01  0.158238D-02 -0.575386D-02 -0.156645D-02  0.365858D-03
               31            32            33            34            35
     31  0.502263D-01
     32  0.531693D-02  0.234396D+00
     33 -0.769427D-03 -0.501637D-04  0.424224D+00
     34  0.114016D-03  0.429296D-03 -0.195845D+00  0.198587D+00
     35 -0.241031D-03  0.650049D-03 -0.356644D-01 -0.248936D-02  0.501250D+00
     36  0.125423D-04  0.291681D-04  0.192729D-02  0.148532D-03 -0.546988D-01
     37 -0.102829D-03  0.452357D-03 -0.380948D-02 -0.100639D-02 -0.231881D+00
     38 -0.263249D-05 -0.575898D-04  0.127192D-02  0.470507D-04 -0.488770D-01
     39  0.296532D-03  0.134709D-03 -0.980241D-01  0.163311D-01  0.260178D-02
               36            37            38            39
     36  0.553153D-01
     37 -0.277340D-02  0.252354D+00
     38 -0.145223D-02  0.394976D-02  0.525113D-01
     39 -0.125018D-02  0.114666D-02  0.192498D-03  0.839430D-01
 Final forces over variables, Energy=-3.07094802D+02:
  4.99607333D-06-1.73390861D-06-4.98828527D-06-1.67862506D-06
 -6.67367495D-06-5.11017898D-06 3.67370570D-06-5.52191614D-06
  4.93275930D-06 1.53002702D-06 2.61487460D-06 8.25997774D-06
 -3.00828679D-07 2.00696773D-06-1.56789114D-05 1.68648228D-05
  2.18395130D-06 5.09255846D-06 2.01274026D-06-6.33304438D-06
  1.29689691D-06-1.71042696D-06 2.98562443D-06-3.27231553D-06
 -2.13875269D-06-3.31011113D-06-4.09663475D-06 1.51444488D-05
 -7.59410887D-06 3.25645512D-06 2.22752502D-06-2.72410526D-06
 -8.14847207D-06-2.75774097D-06-5.85675713D-06 5.12918473D-06
  3.59723809D-06-1.53106702D-06 3.35403435D-06

 GradGradGradGradGradGradGradGradGradGradGradGradGradGradGradGradGradGrad
 Berny optimization.
 Search for a local minimum.
 Step number   1 out of a maximum of   2
 All quantities printed in internal units (Hartrees-Bohrs-Radians)
 Second derivative matrix not updated -- analytic derivatives used.
     Eigenvalues ---    0.00083   0.00159   0.00210   0.00943   0.00990
     Eigenvalues ---    0.01473   0.02199   0.03738   0.04985   0.05439
     Eigenvalues ---    0.05966   0.06311   0.07219   0.10093   0.10393
     Eigenvalues ---    0.10763   0.11316   0.15514   0.18620   0.19396
     Eigenvalues ---    0.21710   0.24916   0.26590   0.39438   0.55089
     Eigenvalues ---    0.56785   0.65013   0.73561   0.77783   0.79199
     Eigenvalues ---    0.80571   0.84512   1.77965
 Angle between quadratic step and forces=  72.93 degrees.
 Linear search not attempted -- first point.
 TrRot=  0.000065 -0.000022  0.000089 -0.000005 -0.000027 -0.000005
 Variable       Old X    -DE/DX   Delta X   Delta X   Delta X     New X
                                 (Linear)    (Quad)   (Total)
    X1        0.29265   0.00000   0.00000   0.00043   0.00049   0.29314
    Y1        0.75451   0.00000   0.00000   0.00045   0.00043   0.75494
    Z1        0.41688   0.00000   0.00000  -0.00010   0.00000   0.41688
    X2       -1.52575   0.00000   0.00000  -0.00012  -0.00004  -1.52579
    Y2        2.52521  -0.00002   0.00000  -0.00024  -0.00025   2.52496
    Z2        0.26473   0.00002   0.00000   0.00024   0.00029   0.26502
    X3       -4.14315   0.00000   0.00000  -0.00014  -0.00006  -4.14321
    Y3        1.24266   0.00002   0.00000   0.00008   0.00010   1.24276
    Z3       -0.19983  -0.00001   0.00000  -0.00012  -0.00014  -0.19998
    X4       -4.60177   0.00000   0.00000  -0.00049  -0.00047  -4.60224
    Y4        0.10435   0.00000   0.00000   0.00018   0.00020   0.10455
    Z4        1.45830   0.00000   0.00000  -0.00012  -0.00016   1.45813
    X5       -5.61066  -0.00001   0.00000  -0.00013  -0.00003  -5.61069
    Y5        2.66892   0.00001   0.00000   0.00007   0.00010   2.66902
    Z5       -0.46558   0.00000   0.00000  -0.00039  -0.00046  -0.46603
    X6       -4.06026  -0.00001   0.00000  -0.00003   0.00009  -4.06018
    Y6       -0.00109   0.00000   0.00000  -0.00005  -0.00004  -0.00113
    Z6       -1.84191   0.00000   0.00000  -0.00003  -0.00005  -1.84196
    X7       -0.97382   0.00000   0.00000  -0.00005   0.00011  -0.97370
    Y7        3.89772  -0.00001   0.00000  -0.00015  -0.00017   3.89755
    Z7       -2.34476  -0.00001   0.00000  -0.00004   0.00003  -2.34474
    X8       -0.70427  -0.00001   0.00000  -0.00091  -0.00071  -0.70498
    Y8        2.54835   0.00000   0.00000  -0.00012  -0.00013   2.54822
    Z8       -3.91782   0.00000   0.00000  -0.00018  -0.00011  -3.91793
    X9       -1.57544   0.00000   0.00000  -0.00008  -0.00004  -1.57547
    Y9        4.40173   0.00000   0.00000  -0.00001  -0.00002   4.40171
    Z9        2.46347  -0.00001   0.00000   0.00004   0.00008   2.46355
   X10       -2.94789   0.00000   0.00000  -0.00067  -0.00061  -2.94850
   Y10        5.91174   0.00000   0.00000  -0.00045  -0.00044   5.91130
   Z10        2.16007   0.00001   0.00000   0.00045   0.00046   2.16053
   X11       -2.05559   0.00000   0.00000   0.00077   0.00075  -2.05484
   Y11        3.39596   0.00000   0.00000  -0.00008  -0.00008   3.39588
   Z11        4.20094   0.00000   0.00000   0.00025   0.00029   4.20123
   X12        0.28742   0.00001   0.00000  -0.00024  -0.00020   0.28723
   Y12        5.25314   0.00000   0.00000   0.00053   0.00050   5.25364
   Z12        2.69730   0.00000   0.00000  -0.00058  -0.00049   2.69682
   X13       -0.86113   0.00000   0.00000   0.00052   0.00071  -0.86042
   Y13        6.13637   0.00000   0.00000  -0.00020  -0.00021   6.13616
   Z13       -2.56835   0.00000   0.00000   0.00021   0.00027  -2.56808
         Item               Value     Threshold  Converged?
 Maximum Force            0.000017     0.000450     YES
 RMS     Force            0.000006     0.000300     YES
 Maximum Displacement     0.000748     0.001800     YES
 RMS     Displacement     0.000331     0.001200     YES
 Predicted change in Energy=-1.047932D-08
 Optimization completed.
    -- Stationary point found.
 GradGradGradGradGradGradGradGradGradGradGradGradGradGradGradGradGradGrad


 Test job not archived.
 1\1\GINC-NODE06\Freq\UB3LYP\CBSB7\C4H7O2(2)\NYEE\24-Jul-2014\0\\# freq
  nosymm b3lyp/cbsb7 iop(7/33=1)\\Title Card Required\\0,2\O,0.154864,0
 .39927,0.220604\C,-0.807392,1.336284,0.14009\C,-2.192462,0.657587,-0.1
 05748\H,-2.435152,0.055218,0.771697\H,-2.969035,1.412332,-0.246373\H,-
 2.148598,-0.000576,-0.974698\C,-0.515321,2.062584,-1.240796\H,-0.37268
 5,1.348531,-2.073222\C,-0.833685,2.329295,1.30361\H,-1.559957,3.128356
 ,1.143058\H,-1.087769,1.797063,2.223042\H,0.152097,2.77984,1.427351\O,
 -0.455693,3.247227,-1.359113\\Version=AM64L-G03RevD.01\HF=-307.0948021
 \S2=0.756223\S2-1=0.\S2A=0.750019\RMSD=7.900e-09\RMSF=6.011e-06\ZeroPo
 int=0.1022272\Thermal=0.1095783\Dipole=-0.7639329,-0.2287274,-0.050628
 7\DipoleDeriv=-0.2254316,-0.0404525,0.161974,0.0256174,0.0008417,-0.45
 86043,-0.0030609,-0.1315785,-0.3112519,-0.0493641,-0.0213008,-0.049618
 1,-0.1682761,-0.47776,0.9246558,0.0866487,0.7971383,-0.1768272,0.15800
 68,-0.0391468,-0.0141141,0.0692086,0.2660879,-0.2122786,0.0700205,-0.0
 729641,0.0766402,0.0050621,-0.001717,-0.0068561,-0.0467928,0.043248,0.
 0574478,0.0253755,0.0796581,-0.0378347,-0.0754774,-0.0347893,0.0599537
 ,0.0606884,-0.0619555,0.0448909,-0.0167039,0.0025272,0.0838699,0.04287
 51,0.0214812,0.0157457,-0.025201,0.0029056,-0.0862574,-0.0216494,-0.09
 73412,-0.0548196,0.3339124,0.2449742,-0.2841387,0.1577557,1.3355202,-0
 .4180198,-0.2193079,-0.6202603,1.1505052,0.0415129,-0.0412188,0.082420
 7,0.0421747,0.0105188,-0.1550967,0.0298518,-0.0145063,-0.1830453,0.091
 4504,0.0088144,-0.0599567,0.0281105,0.0794951,-0.170106,-0.0124774,-0.
 2183844,-0.0144558,-0.0263535,0.0748459,-0.0001439,0.0771378,-0.009891
 9,-0.0309232,-0.0482311,0.0462518,0.0405168,0.0606095,-0.0235489,0.047
 9145,-0.0288697,-0.0084923,0.0994569,0.0353619,0.0225763,-0.0555095,-0
 .0765265,-0.069339,-0.0358305,-0.0495737,0.0183138,-0.0283114,0.005477
 5,-0.01189,0.0478939,-0.2802761,-0.0786027,0.0826494,-0.1419798,-1.198
 8316,0.4331458,0.0686947,0.2187732,-0.5656819\Polar=48.2370845,2.83418
 03,61.4549718,-1.7250758,-6.6173189,56.9570414\PG=C01 [X(C4H7O2)]\NIma
 g=0\\0.21150191,-0.16720339,0.18940221,0.02120242,0.00523057,0.0588577
 3,-0.14219153,0.11422957,-0.01953114,0.35861927,0.11422857,-0.11926526
 ,-0.01925353,-0.05967800,0.36242376,0.00372353,-0.05745563,-0.05113305
 ,-0.00132592,0.15045411,0.36071250,-0.05403104,0.01688060,-0.00897550,
 -0.08681270,-0.04036348,-0.00410133,0.43201153,0.01665433,-0.00767062,
 0.01212428,-0.01492850,-0.05033152,-0.04108007,-0.07297562,0.52733392,
 -0.01543081,0.01399050,-0.00149888,0.01403492,-0.02803644,-0.05837614,
 -0.02637020,0.00202371,0.56365658,0.00538454,-0.00440127,0.00105871,-0
 .01780012,-0.01221537,0.01944816,-0.05319829,-0.03008436,0.04778953,0.
 06124831,0.00189132,-0.00109551,-0.00058897,-0.00738820,-0.00580787,0.
 00967288,-0.02830375,-0.12735117,0.12042006,0.03541800,0.13433397,0.00
 072261,-0.00173285,0.00092876,-0.00331095,-0.00228809,0.00323733,0.047
 07878,0.11883525,-0.22112783,-0.04949732,-0.12986223,0.23763399,-0.004
 45438,0.00335275,-0.00381203,-0.02149081,0.00789889,0.00843768,-0.1768
 6788,0.13528113,-0.02628350,0.00625181,-0.00533731,0.00057665,0.191610
 43,-0.00083600,0.00293666,-0.00184637,-0.01409709,0.00379441,0.0033546
 7,0.13203277,-0.17456134,0.02255223,0.01204654,-0.01122571,0.00068613,
 -0.14296314,0.18927624,-0.00004837,0.00053960,0.00074094,-0.00220901,0
 .00161449,-0.00087445,-0.02412623,0.02394036,-0.05240512,-0.01927963,0
 .01753616,-0.00231175,0.02604471,-0.02619428,0.05022628,0.00322958,-0.
 00088769,0.00082509,-0.00101425,-0.01641444,-0.02328793,-0.04647265,0.
 01086686,0.01266603,-0.00059164,0.00459716,0.00486908,0.00030526,0.011
 88971,0.01884498,0.04917751,0.00152433,0.00159583,0.00134495,-0.000100
 19,-0.01211916,-0.00958698,0.00906932,-0.14193203,-0.12825895,-0.00030
 665,0.01195869,0.01444941,-0.00063819,-0.01165315,-0.01674271,-0.00664
 437,0.15283864,0.00080962,0.00042451,0.00086962,-0.00072461,-0.0017761
 9,-0.00428118,0.01097199,-0.12820749,-0.21825808,0.00103220,-0.0165226
 8,-0.01963127,0.00054028,0.00448050,0.00531693,-0.01242030,0.14059884,
 0.23439615,-0.01982351,0.01131704,-0.01746333,-0.03569666,0.02348700,-
 0.00769790,-0.01537359,-0.03376430,0.02423113,-0.00457093,-0.00181997,
 -0.00063010,0.00445157,0.00263867,0.00126879,0.00084773,0.00102112,0.0
 0075486,0.18696328,0.02491989,-0.04654428,0.02394532,-0.01061228,-0.00
 575343,-0.03568005,-0.01599019,-0.01822183,0.01207313,-0.00092186,-0.0
 0115182,0.00092385,0.00516736,0.00140604,-0.00036584,-0.00152781,-0.00
 093027,0.00160683,0.01380403,1.00474583,-0.02296202,0.05222367,-0.0207
 8503,0.02231046,-0.07164790,-0.06838409,0.00460113,0.01992836,-0.00359
 334,-0.00132953,-0.00102782,-0.00049782,-0.00638993,-0.00291567,-0.000
 76943,-0.00156034,-0.00322045,-0.00005016,-0.03556054,0.05770146,0.424
 22395,0.00462249,-0.00078399,-0.00218340,0.00475699,-0.00126590,0.0113
 0781,0.00170734,0.00591865,-0.00197716,0.00058970,0.00041727,0.0000154
 3,-0.00167573,-0.00073789,-0.00004451,0.00000530,-0.00026891,0.0001637
 1,-0.05572690,0.01902493,0.02414204,0.02676706,-0.00371632,-0.00008452
 ,0.00131393,0.00217587,0.00830934,0.00711896,0.00065187,-0.00188460,0.
 00063149,0.00020898,-0.00008494,-0.00013100,0.00092900,0.00057045,0.00
 017249,0.00003195,0.00029913,0.00001714,0.01493628,-0.12481749,-0.1062
 4063,-0.01823257,0.16186799,0.00226942,-0.00673883,0.00497617,0.002589
 41,-0.00778889,-0.02327003,-0.00007766,-0.00299881,0.00164291,-0.00023
 106,0.00024446,0.00033492,0.00079302,0.00041449,0.00011402,0.00080165,
 0.00111228,0.00042930,0.02400306,-0.10229110,-0.19584536,-0.03169129,0
 .11969838,0.19858711,-0.01201020,0.02831922,0.02392212,-0.06770895,-0.
 00103666,-0.01329231,-0.00162926,-0.02364315,-0.02377392,0.00124467,0.
 00058713,0.00002476,0.00244533,0.00120276,0.00000318,-0.00539684,-0.00
 316675,-0.00148278,-0.00367836,0.00003032,0.00990542,0.00153022,-0.001
 08329,0.00104682,0.58035086,0.01832058,-0.03941353,-0.02085295,-0.0054
 8279,-0.09301359,-0.05479827,-0.00517305,-0.01468946,-0.01247359,0.000
 74889,-0.00013029,-0.00027191,0.00248548,0.00076739,0.00026092,-0.0016
 7947,-0.00043593,-0.00008694,-0.00498223,0.00856470,0.01587274,0.00018
 308,-0.00236390,0.00318905,-0.00421839,0.52708775,0.00599514,0.0029323
 9,0.00645978,-0.01051968,-0.05778426,-0.13235814,-0.00205635,-0.000804
 55,-0.00554000,0.00094192,0.00078814,0.00078812,-0.00144332,-0.0007742
 3,-0.00024103,0.00019261,0.00048784,0.00065005,0.00547658,-0.01184568,
 -0.03566436,-0.00027342,0.00287255,-0.00248936,0.00458126,-0.05621230,
 0.50124960,0.00137696,0.00212258,0.00023388,-0.00171648,-0.00412856,0.
 00190899,-0.00056005,0.00059345,-0.00030792,0.00010774,-0.00005536,0.0
 0001470,-0.00005288,-0.00072107,-0.00032144,0.00014902,0.00004048,0.00
 018315,0.00089139,0.00270805,-0.00153909,-0.00029970,-0.00003010,0.000
 18770,-0.16483599,0.12931888,-0.02744840,0.17657033,0.00239027,-0.0051
 5252,-0.00471787,0.01156627,-0.01035683,0.00655453,0.00073853,0.000254
 22,0.00102789,-0.00009546,-0.00009608,-0.00012316,-0.00076394,-0.00009
 582,-0.00049349,-0.00015233,0.00036382,-0.00006773,-0.00019072,-0.0019
 3451,0.00154866,0.00008083,-0.00009140,-0.00018094,0.12854087,-0.18860
 089,0.02718619,-0.14235768,0.20327310,0.00301609,-0.00774490,-0.004833
 94,0.01608465,-0.01198987,0.00682845,0.00009921,0.00025189,0.00079878,
 -0.00023393,-0.00003204,-0.00005150,-0.00032353,-0.00049322,0.00001254
 ,0.00013141,0.00024701,0.00002917,0.00023412,-0.00138031,0.00192729,0.
 00027331,-0.00012554,0.00014853,-0.02967329,0.02893565,-0.05469875,0.0
 3128150,-0.03061318,0.05531526,0.00047999,0.00023353,-0.00018519,-0.00
 221291,-0.00010228,0.00045849,0.00027238,0.00058942,-0.00043164,0.0001
 8759,-0.00023272,-0.00015689,-0.00009478,0.00002372,-0.00014166,-0.000
 04412,0.00006179,0.00012868,0.00069319,0.00011759,-0.00055961,0.000016
 03,0.00009485,0.00001269,-0.06089470,-0.03088192,0.05151651,0.00590914
 ,0.00960934,-0.01925298,0.06108674,-0.00155158,0.00250735,0.00109848,0
 .00545289,0.00762226,-0.01962665,0.00072211,0.00136689,-0.00013319,-0.
 00014494,0.00001115,0.00012239,-0.00027900,-0.00016750,0.00006259,0.00
 017134,0.00011482,0.00017979,0.00045993,-0.00448968,-0.00374226,0.0001
 9147,0.00072597,-0.00106064,-0.03039885,-0.11053627,0.11080228,-0.0071
 8562,-0.01069183,0.01874982,0.03455934,0.11924804,-0.00105741,0.001909
 04,0.00222259,0.00521784,0.00960885,-0.02109503,0.00067587,0.00217289,
 0.00033074,-0.00059157,-0.00070560,0.00021176,-0.00040615,-0.00024513,
 -0.00010283,0.00006874,-0.00018552,0.00045236,0.00071360,-0.00277370,-
 0.00380948,0.00012641,0.00067907,-0.00100639,0.05251012,0.11024725,-0.
 23188069,0.00038247,0.00129297,-0.00277340,-0.05675729,-0.11856297,0.2
 5235396,0.00137658,-0.00042967,0.00035880,0.00098840,0.00277053,-0.000
 48985,0.00032824,-0.00020445,-0.00039118,0.00007194,0.00016953,0.00008
 342,0.00042437,0.00010372,0.00023222,0.00017136,-0.00007447,0.00012908
 ,-0.00042127,-0.00179429,0.00072352,0.00004317,0.00003912,-0.00018021,
 -0.26843173,-0.10034000,-0.02613157,-0.01781626,-0.00898565,-0.0016023
 0,-0.00559571,-0.00177457,-0.00063089,0.28833773,-0.00007583,0.0032250
 3,0.00091527,-0.01883422,-0.01126579,-0.00126019,0.00068203,-0.0021833
 6,-0.00380132,0.00049288,0.00033143,0.00007992,-0.00016855,0.00024311,
 -0.00002880,-0.00120049,-0.00030944,-0.00035662,0.00032828,-0.00017653
 ,0.00003540,-0.00003610,-0.00001515,0.00008094,-0.09811496,-0.09050222
 ,-0.01157681,0.02190531,0.01123425,0.00256416,-0.01397870,-0.00676010,
 -0.00236304,0.10915392,0.09604064,0.00008862,0.00237769,0.00161294,-0.
 02439035,-0.00938360,-0.00525230,0.00075717,-0.00331140,-0.00406316,0.
 00009503,-0.00021177,0.00011945,0.00049026,0.00031269,-0.00000263,-0.0
 0132807,-0.00102325,-0.00005759,-0.00156324,-0.00230308,0.00127192,0.0
 0013921,-0.00004357,0.00004705,-0.02366816,-0.01196110,-0.04887700,-0.
 00407940,-0.00193204,-0.00145223,0.02549219,0.01044026,0.00394976,0.02
 746176,0.01553943,0.05251129,0.00453863,-0.00274929,0.00454956,0.01227
 976,-0.01318031,0.00491058,0.00062597,0.00569652,-0.00375527,0.0010746
 8,0.00005690,0.00020982,-0.00085231,-0.00058270,-0.00022305,-0.0003662
 5,-0.00051751,-0.00008588,-0.05855593,-0.03492576,0.00821848,0.0176640
 4,0.00399437,0.00047646,-0.00098504,0.00170094,-0.00083129,0.00027679,
 -0.00038033,-0.00003425,0.00019716,-0.00022252,-0.00025172,0.00052319,
 -0.00015356,0.00050497,0.02357932,-0.00654617,0.01955915,0.00128690,-0
 .00230335,-0.07423633,0.04233269,0.00202884,0.00987092,-0.00001552,-0.
 00074538,0.00030816,-0.00068770,-0.00496451,-0.00129078,-0.00030147,0.
 00094957,0.00020904,-0.00028994,-0.02723512,-0.81069673,0.04148446,-0.
 00449087,-0.04243090,-0.00368040,0.00298176,0.00326624,-0.00607157,-0.
 00221036,0.00189447,0.00163053,-0.00009395,0.00104889,-0.00107412,0.00
 136628,0.00013812,0.00149976,0.04126326,0.89235977,0.00167113,-0.00595
 577,0.00158238,0.00177436,0.04827134,-0.00575386,0.00152313,-0.0028744
 1,-0.00156645,0.00079748,0.00028942,0.00036586,0.00177584,0.00066820,0
 .00029653,0.00019705,0.00077753,0.00013471,0.00623298,0.06038917,-0.09
 802407,0.00000184,-0.02596326,0.01633114,-0.00010321,-0.00184854,0.002
 60178,-0.00049613,0.00051818,-0.00125018,-0.00012329,0.00167011,0.0011
 4666,0.00043722,0.00017166,0.00019250,-0.01368841,-0.07611364,0.083943
 01\\-0.00000500,-0.00000201,0.00000410,0.00000173,0.00001568,-0.000015
 14,0.00000499,-0.00001686,0.00000759,0.00000168,-0.00000218,-0.0000032
 6,0.00000667,-0.00000509,-0.00000223,0.00000511,-0.00000201,0.00000272
 ,-0.00000367,0.00000633,0.00000815,0.00000552,-0.00000130,0.00000276,-
 0.00000493,0.00000171,0.00000586,-0.00000153,-0.00000299,-0.00000513,-
 0.00000261,0.00000327,-0.00000360,-0.00000826,0.00000214,0.00000153,0.
 00000030,0.00000331,-0.00000335\\\@


 IF YOU WISH TO UNDERSTAND THE FRAGRANCE OF THE ROSE, 
 OR THE TENACITY OF THE OAK; 
 IF YOU ARE NOT SATISFIED UNTIL YOU KNOW THE SECRET PATHS 
 BY WHICH THE SUNSHINE AND THE AIR ACHIEVE THESE WONDERS; 
 IF YOU WISH TO SEE THE PATTERN WHICH UNDERLIES ONE LARGE FIELD OF 
 HUMAN EXPERIENCE AND HUMAN MEASUREMENT, THEN TAKE UP CHEMISTRY.

                                         -- C. A. COULSON, 1973.
 Job cpu time:  0 days  0 hours 46 minutes  7.7 seconds.
 File lengths (MBytes):  RWF=     79 Int=      0 D2E=      0 Chk=      7 Scr=      1
 Normal termination of Gaussian 03 at Thu Jul 24 04:18:30 2014.
