 Entering Gaussian System, Link 0=g03
 Input=rotor.gjf
 Output=rotor.log
 Initial command:
 /opt/g03/l1.exe /scratch/goldmanm/Gau-29507.inp -scrdir=/scratch/goldmanm/
 Entering Link 1 = /opt/g03/l1.exe PID=     29509.
  
 Copyright (c) 1988,1990,1992,1993,1995,1998,2003,2004, Gaussian, Inc.
                  All Rights Reserved.
  
 This is the Gaussian(R) 03 program.  It is based on the
 the Gaussian(R) 98 system (copyright 1998, Gaussian, Inc.),
 the Gaussian(R) 94 system (copyright 1995, Gaussian, Inc.),
 the Gaussian 92(TM) system (copyright 1992, Gaussian, Inc.),
 the Gaussian 90(TM) system (copyright 1990, Gaussian, Inc.),
 the Gaussian 88(TM) system (copyright 1988, Gaussian, Inc.),
 the Gaussian 86(TM) system (copyright 1986, Carnegie Mellon
 University), and the Gaussian 82(TM) system (copyright 1983,
 Carnegie Mellon University). Gaussian is a federally registered
 trademark of Gaussian, Inc.
  
 This software contains proprietary and confidential information,
 including trade secrets, belonging to Gaussian, Inc.
  
 This software is provided under written license and may be
 used, copied, transmitted, or stored only in accord with that
 written license.
  
 The following legend is applicable only to US Government
 contracts under FAR:
  
                    RESTRICTED RIGHTS LEGEND
  
 Use, reproduction and disclosure by the US Government is
 subject to restrictions as set forth in subparagraphs (a)
 and (c) of the Commercial Computer Software - Restricted
 Rights clause in FAR 52.227-19.
  
 Gaussian, Inc.
 340 Quinnipiac St., Bldg. 40, Wallingford CT 06492
  
  
 ---------------------------------------------------------------
 Warning -- This program may not be used in any manner that
 competes with the business of Gaussian, Inc. or will provide
 assistance to any competitor of Gaussian, Inc.  The licensee
 of this program is prohibited from giving any competitor of
 Gaussian, Inc. access to this program.  By using this program,
 the user acknowledges that Gaussian, Inc. is engaged in the
 business of creating and licensing software in the field of
 computational chemistry and represents and warrants to the
 licensee that it is not a competitor of Gaussian, Inc. and that
 it will not use this program in any manner prohibited above.
 ---------------------------------------------------------------
  

 Cite this work as:
 Gaussian 03, Revision D.01,
 M. J. Frisch, G. W. Trucks, H. B. Schlegel, G. E. Scuseria, 
 M. A. Robb, J. R. Cheeseman, J. A. Montgomery, Jr., T. Vreven, 
 K. N. Kudin, J. C. Burant, J. M. Millam, S. S. Iyengar, J. Tomasi, 
 V. Barone, B. Mennucci, M. Cossi, G. Scalmani, N. Rega, 
 G. A. Petersson, H. Nakatsuji, M. Hada, M. Ehara, K. Toyota, 
 R. Fukuda, J. Hasegawa, M. Ishida, T. Nakajima, Y. Honda, O. Kitao, 
 H. Nakai, M. Klene, X. Li, J. E. Knox, H. P. Hratchian, J. B. Cross, 
 V. Bakken, C. Adamo, J. Jaramillo, R. Gomperts, R. E. Stratmann, 
 O. Yazyev, A. J. Austin, R. Cammi, C. Pomelli, J. W. Ochterski, 
 P. Y. Ayala, K. Morokuma, G. A. Voth, P. Salvador, J. J. Dannenberg, 
 V. G. Zakrzewski, S. Dapprich, A. D. Daniels, M. C. Strain, 
 O. Farkas, D. K. Malick, A. D. Rabuck, K. Raghavachari, 
 J. B. Foresman, J. V. Ortiz, Q. Cui, A. G. Baboul, S. Clifford, 
 J. Cioslowski, B. B. Stefanov, G. Liu, A. Liashenko, P. Piskorz, 
 I. Komaromi, R. L. Martin, D. J. Fox, T. Keith, M. A. Al-Laham, 
 C. Y. Peng, A. Nanayakkara, M. Challacombe, P. M. W. Gill, 
 B. Johnson, W. Chen, M. W. Wong, C. Gonzalez, and J. A. Pople, 
 Gaussian, Inc., Wallingford CT, 2004.
 
 ******************************************
 Gaussian 03:  AM64L-G03RevD.01 13-Oct-2005
                18-Jul-2019 
 ******************************************
 %chk=input.chk
 %mem=3000mb
 %nproc=8
 Will use up to    8 processors via shared memory.
 ----------------------------------------------------------
 # opt=(ts,noeigentest,addred,calcfc) b3lyp/6-31g(d) nosymm
 ----------------------------------------------------------
 1/5=1,10=4,11=1,14=-1,18=120,26=3,38=1/1,3;
 2/9=110,15=1,17=6,18=5,40=1/2;
 3/5=1,6=6,7=1,11=2,16=1,25=1,30=1,74=-5/1,2,3;
 4//1;
 5/5=2,38=5/2;
 8/6=4,10=90,11=11/1;
 11/6=1,8=1,9=11,15=111,16=1,31=1/1,2,10;
 10/6=1,7=6,31=1/2;
 6/7=2,8=2,9=2,10=2,28=1/1;
 7/10=1,18=20,25=1,30=1/1,2,3,16;
 1/5=1,10=4,11=1,14=-1,18=20/3(3);
 2/9=110,15=1/2;
 6/7=2,8=2,9=2,10=2,19=2,28=1/1;
 99//99;
 2/9=110,15=1/2;
 3/5=1,6=6,7=1,11=2,16=1,25=1,30=1,74=-5/1,2,3;
 4/5=5,16=3/1;
 5/5=2,38=5/2;
 7/30=1/1,2,3,16;
 1/5=1,11=1,14=-1,18=20/3(-5);
 2/9=110,15=1/2;
 6/7=2,8=2,9=2,10=2,19=2,28=1/1;
 99/9=1/99;
 -------------
 71bEpoxyFroma
 -------------
 Symbolic Z-matrix:
 Charge =  0 Multiplicity = 2
 C                     0.03539   0.12926   0.12496 
 H                     0.74685  -0.06992  -0.6643 
 O                    -0.16444   1.42763   0.34526 
 H                    -0.82948   1.54082   1.03823 
 C                    -0.77971  -0.95851   0.72548 
 C                    -0.01915  -2.2808    0.82695 
 H                     0.52626  -2.47465  -0.09999 
 H                     0.68924  -2.27665   1.65948 
 H                    -0.74368  -3.0833    0.96955 
 C                    -1.49326  -0.59467   2.0288 
 H                    -2.08455   0.32082   1.91908 
 H                    -2.20369  -1.38788   2.26162 
 H                    -0.7931   -0.48268   2.86118 
 O                    -1.65389  -0.92521  -0.38194 
 O                    -2.88309  -2.13037  -0.12993 
 H                    -2.76271  -2.50546  -1.0124 
 
 The following ModRedundant input section has been read:
 D    5    1    3    4 S  36 10.000                                            

 GradGradGradGradGradGradGradGradGradGradGradGradGradGradGradGradGradGrad
 Berny optimization.
 Initialization pass.
                           ----------------------------
                           !    Initial Parameters    !
                           ! (Angstroms and Degrees)  !
 --------------------------                            --------------------------
 ! Name  Definition              Value          Derivative Info.                !
 --------------------------------------------------------------------------------
 ! R1    R(1,2)                  1.0811         calculate D2E/DX2 analytically  !
 ! R2    R(1,3)                  1.332          calculate D2E/DX2 analytically  !
 ! R3    R(1,5)                  1.486          calculate D2E/DX2 analytically  !
 ! R4    R(3,4)                  0.9671         calculate D2E/DX2 analytically  !
 ! R5    R(5,6)                  1.5288         calculate D2E/DX2 analytically  !
 ! R6    R(5,10)                 1.5298         calculate D2E/DX2 analytically  !
 ! R7    R(5,14)                 1.4113         calculate D2E/DX2 analytically  !
 ! R8    R(6,7)                  1.0928         calculate D2E/DX2 analytically  !
 ! R9    R(6,8)                  1.0931         calculate D2E/DX2 analytically  !
 ! R10   R(6,9)                  1.0905         calculate D2E/DX2 analytically  !
 ! R11   R(10,11)                1.0953         calculate D2E/DX2 analytically  !
 ! R12   R(10,12)                1.09           calculate D2E/DX2 analytically  !
 ! R13   R(10,13)                1.0934         calculate D2E/DX2 analytically  !
 ! R14   R(14,15)                1.7398         calculate D2E/DX2 analytically  !
 ! R15   R(15,16)                0.9664         calculate D2E/DX2 analytically  !
 ! A1    A(2,1,3)              113.5193         calculate D2E/DX2 analytically  !
 ! A2    A(2,1,5)              121.4085         calculate D2E/DX2 analytically  !
 ! A3    A(3,1,5)              124.3601         calculate D2E/DX2 analytically  !
 ! A4    A(1,3,4)              109.6187         calculate D2E/DX2 analytically  !
 ! A5    A(1,5,6)              112.7724         calculate D2E/DX2 analytically  !
 ! A6    A(1,5,10)             115.2171         calculate D2E/DX2 analytically  !
 ! A7    A(1,5,14)              90.3085         calculate D2E/DX2 analytically  !
 ! A8    A(6,5,10)             112.4095         calculate D2E/DX2 analytically  !
 ! A9    A(6,5,14)             112.3735         calculate D2E/DX2 analytically  !
 ! A10   A(10,5,14)            111.9624         calculate D2E/DX2 analytically  !
 ! A11   A(5,6,7)              110.2075         calculate D2E/DX2 analytically  !
 ! A12   A(5,6,8)              111.694          calculate D2E/DX2 analytically  !
 ! A13   A(5,6,9)              108.3389         calculate D2E/DX2 analytically  !
 ! A14   A(7,6,8)              108.8588         calculate D2E/DX2 analytically  !
 ! A15   A(7,6,9)              108.1775         calculate D2E/DX2 analytically  !
 ! A16   A(8,6,9)              109.4964         calculate D2E/DX2 analytically  !
 ! A17   A(5,10,11)            111.4227         calculate D2E/DX2 analytically  !
 ! A18   A(5,10,12)            108.2348         calculate D2E/DX2 analytically  !
 ! A19   A(5,10,13)            111.9777         calculate D2E/DX2 analytically  !
 ! A20   A(11,10,12)           106.1277         calculate D2E/DX2 analytically  !
 ! A21   A(11,10,13)           109.6524         calculate D2E/DX2 analytically  !
 ! A22   A(12,10,13)           109.2246         calculate D2E/DX2 analytically  !
 ! A23   A(5,14,15)            107.917          calculate D2E/DX2 analytically  !
 ! A24   A(14,15,16)            92.7847         calculate D2E/DX2 analytically  !
 ! D1    D(2,1,3,4)            178.1099         calculate D2E/DX2 analytically  !
 ! D2    D(5,1,3,4)              7.6955         Scan                            !
 ! D3    D(2,1,5,6)             35.5821         calculate D2E/DX2 analytically  !
 ! D4    D(2,1,5,10)           166.4789         calculate D2E/DX2 analytically  !
 ! D5    D(2,1,5,14)           -78.9428         calculate D2E/DX2 analytically  !
 ! D6    D(3,1,5,6)           -154.7236         calculate D2E/DX2 analytically  !
 ! D7    D(3,1,5,10)           -23.8268         calculate D2E/DX2 analytically  !
 ! D8    D(3,1,5,14)            90.7515         calculate D2E/DX2 analytically  !
 ! D9    D(1,5,6,7)            -44.1955         calculate D2E/DX2 analytically  !
 ! D10   D(1,5,6,8)             76.9441         calculate D2E/DX2 analytically  !
 ! D11   D(1,5,6,9)           -162.3738         calculate D2E/DX2 analytically  !
 ! D12   D(10,5,6,7)          -176.4884         calculate D2E/DX2 analytically  !
 ! D13   D(10,5,6,8)           -55.3488         calculate D2E/DX2 analytically  !
 ! D14   D(10,5,6,9)            65.3333         calculate D2E/DX2 analytically  !
 ! D15   D(14,5,6,7)            56.1227         calculate D2E/DX2 analytically  !
 ! D16   D(14,5,6,8)           177.2623         calculate D2E/DX2 analytically  !
 ! D17   D(14,5,6,9)           -62.0556         calculate D2E/DX2 analytically  !
 ! D18   D(1,5,10,11)           52.577          calculate D2E/DX2 analytically  !
 ! D19   D(1,5,10,12)          168.9004         calculate D2E/DX2 analytically  !
 ! D20   D(1,5,10,13)          -70.648          calculate D2E/DX2 analytically  !
 ! D21   D(6,5,10,11)         -176.3524         calculate D2E/DX2 analytically  !
 ! D22   D(6,5,10,12)          -60.029          calculate D2E/DX2 analytically  !
 ! D23   D(6,5,10,13)           60.4226         calculate D2E/DX2 analytically  !
 ! D24   D(14,5,10,11)         -48.7452         calculate D2E/DX2 analytically  !
 ! D25   D(14,5,10,12)          67.5782         calculate D2E/DX2 analytically  !
 ! D26   D(14,5,10,13)        -171.9702         calculate D2E/DX2 analytically  !
 ! D27   D(1,5,14,15)          179.7043         calculate D2E/DX2 analytically  !
 ! D28   D(6,5,14,15)           64.819          calculate D2E/DX2 analytically  !
 ! D29   D(10,5,14,15)         -62.8075         calculate D2E/DX2 analytically  !
 ! D30   D(5,14,15,16)        -130.3464         calculate D2E/DX2 analytically  !
 --------------------------------------------------------------------------------
 Trust Radius=3.00D-01 FncErr=1.00D-07 GrdErr=1.00D-06
 Number of optimizations in scan=  37
 Number of steps in this run=  79 maximum allowed number of steps= 100.
 Search for a saddle point of order  1.
 GradGradGradGradGradGradGradGradGradGradGradGradGradGradGradGradGradGrad

                          Input orientation:                          
 ---------------------------------------------------------------------
 Center     Atomic     Atomic              Coordinates (Angstroms)
 Number     Number      Type              X           Y           Z
 ---------------------------------------------------------------------
    1          6             0        0.035388    0.129258    0.124955
    2          1             0        0.746845   -0.069918   -0.664296
    3          8             0       -0.164435    1.427626    0.345264
    4          1             0       -0.829480    1.540816    1.038227
    5          6             0       -0.779706   -0.958506    0.725483
    6          6             0       -0.019150   -2.280804    0.826946
    7          1             0        0.526264   -2.474653   -0.099987
    8          1             0        0.689242   -2.276650    1.659479
    9          1             0       -0.743680   -3.083304    0.969548
   10          6             0       -1.493258   -0.594665    2.028800
   11          1             0       -2.084548    0.320815    1.919083
   12          1             0       -2.203688   -1.387881    2.261622
   13          1             0       -0.793101   -0.482677    2.861182
   14          8             0       -1.653892   -0.925213   -0.381937
   15          8             0       -2.883085   -2.130369   -0.129933
   16          1             0       -2.762705   -2.505459   -1.012404
 ---------------------------------------------------------------------
                    Distance matrix (angstroms):
                    1          2          3          4          5
     1  C    0.000000
     2  H    1.081092   0.000000
     3  O    1.332000   2.022939   0.000000
     4  H    1.890650   2.824509   0.967106   0.000000
     5  C    1.486016   2.247539   2.493341   2.519305   0.000000
     6  C    2.510810   2.774629   3.742403   3.912295   1.528794
     7  H    2.659306   2.479889   3.987868   4.388344   2.164639
     8  H    2.927573   3.205139   4.022137   4.155180   2.183497
     9  H    3.411867   3.737861   4.590615   4.625426   2.139073
    10  C    2.546654   3.542060   2.947834   2.445836   1.529762
    11  H    2.783832   3.852701   2.718229   1.959466   2.182649
    12  H    3.446813   4.359320   3.969642   3.458672   2.138179
    13  H    2.923662   3.869212   3.220919   2.723786   2.188105
    14  O    2.054876   2.564136   2.878047   2.962739   1.411272
    15  O    3.699779   4.208015   4.502910   4.365718   2.555230
    16  H    4.008072   4.286022   4.905449   4.931003   3.057057
                    6          7          8          9         10
     6  C    0.000000
     7  H    1.092821   0.000000
     8  H    1.093137   1.778057   0.000000
     9  H    1.090544   1.768366   1.783244   0.000000
    10  C    2.541754   3.484904   2.780068   2.806636   0.000000
    11  H    3.496720   4.325231   3.808954   3.779890   1.095338
    12  H    2.761850   3.769736   3.085698   2.583706   1.090004
    13  H    2.823186   3.804893   2.619116   3.216206   1.093445
    14  O    2.443646   2.689487   3.388811   2.704137   2.438589
    15  O    3.023305   3.426819   3.998114   2.587276   2.991677
    16  H    3.310706   3.413323   4.371184   2.887646   3.809403
                   11         12         13         14         15
    11  H    0.000000
    12  H    1.746760   0.000000
    13  H    1.789130   1.780062   0.000000
    14  O    2.651932   2.739478   3.384467   0.000000
    15  O    3.293088   2.594688   4.003710   1.739777   0.000000
    16  H    4.128116   3.504387   4.793293   2.030796   0.966405
                   16
    16  H    0.000000
 Symmetry turned off by external request.
 Stoichiometry    C4H9O3(2)
 Framework group  C1[X(C4H9O3)]
 Deg. of freedom    42
 Full point group                 C1
 Rotational constants (GHZ):      3.5958611      1.8741554      1.7391271
 Standard basis: 6-31G(d) (6D, 7F)
 Integral buffers will be    131072 words long.
 Raffenetti 2 integral format.
 Two-electron integral symmetry is turned off.
   123 basis functions,   232 primitive gaussians,   123 cartesian basis functions
    29 alpha electrons       28 beta electrons
       nuclear repulsion energy       331.4899631702 Hartrees.
 NAtoms=   16 NActive=   16 NUniq=   16 SFac= 7.50D-01 NAtFMM=   80 NAOKFM=F Big=F
 One-electron integrals computed using PRISM.
 NBasis=   123 RedAO= T  NBF=   123
 NBsUse=   123 1.00D-06 NBFU=   123
 Harris functional with IExCor=  402 diagonalized for initial guess.
 ExpMin= 1.61D-01 ExpMax= 5.48D+03 ExpMxC= 8.25D+02 IAcc=1 IRadAn=         1 AccDes= 1.00D-06
 HarFok:  IExCor= 402 AccDes= 1.00D-06 IRadAn=         1 IDoV=1
 ScaDFX=  1.000000  1.000000  1.000000  1.000000
 <S**2> of initial guess= 0.7500
 Requested convergence on RMS density matrix=1.00D-08 within 128 cycles.
 Requested convergence on MAX density matrix=1.00D-06.
 Requested convergence on             energy=1.00D-06.
 No special actions if energy rises.
 Keep R1 and R2 integrals in memory in canonical form, NReq=    60141286.
 Integral accuracy reduced to 1.0D-05 until final iterations.
 EnCoef did     3 forward-backward iterations
 Problem detected with inexpensive integrals.
 Switching to full accuracy and repeating last cycle.
 SCF Done:  E(UB+HF-LYP) =  -383.338638809     A.U. after   22 cycles
             Convg  =    0.8622D-08             -V/T =  2.0087
             S**2   =   0.7894
 Annihilation of the first spin contaminant:
 S**2 before annihilation     0.7894,   after     0.7502
 Range of M.O.s used for correlation:     1   123
 NBasis=   123 NAE=    29 NBE=    28 NFC=     0 NFV=     0
 NROrb=    123 NOA=    29 NOB=    28 NVA=    94 NVB=    95
 Symmetrizing basis deriv contribution to polar:
 IMax=3 JMax=2 DiffMx= 0.00D+00
 G2DrvN: will do   17 centers at a time, making    1 passes doing MaxLOS=2.
 FoFDir/FoFCou used for L=0 through L=2.
 DoAtom=TTTTTTTTTTTTTTTT
          Differentiating once with respect to electric field.
                with respect to dipole field.
          Differentiating once with respect to nuclear coordinates.
          Store integrals in memory, NReq=    58988036.
          There are  51 degrees of freedom in the 1st order CPHF.
    48 vectors were produced by pass  0.
 AX will form  48 AO Fock derivatives at one time.
    48 vectors were produced by pass  1.
    48 vectors were produced by pass  2.
    48 vectors were produced by pass  3.
    38 vectors were produced by pass  4.
     8 vectors were produced by pass  5.
     3 vectors were produced by pass  6.
     1 vectors were produced by pass  7.
 Inv2:  IOpt= 1 Iter= 1 AM= 2.03D-15 Conv= 1.00D-12.
 Inverted reduced A of dimension  242 with in-core refinement.
 Isotropic polarizability for W=    0.000000       65.02 Bohr**3.
 End of Minotr Frequency-dependent properties file   721 does not exist.

 **********************************************************************

            Population analysis using the SCF density.

 **********************************************************************

 Alpha  occ. eigenvalues --  -19.22007 -19.16558 -19.14390 -10.27829 -10.25423
 Alpha  occ. eigenvalues --  -10.18652 -10.17717  -1.10569  -1.01575  -0.92278
 Alpha  occ. eigenvalues --   -0.77173  -0.71193  -0.69327  -0.60321  -0.51729
 Alpha  occ. eigenvalues --   -0.49595  -0.46556  -0.44207  -0.42840  -0.41802
 Alpha  occ. eigenvalues --   -0.40666  -0.39440  -0.39147  -0.36616  -0.35629
 Alpha  occ. eigenvalues --   -0.32735  -0.28041  -0.24198  -0.18638
 Alpha virt. eigenvalues --   -0.03461   0.05144   0.09756   0.11524   0.13205
 Alpha virt. eigenvalues --    0.14289   0.15484   0.17368   0.19011   0.20192
 Alpha virt. eigenvalues --    0.21351   0.22530   0.23374   0.28049   0.32399
 Alpha virt. eigenvalues --    0.50513   0.50651   0.54164   0.54823   0.56994
 Alpha virt. eigenvalues --    0.58039   0.63589   0.65190   0.69122   0.71454
 Alpha virt. eigenvalues --    0.73611   0.75474   0.78938   0.82800   0.84414
 Alpha virt. eigenvalues --    0.86777   0.88590   0.91017   0.91663   0.92332
 Alpha virt. eigenvalues --    0.93085   0.94526   0.96320   0.98659   1.00302
 Alpha virt. eigenvalues --    1.02866   1.05113   1.07837   1.09964   1.15946
 Alpha virt. eigenvalues --    1.21837   1.24775   1.28816   1.35530   1.35625
 Alpha virt. eigenvalues --    1.44586   1.52539   1.53273   1.55068   1.64292
 Alpha virt. eigenvalues --    1.67163   1.69485   1.70607   1.75332   1.78740
 Alpha virt. eigenvalues --    1.81131   1.85208   1.87137   1.91190   1.93612
 Alpha virt. eigenvalues --    1.94972   2.07043   2.08789   2.12220   2.15491
 Alpha virt. eigenvalues --    2.20052   2.24016   2.25184   2.26824   2.30758
 Alpha virt. eigenvalues --    2.36077   2.38604   2.39497   2.48982   2.51468
 Alpha virt. eigenvalues --    2.63125   2.65657   2.74301   2.79274   2.84926
 Alpha virt. eigenvalues --    2.90466   3.01338   3.58451   3.80605   3.93809
 Alpha virt. eigenvalues --    4.21151   4.25410   4.29004   4.65283
  Beta  occ. eigenvalues --  -19.21579 -19.16637 -19.13176 -10.26996 -10.25482
  Beta  occ. eigenvalues --  -10.18646 -10.17695  -1.09606  -1.00967  -0.89926
  Beta  occ. eigenvalues --   -0.76955  -0.70556  -0.68505  -0.59999  -0.51352
  Beta  occ. eigenvalues --   -0.49260  -0.45651  -0.43371  -0.42031  -0.41033
  Beta  occ. eigenvalues --   -0.39868  -0.38986  -0.37958  -0.36558  -0.35371
  Beta  occ. eigenvalues --   -0.30352  -0.27488  -0.23522
  Beta virt. eigenvalues --   -0.07378   0.01185   0.05340   0.09961   0.11982
  Beta virt. eigenvalues --    0.13459   0.14437   0.15797   0.17408   0.19492
  Beta virt. eigenvalues --    0.20259   0.21590   0.22972   0.23532   0.28652
  Beta virt. eigenvalues --    0.32802   0.50698   0.52684   0.54637   0.55123
  Beta virt. eigenvalues --    0.57090   0.58321   0.64968   0.65350   0.69261
  Beta virt. eigenvalues --    0.71568   0.73891   0.75687   0.79277   0.83676
  Beta virt. eigenvalues --    0.85248   0.87027   0.88952   0.91271   0.92201
  Beta virt. eigenvalues --    0.92725   0.93434   0.95405   0.97050   0.99062
  Beta virt. eigenvalues --    1.00733   1.03304   1.05855   1.08109   1.10214
  Beta virt. eigenvalues --    1.16644   1.22265   1.25439   1.30346   1.35969
  Beta virt. eigenvalues --    1.36487   1.44682   1.53851   1.54163   1.55858
  Beta virt. eigenvalues --    1.64840   1.67783   1.70088   1.71085   1.75946
  Beta virt. eigenvalues --    1.79192   1.82623   1.85413   1.87368   1.91725
  Beta virt. eigenvalues --    1.95008   1.95850   2.07857   2.09921   2.12773
  Beta virt. eigenvalues --    2.16397   2.20283   2.24219   2.25540   2.26983
  Beta virt. eigenvalues --    2.31177   2.37131   2.39281   2.40747   2.49724
  Beta virt. eigenvalues --    2.52035   2.63603   2.66093   2.74754   2.79635
  Beta virt. eigenvalues --    2.85750   2.91033   3.01655   3.59970   3.80978
  Beta virt. eigenvalues --    3.94245   4.21662   4.26773   4.29055   4.65364
          Condensed to atoms (all electrons):
              1          2          3          4          5          6
     1  C    4.981765   0.369070   0.305091  -0.034239   0.374652  -0.040616
     2  H    0.369070   0.524901  -0.041510   0.006162  -0.044368  -0.004340
     3  O    0.305091  -0.041510   8.055369   0.240908  -0.026804   0.001908
     4  H   -0.034239   0.006162   0.240908   0.340999  -0.011761   0.000517
     5  C    0.374652  -0.044368  -0.026804  -0.011761   4.711765   0.346901
     6  C   -0.040616  -0.004340   0.001908   0.000517   0.346901   5.239118
     7  H   -0.006720   0.005414   0.000026  -0.000007  -0.025848   0.360191
     8  H    0.000194   0.000295  -0.000019  -0.000012  -0.022948   0.341553
     9  H    0.004281  -0.000141  -0.000059  -0.000004  -0.026015   0.359596
    10  C   -0.048003   0.004912  -0.006341   0.013241   0.334680  -0.079157
    11  H   -0.006085  -0.000093  -0.000339   0.013306  -0.023273   0.006357
    12  H    0.004317  -0.000103   0.000247  -0.000513  -0.021491  -0.004871
    13  H   -0.000797  -0.000062  -0.000039  -0.000066  -0.021224   0.000412
    14  O   -0.021179   0.000935  -0.005887   0.000999   0.138706  -0.052488
    15  O    0.005493  -0.000058  -0.000027  -0.000028  -0.005648  -0.004683
    16  H   -0.000646   0.000007   0.000004   0.000001  -0.000861   0.001145
              7          8          9         10         11         12
     1  C   -0.006720   0.000194   0.004281  -0.048003  -0.006085   0.004317
     2  H    0.005414   0.000295  -0.000141   0.004912  -0.000093  -0.000103
     3  O    0.000026  -0.000019  -0.000059  -0.006341  -0.000339   0.000247
     4  H   -0.000007  -0.000012  -0.000004   0.013241   0.013306  -0.000513
     5  C   -0.025848  -0.022948  -0.026015   0.334680  -0.023273  -0.021491
     6  C    0.360191   0.341553   0.359596  -0.079157   0.006357  -0.004871
     7  H    0.570436  -0.028333  -0.026908   0.006175  -0.000205  -0.000010
     8  H   -0.028333   0.589389  -0.025369   0.000188  -0.000112   0.000327
     9  H   -0.026908  -0.025369   0.528800  -0.006448  -0.000052   0.003327
    10  C    0.006175   0.000188  -0.006448   5.282507   0.343228   0.369270
    11  H   -0.000205  -0.000112  -0.000052   0.343228   0.584141  -0.023511
    12  H   -0.000010   0.000327   0.003327   0.369270  -0.023511   0.495098
    13  H   -0.000142   0.000673   0.000267   0.341533  -0.031503  -0.025140
    14  O    0.001889   0.003365  -0.001890  -0.061745   0.002927  -0.002421
    15  O   -0.000246   0.000274   0.013582  -0.003609  -0.000323   0.006828
    16  H    0.000088  -0.000019  -0.000283   0.000219   0.000000  -0.000281
             13         14         15         16
     1  C   -0.000797  -0.021179   0.005493  -0.000646
     2  H   -0.000062   0.000935  -0.000058   0.000007
     3  O   -0.000039  -0.005887  -0.000027   0.000004
     4  H   -0.000066   0.000999  -0.000028   0.000001
     5  C   -0.021224   0.138706  -0.005648  -0.000861
     6  C    0.000412  -0.052488  -0.004683   0.001145
     7  H   -0.000142   0.001889  -0.000246   0.000088
     8  H    0.000673   0.003365   0.000274  -0.000019
     9  H    0.000267  -0.001890   0.013582  -0.000283
    10  C    0.341533  -0.061745  -0.003609   0.000219
    11  H   -0.031503   0.002927  -0.000323   0.000000
    12  H   -0.025140  -0.002421   0.006828  -0.000281
    13  H    0.586075   0.003456   0.000117  -0.000017
    14  O    0.003456   8.360006   0.011943   0.001671
    15  O    0.000117   0.011943   8.292417   0.196596
    16  H   -0.000017   0.001671   0.196596   0.414162
 Mulliken atomic charges:
              1
     1  C    0.113420
     2  H    0.178978
     3  O   -0.522529
     4  H    0.430496
     5  C    0.323537
     6  C   -0.471542
     7  H    0.144203
     8  H    0.140552
     9  H    0.177316
    10  C   -0.490650
    11  H    0.135536
    12  H    0.198927
    13  H    0.146457
    14  O   -0.380287
    15  O   -0.512628
    16  H    0.388215
 Sum of Mulliken charges=   0.00000
 Atomic charges with hydrogens summed into heavy atoms:
              1
     1  C    0.292398
     2  H    0.000000
     3  O   -0.092033
     4  H    0.000000
     5  C    0.323537
     6  C   -0.009472
     7  H    0.000000
     8  H    0.000000
     9  H    0.000000
    10  C   -0.009730
    11  H    0.000000
    12  H    0.000000
    13  H    0.000000
    14  O   -0.380287
    15  O   -0.124413
    16  H    0.000000
 Sum of Mulliken charges=   0.00000
          Atomic-Atomic Spin Densities.
              1          2          3          4          5          6
     1  C    0.691479  -0.002973  -0.112586  -0.000013   0.008023  -0.007045
     2  H   -0.002973  -0.028211   0.000739  -0.000216  -0.000032   0.000561
     3  O   -0.112586   0.000739   0.233467  -0.001293  -0.002507   0.000131
     4  H   -0.000013  -0.000216  -0.001293  -0.003659   0.000451   0.000010
     5  C    0.008023  -0.000032  -0.002507   0.000451  -0.026984   0.003237
     6  C   -0.007045   0.000561   0.000131   0.000010   0.003237   0.015160
     7  H   -0.000611   0.000028   0.000009   0.000000   0.000911   0.000416
     8  H    0.000816  -0.000014  -0.000017   0.000000   0.000173  -0.000260
     9  H    0.000464  -0.000034  -0.000003  -0.000001  -0.000711  -0.004695
    10  C   -0.007301   0.000043   0.000764   0.000075   0.000581   0.004553
    11  H   -0.000045  -0.000002  -0.000002  -0.000045   0.000353  -0.000023
    12  H    0.000125  -0.000002  -0.000005  -0.000007   0.000577  -0.000831
    13  H    0.000793  -0.000006  -0.000124  -0.000010   0.000407  -0.000209
    14  O    0.006859  -0.000456  -0.000658  -0.000183  -0.018874  -0.006518
    15  O    0.003277   0.000012  -0.000037   0.000006   0.009234   0.002741
    16  H   -0.000306  -0.000002   0.000004   0.000000  -0.000663  -0.000235
              7          8          9         10         11         12
     1  C   -0.000611   0.000816   0.000464  -0.007301  -0.000045   0.000125
     2  H    0.000028  -0.000014  -0.000034   0.000043  -0.000002  -0.000002
     3  O    0.000009  -0.000017  -0.000003   0.000764  -0.000002  -0.000005
     4  H    0.000000   0.000000  -0.000001   0.000075  -0.000045  -0.000007
     5  C    0.000911   0.000173  -0.000711   0.000581   0.000353   0.000577
     6  C    0.000416  -0.000260  -0.004695   0.004553  -0.000023  -0.000831
     7  H   -0.000280   0.000032  -0.000727   0.000087  -0.000001  -0.000009
     8  H    0.000032  -0.001171   0.000352  -0.000198   0.000001   0.000045
     9  H   -0.000727   0.000352   0.009717  -0.001227   0.000003   0.000383
    10  C    0.000087  -0.000198  -0.001227   0.012200  -0.000081  -0.001806
    11  H   -0.000001   0.000001   0.000003  -0.000081  -0.000739   0.000181
    12  H   -0.000009   0.000045   0.000383  -0.001806   0.000181   0.001447
    13  H   -0.000006  -0.000014   0.000074  -0.001071   0.000090   0.000290
    14  O   -0.000666   0.000116   0.003211  -0.006834  -0.000014   0.001470
    15  O    0.000163  -0.000045  -0.003072   0.001785   0.000010  -0.001417
    16  H   -0.000029   0.000004   0.000452  -0.000062  -0.000001   0.000095
             13         14         15         16
     1  C    0.000793   0.006859   0.003277  -0.000306
     2  H   -0.000006  -0.000456   0.000012  -0.000002
     3  O   -0.000124  -0.000658  -0.000037   0.000004
     4  H   -0.000010  -0.000183   0.000006   0.000000
     5  C    0.000407  -0.018874   0.009234  -0.000663
     6  C   -0.000209  -0.006518   0.002741  -0.000235
     7  H   -0.000006  -0.000666   0.000163  -0.000029
     8  H   -0.000014   0.000116  -0.000045   0.000004
     9  H    0.000074   0.003211  -0.003072   0.000452
    10  C   -0.001071  -0.006834   0.001785  -0.000062
    11  H    0.000090  -0.000014   0.000010  -0.000001
    12  H    0.000290   0.001470  -0.001417   0.000095
    13  H   -0.000376   0.000108  -0.000026   0.000001
    14  O    0.000108   0.025135  -0.100020   0.005958
    15  O   -0.000026  -0.100020   0.545435  -0.005201
    16  H    0.000001   0.005958  -0.005201  -0.011020
 Mulliken atomic spin densities:
              1
     1  C    0.580954
     2  H   -0.030566
     3  O    0.117881
     4  H   -0.004886
     5  C   -0.025823
     6  C    0.006993
     7  H   -0.000682
     8  H   -0.000181
     9  H    0.004187
    10  C    0.001507
    11  H   -0.000315
    12  H    0.000535
    13  H   -0.000078
    14  O   -0.091365
    15  O    0.452845
    16  H   -0.011004
 Sum of Mulliken spin densities=   1.00000
 APT atomic charges:
              1
     1  C    0.343075
     2  H    0.052194
     3  O   -0.694967
     4  H    0.292892
     5  C    0.364390
     6  C    0.023667
     7  H   -0.024078
     8  H   -0.013412
     9  H    0.026221
    10  C    0.005243
    11  H   -0.038346
    12  H    0.039109
    13  H   -0.011960
    14  O    0.170345
    15  O   -0.758433
    16  H    0.224060
 Sum of APT charges=   0.00000
 APT Atomic charges with hydrogens summed into heavy atoms:
              1
     1  C    0.395269
     2  H    0.000000
     3  O   -0.402075
     4  H    0.000000
     5  C    0.364390
     6  C    0.012398
     7  H    0.000000
     8  H    0.000000
     9  H    0.000000
    10  C   -0.005954
    11  H    0.000000
    12  H    0.000000
    13  H    0.000000
    14  O    0.170345
    15  O   -0.534373
    16  H    0.000000
 Sum of APT charges=   0.00000
 Electronic spatial extent (au):  <R**2>=  1214.8396
 Charge=     0.0000 electrons
 Dipole moment (field-independent basis, Debye):
    X=     2.0133    Y=     0.4650    Z=     1.1532  Tot=     2.3663
 Quadrupole moment (field-independent basis, Debye-Ang):
   XX=   -49.5584   YY=   -41.3173   ZZ=   -38.1580
   XY=    -4.2769   XZ=    -0.9258   YZ=     3.8089
 Traceless Quadrupole moment (field-independent basis, Debye-Ang):
   XX=    -6.5472   YY=     1.6939   ZZ=     4.8532
   XY=    -4.2769   XZ=    -0.9258   YZ=     3.8089
 Octapole moment (field-independent basis, Debye-Ang**2):
  XXX=   148.7803  YYY=    99.8732  ZZZ=   -72.0617  XYY=    36.5672
  XXY=    45.4522  XXZ=   -29.1732  XZZ=    34.7059  YZZ=    31.8251
  YYZ=   -28.5451  XYZ=    -9.4979
 Hexadecapole moment (field-independent basis, Debye-Ang**3):
 XXXX=  -642.0107 YYYY=  -584.8015 ZZZZ=  -306.5226 XXXY=  -188.6904
 XXXZ=    78.8262 YYYX=  -148.7543 YYYZ=    84.4669 ZZZX=    65.1557
 ZZZY=    60.2109 XXYY=  -191.7993 XXZZ=  -127.2441 YYZZ=  -134.9093
 XXYZ=    43.1389 YYXZ=    37.7961 ZZXY=   -40.8593
 N-N= 3.314899631702D+02 E-N=-1.560630692865D+03  KE= 3.800245599809D+02
  Exact polarizability:  70.852  20.911  72.861   2.351   5.979  51.359
 Approx polarizability: 124.321  50.091 113.775   6.288   8.335  71.572
                          Isotropic Fermi Contact Couplings
        Atom                 a.u.       MegaHertz       Gauss      10(-4) cm-1
     1  C(13)              0.05581      62.73740      22.38626      20.92694
     2  H(1)              -0.00988     -44.15424     -15.75533     -14.72827
     3  O(17)              0.03272     -19.83200      -7.07655      -6.61524
     4  H(1)              -0.00234     -10.46052      -3.73257      -3.48926
     5  C(13)             -0.00806      -9.06147      -3.23336      -3.02258
     6  C(13)              0.00822       9.24367       3.29837       3.08336
     7  H(1)              -0.00021      -0.95102      -0.33935      -0.31723
     8  H(1)               0.00013       0.58577       0.20902       0.19539
     9  H(1)               0.00151       6.73441       2.40301       2.24636
    10  C(13)              0.00294       3.30800       1.18038       1.10343
    11  H(1)              -0.00016      -0.73242      -0.26135      -0.24431
    12  H(1)               0.00026       1.14742       0.40943       0.38274
    13  H(1)              -0.00002      -0.08557      -0.03053      -0.02854
    14  O(17)              0.35337    -214.20847     -76.43491     -71.45225
    15  O(17)              0.07374     -44.70292     -15.95111     -14.91129
    16  H(1)              -0.00690     -30.82704     -10.99986     -10.28280
 --------------------------------------------------------
       Center         ----  Spin Dipole Couplings  ----
                      3XX-RR        3YY-RR        3ZZ-RR
 --------------------------------------------------------
     1   Atom        0.127442     -0.336893      0.209451
     2   Atom        0.014076     -0.039005      0.024929
     3   Atom        0.182073     -0.346008      0.163935
     4   Atom        0.008311     -0.016243      0.007932
     5   Atom       -0.004073      0.000511      0.003562
     6   Atom       -0.006581      0.016718     -0.010137
     7   Atom       -0.001103      0.005683     -0.004580
     8   Atom       -0.001535      0.003146     -0.001611
     9   Atom        0.002511      0.001021     -0.003532
    10   Atom        0.003107     -0.004514      0.001407
    11   Atom        0.001744     -0.002032      0.000288
    12   Atom       -0.001686     -0.002586      0.004272
    13   Atom       -0.002207     -0.003106      0.005313
    14   Atom       -0.284777      0.063191      0.221586
    15   Atom        0.620316      0.186629     -0.806945
    16   Atom       -0.037231     -0.022572      0.059802
 --------------------------------------------------------
                        XY            XZ            YZ
 --------------------------------------------------------
     1   Atom       -0.069773      0.503850     -0.059197
     2   Atom       -0.011138     -0.023720      0.009237
     3   Atom       -0.056073      0.504136     -0.044998
     4   Atom       -0.010262     -0.022152      0.009262
     5   Atom        0.000063     -0.000369     -0.003138
     6   Atom       -0.001518      0.001785     -0.000497
     7   Atom       -0.001873     -0.000549      0.001907
     8   Atom       -0.001663      0.002741     -0.004582
     9   Atom       -0.000801      0.002757     -0.002594
    10   Atom        0.003470     -0.005454     -0.000414
    11   Atom        0.000995     -0.004210      0.001579
    12   Atom        0.002476      0.000185      0.001211
    13   Atom        0.001493     -0.002286     -0.001281
    14   Atom       -0.340039      0.140189      0.030668
    15   Atom        1.258811     -0.264555     -0.220585
    16   Atom        0.011666     -0.016794      0.049246
 --------------------------------------------------------


 ---------------------------------------------------------------------------------
              Anisotropic Spin Dipole Couplings in Principal Axis System
 ---------------------------------------------------------------------------------

       Atom             a.u.   MegaHertz   Gauss  10(-4) cm-1        Axes

              Baa    -0.3528   -47.348   -16.895   -15.794  0.4727  0.8139 -0.3379
     1 C(13)  Bbb    -0.3292   -44.178   -15.764   -14.736 -0.5655  0.5742  0.5920
              Bcc     0.6821    91.526    32.659    30.530  0.6759 -0.0888  0.7317
 
              Baa    -0.0416   -22.191    -7.918    -7.402  0.1634  0.9834 -0.0783
     2 H(1)   Bbb    -0.0046    -2.457    -0.877    -0.819  0.7656 -0.0764  0.6388
              Bcc     0.0462    24.648     8.795     8.222 -0.6222  0.1643  0.7654
 
              Baa    -0.3533    25.565     9.122     8.528  0.2633  0.9489 -0.1741
     3 O(17)  Bbb    -0.3289    23.798     8.492     7.938 -0.6509  0.3079  0.6939
              Bcc     0.6822   -49.363   -17.614   -16.466  0.7121 -0.0694  0.6987
 
              Baa    -0.0201   -10.723    -3.826    -3.577  0.2589  0.9593 -0.1124
     4 H(1)   Bbb    -0.0140    -7.452    -2.659    -2.486  0.6787 -0.0979  0.7279
              Bcc     0.0341    18.176     6.485     6.063  0.6873 -0.2647 -0.6764
 
              Baa    -0.0041    -0.549    -0.196    -0.183  0.9979  0.0266  0.0590
     5 C(13)  Bbb    -0.0014    -0.194    -0.069    -0.065 -0.0538  0.8479  0.5275
              Bcc     0.0055     0.743     0.265     0.248 -0.0360 -0.5295  0.8475
 
              Baa    -0.0109    -1.460    -0.521    -0.487 -0.3848 -0.0045  0.9230
     6 C(13)  Bbb    -0.0060    -0.799    -0.285    -0.266  0.9206  0.0701  0.3842
              Bcc     0.0168     2.258     0.806     0.753 -0.0664  0.9975 -0.0228
 
              Baa    -0.0049    -2.633    -0.940    -0.878  0.0597 -0.1662  0.9843
     7 H(1)   Bbb    -0.0016    -0.846    -0.302    -0.282  0.9672  0.2534 -0.0158
              Bcc     0.0065     3.479     1.241     1.160 -0.2468  0.9530  0.1759
 
              Baa    -0.0052    -2.749    -0.981    -0.917 -0.4528  0.3598  0.8158
     8 H(1)   Bbb    -0.0018    -0.938    -0.335    -0.313  0.8301  0.5042  0.2383
              Bcc     0.0069     3.687     1.316     1.230 -0.3256  0.7851 -0.5269
 
              Baa    -0.0053    -2.854    -1.019    -0.952 -0.2821  0.3312  0.9004
     9 H(1)   Bbb     0.0008     0.440     0.157     0.147  0.5761  0.8090 -0.1171
              Bcc     0.0045     2.414     0.861     0.805  0.7672 -0.4857  0.4190
 
              Baa    -0.0063    -0.851    -0.304    -0.284 -0.4723  0.8330 -0.2881
    10 C(13)  Bbb    -0.0021    -0.283    -0.101    -0.094  0.4397  0.5059  0.7421
              Bcc     0.0084     1.133     0.404     0.378  0.7640  0.2239 -0.6052
 
              Baa    -0.0046    -2.451    -0.875    -0.818  0.5102 -0.5860  0.6295
    11 H(1)   Bbb    -0.0007    -0.376    -0.134    -0.125  0.4039  0.8094  0.4262
              Bcc     0.0053     2.826     1.009     0.943  0.7593 -0.0368 -0.6497
 
              Baa    -0.0047    -2.522    -0.900    -0.841 -0.6254  0.7749 -0.0915
    12 H(1)   Bbb     0.0002     0.097     0.035     0.032  0.7726  0.5984 -0.2121
              Bcc     0.0045     2.425     0.865     0.809  0.1097  0.2033  0.9730
 
              Baa    -0.0042    -2.257    -0.806    -0.753 -0.6258  0.7787 -0.0454
    13 H(1)   Bbb    -0.0020    -1.074    -0.383    -0.358  0.7258  0.6026  0.3319
              Bcc     0.0062     3.331     1.189     1.111 -0.2858 -0.1747  0.9422
 
              Baa    -0.5177    37.462    13.367    12.496  0.8446  0.5039 -0.1811
    14 O(17)  Bbb     0.2110   -15.269    -5.448    -5.093 -0.1895  0.5975  0.7792
              Bcc     0.3067   -22.193    -7.919    -7.403 -0.5008  0.6238 -0.6001
 
              Baa    -0.8740    63.244    22.567    21.096 -0.6507  0.7546 -0.0847
    15 O(17)  Bbb    -0.8536    61.766    22.040    20.603  0.0476  0.1518  0.9873
              Bcc     1.7276  -125.010   -44.607   -41.699  0.7579  0.6384 -0.1347
 
              Baa    -0.0599   -31.939   -11.397   -10.654 -0.6277  0.6850 -0.3700
    16 H(1)   Bbb    -0.0238   -12.722    -4.539    -4.244  0.7737  0.6016 -0.1988
              Bcc     0.0837    44.661    15.936    14.897 -0.0864  0.4110  0.9075
 

 ---------------------------------------------------------------------------------

 -------------------------------------------------------------------
 Center     Atomic                   Forces (Hartrees/Bohr)
 Number     Number              X              Y              Z
 -------------------------------------------------------------------
    1          6           0.000012897   -0.002733728    0.000618279
    2          1           0.001000750    0.000234594   -0.001096657
    3          8           0.004245499    0.003327495   -0.004406781
    4          1          -0.003982784    0.000750126    0.004195579
    5          6          -0.000980878   -0.000914946   -0.000472217
    6          6          -0.000547905    0.000947981    0.000068598
    7          1           0.001078936   -0.000372917   -0.001341470
    8          1           0.001061273   -0.000139896    0.001195565
    9          1          -0.000921131   -0.001333568    0.000356081
   10          6           0.000483157   -0.000309868   -0.000694227
   11          1          -0.001025239    0.001292900    0.000236163
   12          1          -0.000943691   -0.001234245    0.000718460
   13          1           0.000890986    0.000195875    0.001274352
   14          8          -0.003594816   -0.002891027   -0.000303868
   15          8           0.001735098    0.005521822    0.006124636
   16          1           0.001487847   -0.002340597   -0.006472493
 -------------------------------------------------------------------
 Cartesian Forces:  Max     0.006472493 RMS     0.002306076

 GradGradGradGradGradGradGradGradGradGradGradGradGradGradGradGradGradGrad
 Berny optimization.
 Internal  Forces:  Max     0.007003463 RMS     0.001503170
 Search for a saddle point.
 Step number   1 out of a maximum of  79 on scan point     1 out of    37
 All quantities printed in internal units (Hartrees-Bohrs-Radians)
 Swaping is turned off.
 Second derivative matrix not updated -- analytic derivatives used.
     Eigenvalues ---   -0.07006   0.00209   0.00291   0.00403   0.00515
     Eigenvalues ---    0.01359   0.01739   0.03307   0.04527   0.04633
     Eigenvalues ---    0.04695   0.04878   0.06276   0.08694   0.11166
     Eigenvalues ---    0.12148   0.12289   0.12650   0.12775   0.13253
     Eigenvalues ---    0.14387   0.15082   0.17204   0.17739   0.19074
     Eigenvalues ---    0.21789   0.22818   0.27824   0.28300   0.31510
     Eigenvalues ---    0.33869   0.34465   0.34639   0.34806   0.35600
     Eigenvalues ---    0.35733   0.37749   0.38463   0.49456   0.52586
     Eigenvalues ---    0.527421000.000001000.000001000.000001000.00000
     Eigenvalues --- 1000.000001000.000001000.000001000.000001000.00000
     Eigenvalues --- 1000.000001000.000001000.000001000.000001000.00000
     Eigenvalues --- 1000.000001000.000001000.000001000.000001000.00000
     Eigenvalues --- 1000.000001000.000001000.000001000.000001000.00000
     Eigenvalues --- 1000.000001000.000001000.000001000.00000
 Eigenvectors required to have negative eigenvalues:
                          R1        R2        R3        R4        R5
         1              0.00254  -0.07199  -0.06118   0.00937   0.00371
                          R6        R7        R8        R9        R10
         1              0.00336  -0.14229   0.00114   0.00312  -0.00121
                          R11       R12       R13       R14       R15
         1              0.00299  -0.00096   0.00250   0.80421   0.00476
                          A1        A2        A3        A4        A5
         1             -0.00484  -0.00868   0.01874  -0.00113   0.07825
                          A6        A7        A8        A9        A10
         1              0.05979  -0.27642  -0.04931   0.07205   0.09000
                          A11       A12       A13       A14       A15
         1              0.00381   0.01472  -0.02475   0.00012  -0.00255
                          A16       A17       A18       A19       A20
         1              0.00818   0.00715  -0.01989   0.01119  -0.00290
                          A21       A22       A23       A24       D1
         1             -0.00215   0.00563  -0.04985  -0.10425   0.03376
                          D2        D3        D4        D5        D6
         1              0.00000  -0.04276   0.01973  -0.00941  -0.00583
                          D7        D8        D9        D10       D11
         1              0.05666   0.02752   0.11589   0.12852   0.13152
                          D12       D13       D14       D15       D16
         1              0.00308   0.01572   0.01872  -0.13877  -0.12614
                          D17       D18       D19       D20       D21
         1             -0.12313  -0.12209  -0.13354  -0.13278   0.00105
                          D22       D23       D24       D25       D26
         1             -0.01040  -0.00964   0.13317   0.12172   0.12248
                          D27       D28       D29       D30
         1             -0.00858   0.01734  -0.04984  -0.01118
 RFO step:  Lambda0=2.034325668D-04 Lambda=-4.26835074D-04.
 Linear search not attempted -- option 19 set.
 Iteration  1 RMS(Cart)=  0.01943351 RMS(Int)=  0.00032827
 Iteration  2 RMS(Cart)=  0.00032919 RMS(Int)=  0.00001616
 Iteration  3 RMS(Cart)=  0.00000021 RMS(Int)=  0.00001616
 Iteration  1 RMS(Cart)=  0.00000146 RMS(Int)=  0.00000129
 Iteration  2 RMS(Cart)=  0.00000056 RMS(Int)=  0.00000144
 Variable       Old X    -DE/DX   Delta X   Delta X   Delta X     New X
                                 (Linear)    (Quad)   (Total)
    R1        2.04297   0.00142   0.00000   0.00364   0.00364   2.04661
    R2        2.51712   0.00390   0.00000   0.00528   0.00528   2.52239
    R3        2.80816   0.00213   0.00000   0.00199   0.00199   2.81016
    R4        1.82757   0.00583   0.00000   0.01188   0.01188   1.83945
    R5        2.88900   0.00113   0.00000   0.00266   0.00266   2.89166
    R6        2.89083   0.00157   0.00000   0.00296   0.00296   2.89379
    R7        2.66692   0.00075   0.00000  -0.00469  -0.00469   2.66223
    R8        2.06513   0.00174   0.00000   0.00498   0.00498   2.07012
    R9        2.06573   0.00160   0.00000   0.00467   0.00467   2.07040
   R10        2.06083   0.00164   0.00000   0.00466   0.00466   2.06549
   R11        2.06989   0.00161   0.00000   0.00451   0.00451   2.07440
   R12        2.05981   0.00167   0.00000   0.00496   0.00496   2.06477
   R13        2.06631   0.00156   0.00000   0.00475   0.00475   2.07106
   R14        3.28770  -0.00453   0.00000   0.02483   0.02483   3.31253
   R15        1.82624   0.00700   0.00000   0.01333   0.01333   1.83957
    A1        1.98128  -0.00142   0.00000  -0.00730  -0.00733   1.97396
    A2        2.11898  -0.00039   0.00000   0.00038   0.00036   2.11934
    A3        2.17049   0.00182   0.00000   0.00882   0.00880   2.17929
    A4        1.91321   0.00012   0.00000  -0.00213  -0.00213   1.91108
    A5        1.96825  -0.00035   0.00000   0.00333   0.00333   1.97158
    A6        2.01092   0.00071   0.00000   0.00711   0.00713   2.01804
    A7        1.57618  -0.00019   0.00000  -0.02786  -0.02783   1.54836
    A8        1.96192  -0.00053   0.00000  -0.00243  -0.00250   1.95941
    A9        1.96129   0.00027   0.00000   0.00742   0.00737   1.96866
   A10        1.95411   0.00022   0.00000   0.00927   0.00927   1.96338
   A11        1.92348   0.00020   0.00000   0.00314   0.00314   1.92663
   A12        1.94943   0.00008   0.00000   0.00016   0.00016   1.94959
   A13        1.89087   0.00027   0.00000   0.00039   0.00039   1.89126
   A14        1.89995  -0.00022   0.00000  -0.00218  -0.00218   1.89777
   A15        1.88805  -0.00010   0.00000   0.00046   0.00045   1.88851
   A16        1.91107  -0.00023   0.00000  -0.00198  -0.00198   1.90909
   A17        1.94469   0.00059   0.00000   0.00342   0.00342   1.94811
   A18        1.88905   0.00024   0.00000   0.00148   0.00147   1.89053
   A19        1.95438  -0.00001   0.00000  -0.00063  -0.00063   1.95375
   A20        1.85228  -0.00026   0.00000   0.00103   0.00102   1.85330
   A21        1.91380  -0.00030   0.00000  -0.00153  -0.00153   1.91227
   A22        1.90633  -0.00028   0.00000  -0.00380  -0.00380   1.90253
   A23        1.88351  -0.00006   0.00000   0.00009   0.00009   1.88360
   A24        1.61940  -0.00129   0.00000  -0.01275  -0.01275   1.60665
    D1        3.10860   0.00004   0.00000   0.01260   0.01257   3.12118
    D2        0.13431   0.00001   0.00000   0.00000   0.00000   0.13431
    D3        0.62103   0.00019   0.00000  -0.00901  -0.00901   0.61201
    D4        2.90561  -0.00026   0.00000  -0.00245  -0.00244   2.90317
    D5       -1.37781   0.00005   0.00000  -0.00492  -0.00495  -1.38276
    D6       -2.70044   0.00015   0.00000   0.00394   0.00395  -2.69648
    D7       -0.41586  -0.00029   0.00000   0.01050   0.01053  -0.40533
    D8        1.58391   0.00001   0.00000   0.00803   0.00802   1.59193
    D9       -0.77136   0.00024   0.00000   0.02383   0.02384  -0.74752
   D10        1.34293   0.00016   0.00000   0.02334   0.02335   1.36628
   D11       -2.83396   0.00009   0.00000   0.02125   0.02125  -2.81271
   D12       -3.08030   0.00006   0.00000   0.01280   0.01281  -3.06750
   D13       -0.96602  -0.00002   0.00000   0.01231   0.01232  -0.95370
   D14        1.14028  -0.00009   0.00000   0.01021   0.01022   1.15050
   D15        0.97953  -0.00002   0.00000  -0.00401  -0.00402   0.97551
   D16        3.09381  -0.00011   0.00000  -0.00450  -0.00451   3.08930
   D17       -1.08307  -0.00017   0.00000  -0.00660  -0.00661  -1.08968
   D18        0.91764   0.00023   0.00000  -0.00131  -0.00131   0.91633
   D19        2.94787   0.00040   0.00000   0.00275   0.00275   2.95062
   D20       -1.23304   0.00020   0.00000  -0.00139  -0.00139  -1.23443
   D21       -3.07793  -0.00012   0.00000   0.00797   0.00797  -3.06996
   D22       -1.04770   0.00004   0.00000   0.01203   0.01203  -1.03567
   D23        1.05457  -0.00016   0.00000   0.00789   0.00789   1.06246
   D24       -0.85076  -0.00001   0.00000   0.02376   0.02376  -0.82700
   D25        1.17946   0.00015   0.00000   0.02782   0.02782   1.20728
   D26       -3.00145  -0.00005   0.00000   0.02368   0.02368  -2.97776
   D27        3.13643  -0.00050   0.00000  -0.01531  -0.01530   3.12113
   D28        1.13130  -0.00008   0.00000  -0.00771  -0.00767   1.12364
   D29       -1.09620   0.00023   0.00000  -0.01823  -0.01828  -1.11448
   D30       -2.27497   0.00029   0.00000   0.05187   0.05187  -2.22311
         Item               Value     Threshold  Converged?
 Maximum Force            0.007003     0.000450     NO 
 RMS     Force            0.001514     0.000300     NO 
 Maximum Displacement     0.082547     0.001800     NO 
 RMS     Displacement     0.019506     0.001200     NO 
 Predicted change in Energy=-1.130328D-04
 GradGradGradGradGradGradGradGradGradGradGradGradGradGradGradGradGradGrad

                          Input orientation:                          
 ---------------------------------------------------------------------
 Center     Atomic     Atomic              Coordinates (Angstroms)
 Number     Number      Type              X           Y           Z
 ---------------------------------------------------------------------
    1          6             0        0.020535    0.126788    0.113294
    2          1             0        0.726824   -0.077452   -0.681923
    3          8             0       -0.164755    1.431287    0.326890
    4          1             0       -0.819954    1.554513    1.036130
    5          6             0       -0.785361   -0.958850    0.732407
    6          6             0       -0.026437   -2.283957    0.830605
    7          1             0        0.526507   -2.476570   -0.095236
    8          1             0        0.679195   -2.285576    1.668718
    9          1             0       -0.753976   -3.088098    0.967390
   10          6             0       -1.490491   -0.595585    2.042294
   11          1             0       -2.089989    0.318161    1.938973
   12          1             0       -2.193739   -1.395221    2.286969
   13          1             0       -0.781766   -0.477921    2.869933
   14          8             0       -1.650717   -0.906438   -0.378048
   15          8             0       -2.889841   -2.125959   -0.154316
   16          1             0       -2.719023   -2.510706   -1.032048
 ---------------------------------------------------------------------
                    Distance matrix (angstroms):
                    1          2          3          4          5
     1  C    0.000000
     2  H    1.083018   0.000000
     3  O    1.334793   2.022105   0.000000
     4  H    1.896430   2.829760   0.973393   0.000000
     5  C    1.487071   2.250311   2.502469   2.531884   0.000000
     6  C    2.515638   2.779175   3.751786   3.925017   1.530202
     7  H    2.660257   2.477922   3.990912   4.398020   2.170130
     8  H    2.944942   3.225461   4.040771   4.170600   2.186734
     9  H    3.415383   3.738582   4.602420   4.643589   2.142405
    10  C    2.554617   3.550537   2.967895   2.466760   1.531330
    11  H    2.797149   3.867822   2.746706   1.989141   2.188290
    12  H    3.456066   4.368127   3.993475   3.486088   2.142572
    13  H    2.934011   3.879679   3.239267   2.737714   2.190964
    14  O    2.025354   2.536191   2.858318   2.957423   1.408793
    15  O    3.690092   4.189872   4.506846   4.387194   2.564617
    16  H    3.971570   4.232869   4.889817   4.940630   3.043125
                    6          7          8          9         10
     6  C    0.000000
     7  H    1.095458   0.000000
     8  H    1.095606   1.780822   0.000000
     9  H    1.093008   1.772789   1.786024   0.000000
    10  C    2.542094   3.489329   2.775458   2.812560   0.000000
    11  H    3.501106   4.335271   3.810625   3.785697   1.097727
    12  H    2.758269   3.774117   3.070622   2.584577   1.092630
    13  H    2.826862   3.807677   2.616284   3.230088   1.095958
    14  O    2.448813   2.699185   3.394077   2.715508   2.445476
    15  O    3.032180   3.434800   4.010854   2.597278   3.020814
    16  H    3.281906   3.378202   4.346574   2.862262   3.824729
                   11         12         13         14         15
    11  H    0.000000
    12  H    1.751440   0.000000
    13  H    1.792172   1.781841   0.000000
    14  O    2.657290   2.763349   3.389407   0.000000
    15  O    3.315923   2.641668   4.038081   1.752916   0.000000
    16  H    4.150318   3.540636   4.807352   2.035355   0.973459
                   16
    16  H    0.000000
 Symmetry turned off by external request.
 Stoichiometry    C4H9O3(2)
 Framework group  C1[X(C4H9O3)]
 Deg. of freedom    42
 Full point group                 C1
 Rotational constants (GHZ):      3.5603664      1.8740427      1.7350173
 Standard basis: 6-31G(d) (6D, 7F)
 Integral buffers will be    131072 words long.
 Raffenetti 2 integral format.
 Two-electron integral symmetry is turned off.
   123 basis functions,   232 primitive gaussians,   123 cartesian basis functions
    29 alpha electrons       28 beta electrons
       nuclear repulsion energy       330.9503562100 Hartrees.
 NAtoms=   16 NActive=   16 NUniq=   16 SFac= 7.50D-01 NAtFMM=   80 NAOKFM=F Big=F
 One-electron integrals computed using PRISM.
 NBasis=   123 RedAO= T  NBF=   123
 NBsUse=   123 1.00D-06 NBFU=   123
 Initial guess read from the read-write file:
 <S**2> of initial guess= 0.7894
 Harris functional with IExCor=  402 diagonalized for initial guess.
 ExpMin= 1.61D-01 ExpMax= 5.48D+03 ExpMxC= 8.25D+02 IAcc=1 IRadAn=         1 AccDes= 1.00D-06
 HarFok:  IExCor= 402 AccDes= 1.00D-06 IRadAn=         1 IDoV=1
 ScaDFX=  1.000000  1.000000  1.000000  1.000000
 Requested convergence on RMS density matrix=1.00D-08 within 128 cycles.
 Requested convergence on MAX density matrix=1.00D-06.
 Requested convergence on             energy=1.00D-06.
 No special actions if energy rises.
 Keep R1 and R2 integrals in memory in canonical form, NReq=    60141286.
 Integral accuracy reduced to 1.0D-05 until final iterations.
 Initial convergence to 1.0D-05 achieved.  Increase integral accuracy.
 SCF Done:  E(UB+HF-LYP) =  -383.338758766     A.U. after   20 cycles
             Convg  =    0.3026D-08             -V/T =  2.0089
             S**2   =   0.7928
 Annihilation of the first spin contaminant:
 S**2 before annihilation     0.7928,   after     0.7502
 -------------------------------------------------------------------
 Center     Atomic                   Forces (Hartrees/Bohr)
 Number     Number              X              Y              Z
 -------------------------------------------------------------------
    1          6          -0.000237210   -0.000161687   -0.000174390
    2          1           0.000025965   -0.000003274    0.000012478
    3          8           0.000138243    0.000098363   -0.000023871
    4          1          -0.000112498    0.000023807    0.000049773
    5          6           0.000132044   -0.000076804    0.000200657
    6          6          -0.000019501   -0.000006665   -0.000010415
    7          1           0.000017801    0.000000061   -0.000009264
    8          1           0.000002206   -0.000001958    0.000010274
    9          1          -0.000000294   -0.000022182    0.000000687
   10          6          -0.000011516    0.000002143    0.000000624
   11          1          -0.000014683   -0.000002567    0.000008309
   12          1           0.000000940   -0.000008365    0.000023182
   13          1           0.000012280    0.000011974    0.000002854
   14          8           0.000097820    0.000194966   -0.000104834
   15          8          -0.000079053    0.000011599    0.000173261
   16          1           0.000047458   -0.000059412   -0.000159325
 -------------------------------------------------------------------
 Cartesian Forces:  Max     0.000237210 RMS     0.000085555

 GradGradGradGradGradGradGradGradGradGradGradGradGradGradGradGradGradGrad
 Berny optimization.
 Internal  Forces:  Max     0.000176437 RMS     0.000046646
 Search for a saddle point.
 Step number   2 out of a maximum of  79 on scan point     1 out of    37
 All quantities printed in internal units (Hartrees-Bohrs-Radians)
 Swaping is turned off.
 Update second derivatives using D2CorX and points  1  2
     Eigenvalues ---   -0.07153   0.00223   0.00291   0.00458   0.00514
     Eigenvalues ---    0.01359   0.01739   0.03305   0.04525   0.04631
     Eigenvalues ---    0.04695   0.04876   0.06247   0.08694   0.11166
     Eigenvalues ---    0.12145   0.12292   0.12636   0.12772   0.13240
     Eigenvalues ---    0.14383   0.15083   0.17196   0.17734   0.19071
     Eigenvalues ---    0.21783   0.22789   0.27822   0.28299   0.31513
     Eigenvalues ---    0.33869   0.34465   0.34639   0.34806   0.35599
     Eigenvalues ---    0.35731   0.37749   0.38460   0.49449   0.52466
     Eigenvalues ---    0.527421000.000001000.000001000.000001000.00000
     Eigenvalues --- 1000.000001000.000001000.000001000.000001000.00000
     Eigenvalues --- 1000.000001000.000001000.000001000.000001000.00000
     Eigenvalues --- 1000.000001000.000001000.000001000.000001000.00000
     Eigenvalues --- 1000.000001000.000001000.000001000.000001000.00000
     Eigenvalues --- 1000.000001000.000001000.000001000.00000
 Eigenvectors required to have negative eigenvalues:
                          R1        R2        R3        R4        R5
         1              0.00262  -0.07014  -0.06238   0.01059   0.00397
                          R6        R7        R8        R9        R10
         1              0.00371  -0.14067   0.00141   0.00326  -0.00091
                          R11       R12       R13       R14       R15
         1              0.00306  -0.00073   0.00269   0.80022   0.00666
                          A1        A2        A3        A4        A5
         1             -0.00583  -0.00913   0.01992  -0.00108   0.07897
                          A6        A7        A8        A9        A10
         1              0.06136  -0.27884  -0.05140   0.07245   0.09086
                          A11       A12       A13       A14       A15
         1              0.00413   0.01420  -0.02390  -0.00012  -0.00253
                          A16       A17       A18       A19       A20
         1              0.00781   0.00762  -0.01895   0.01038  -0.00286
                          A21       A22       A23       A24       D1
         1             -0.00235   0.00525  -0.04921  -0.10421   0.03485
                          D2        D3        D4        D5        D6
         1              0.00000  -0.04487   0.01908  -0.01084  -0.00671
                          D7        D8        D9        D10       D11
         1              0.05724   0.02733   0.11856   0.13083   0.13362
                          D12       D13       D14       D15       D16
         1              0.00394   0.01621   0.01899  -0.13925  -0.12698
                          D17       D18       D19       D20       D21
         1             -0.12420  -0.12279  -0.13348  -0.13302   0.00181
                          D22       D23       D24       D25       D26
         1             -0.00887  -0.00842   0.13517   0.12449   0.12494
                          D27       D28       D29       D30
         1             -0.01017   0.01700  -0.05234  -0.00849
 RFO step:  Lambda0=4.404683169D-07 Lambda=-1.03980352D-06.
 Linear search not attempted -- option 19 set.
 Iteration  1 RMS(Cart)=  0.00159295 RMS(Int)=  0.00000162
 Iteration  2 RMS(Cart)=  0.00000174 RMS(Int)=  0.00000004
 Iteration  3 RMS(Cart)=  0.00000000 RMS(Int)=  0.00000004
 Iteration  1 RMS(Cart)=  0.00000022 RMS(Int)=  0.00000020
 Variable       Old X    -DE/DX   Delta X   Delta X   Delta X     New X
                                 (Linear)    (Quad)   (Total)
    R1        2.04661   0.00001   0.00000   0.00000   0.00000   2.04660
    R2        2.52239   0.00012   0.00000   0.00058   0.00058   2.52297
    R3        2.81016  -0.00007   0.00000  -0.00017  -0.00017   2.80999
    R4        1.83945   0.00011   0.00000   0.00019   0.00019   1.83963
    R5        2.89166   0.00003   0.00000  -0.00004  -0.00004   2.89162
    R6        2.89379   0.00004   0.00000   0.00002   0.00002   2.89382
    R7        2.66223   0.00004   0.00000   0.00090   0.00090   2.66314
    R8        2.07012   0.00002   0.00000   0.00004   0.00004   2.07016
    R9        2.07040   0.00001   0.00000   0.00002   0.00002   2.07042
   R10        2.06549   0.00002   0.00000   0.00005   0.00005   2.06553
   R11        2.07440   0.00001   0.00000  -0.00003  -0.00003   2.07437
   R12        2.06477   0.00001   0.00000   0.00005   0.00005   2.06482
   R13        2.07106   0.00001   0.00000   0.00005   0.00005   2.07111
   R14        3.31253   0.00005   0.00000  -0.00328  -0.00328   3.30925
   R15        1.83957   0.00018   0.00000   0.00033   0.00033   1.83990
    A1        1.97396  -0.00003   0.00000  -0.00011  -0.00011   1.97385
    A2        2.11934  -0.00002   0.00000   0.00012   0.00012   2.11946
    A3        2.17929   0.00006   0.00000   0.00013   0.00013   2.17942
    A4        1.91108   0.00002   0.00000   0.00000   0.00000   1.91108
    A5        1.97158   0.00003   0.00000   0.00012   0.00012   1.97170
    A6        2.01804   0.00005   0.00000   0.00012   0.00012   2.01816
    A7        1.54836  -0.00013   0.00000  -0.00029  -0.00029   1.54807
    A8        1.95941  -0.00006   0.00000   0.00014   0.00014   1.95956
    A9        1.96866   0.00004   0.00000  -0.00019  -0.00019   1.96847
   A10        1.96338   0.00005   0.00000   0.00000   0.00000   1.96337
   A11        1.92663   0.00000   0.00000   0.00018   0.00018   1.92681
   A12        1.94959   0.00000   0.00000  -0.00015  -0.00015   1.94944
   A13        1.89126   0.00002   0.00000   0.00011   0.00011   1.89137
   A14        1.89777   0.00000   0.00000  -0.00009  -0.00009   1.89767
   A15        1.88851  -0.00001   0.00000   0.00009   0.00009   1.88860
   A16        1.90909  -0.00001   0.00000  -0.00013  -0.00013   1.90896
   A17        1.94811   0.00002   0.00000  -0.00013  -0.00013   1.94799
   A18        1.89053   0.00002   0.00000   0.00051   0.00051   1.89104
   A19        1.95375  -0.00001   0.00000  -0.00030  -0.00030   1.95346
   A20        1.85330  -0.00001   0.00000   0.00013   0.00013   1.85343
   A21        1.91227   0.00000   0.00000  -0.00001  -0.00001   1.91226
   A22        1.90253  -0.00001   0.00000  -0.00019  -0.00019   1.90234
   A23        1.88360   0.00000   0.00000   0.00040   0.00040   1.88400
   A24        1.60665  -0.00004   0.00000   0.00048   0.00048   1.60713
    D1        3.12118  -0.00002   0.00000   0.00107   0.00106   3.12224
    D2        0.13431  -0.00006   0.00000   0.00000   0.00000   0.13431
    D3        0.61201  -0.00003   0.00000  -0.00250  -0.00250   0.60951
    D4        2.90317  -0.00003   0.00000  -0.00205  -0.00205   2.90112
    D5       -1.38276  -0.00003   0.00000  -0.00218  -0.00218  -1.38494
    D6       -2.69648   0.00001   0.00000  -0.00137  -0.00137  -2.69786
    D7       -0.40533   0.00001   0.00000  -0.00092  -0.00092  -0.40625
    D8        1.59193   0.00001   0.00000  -0.00105  -0.00105   1.59088
    D9       -0.74752   0.00006   0.00000   0.00222   0.00222  -0.74529
   D10        1.36628   0.00006   0.00000   0.00213   0.00213   1.36840
   D11       -2.81271   0.00006   0.00000   0.00194   0.00194  -2.81077
   D12       -3.06750   0.00001   0.00000   0.00180   0.00180  -3.06569
   D13       -0.95370   0.00000   0.00000   0.00170   0.00170  -0.95200
   D14        1.15050   0.00000   0.00000   0.00152   0.00152   1.15201
   D15        0.97551  -0.00005   0.00000   0.00185   0.00185   0.97735
   D16        3.08930  -0.00005   0.00000   0.00175   0.00175   3.09105
   D17       -1.08968  -0.00005   0.00000   0.00156   0.00156  -1.08812
   D18        0.91633  -0.00004   0.00000   0.00236   0.00236   0.91869
   D19        2.95062  -0.00004   0.00000   0.00276   0.00276   2.95338
   D20       -1.23443  -0.00004   0.00000   0.00268   0.00268  -1.23175
   D21       -3.06996   0.00000   0.00000   0.00280   0.00280  -3.06716
   D22       -1.03567   0.00001   0.00000   0.00320   0.00320  -1.03247
   D23        1.06246   0.00001   0.00000   0.00313   0.00313   1.06559
   D24       -0.82700   0.00006   0.00000   0.00266   0.00266  -0.82435
   D25        1.20728   0.00006   0.00000   0.00306   0.00306   1.21034
   D26       -2.97776   0.00006   0.00000   0.00298   0.00298  -2.97478
   D27        3.12113  -0.00002   0.00000  -0.00055  -0.00055   3.12058
   D28        1.12364  -0.00001   0.00000  -0.00053  -0.00053   1.12311
   D29       -1.11448  -0.00001   0.00000  -0.00056  -0.00056  -1.11503
   D30       -2.22311   0.00001   0.00000   0.00173   0.00173  -2.22138
         Item               Value     Threshold  Converged?
 Maximum Force            0.000176     0.000450     YES
 RMS     Force            0.000046     0.000300     YES
 Maximum Displacement     0.005367     0.001800     NO 
 RMS     Displacement     0.001593     0.001200     NO 
 Predicted change in Energy=-2.998611D-07
 GradGradGradGradGradGradGradGradGradGradGradGradGradGradGradGradGradGrad

                          Input orientation:                          
 ---------------------------------------------------------------------
 Center     Atomic     Atomic              Coordinates (Angstroms)
 Number     Number      Type              X           Y           Z
 ---------------------------------------------------------------------
    1          6             0        0.020267    0.126455    0.113249
    2          1             0        0.727619   -0.078110   -0.680936
    3          8             0       -0.165353    1.431370    0.325919
    4          1             0       -0.820838    1.554996    1.034961
    5          6             0       -0.785456   -0.958956    0.732776
    6          6             0       -0.027015   -2.284362    0.830346
    7          1             0        0.527105   -2.476204   -0.094980
    8          1             0        0.677610   -2.286966    1.669320
    9          1             0       -0.754845   -3.088534    0.965579
   10          6             0       -1.490109   -0.595614    2.042912
   11          1             0       -2.091455    0.316830    1.938990
   12          1             0       -2.191426   -1.396295    2.289809
   13          1             0       -0.780566   -0.475372    2.869514
   14          8             0       -1.651412   -0.906148   -0.377800
   15          8             0       -2.889372   -2.124546   -0.155114
   16          1             0       -2.717742   -2.510128   -1.032513
 ---------------------------------------------------------------------
                    Distance matrix (angstroms):
                    1          2          3          4          5
     1  C    0.000000
     2  H    1.083016   0.000000
     3  O    1.335098   2.022297   0.000000
     4  H    1.896771   2.830028   0.973492   0.000000
     5  C    1.486983   2.250304   2.502742   2.532295   0.000000
     6  C    2.515651   2.778668   3.752366   3.925900   1.530182
     7  H    2.659714   2.476773   3.990713   4.398214   2.170263
     8  H    2.945854   3.225716   4.042442   4.172341   2.186616
     9  H    3.415175   3.737829   4.602847   4.644517   2.142485
    10  C    2.554646   3.550419   2.968452   2.467591   1.531342
    11  H    2.798024   3.868742   2.748466   1.991177   2.188199
    12  H    3.456554   4.368497   3.994688   3.487588   2.142982
    13  H    2.932665   3.877903   3.237905   2.736713   2.190782
    14  O    2.025317   2.537189   2.857898   2.956852   1.409271
    15  O    3.688499   4.188916   4.505132   4.385674   2.563866
    16  H    3.970016   4.231883   4.888296   4.939425   3.042385
                    6          7          8          9         10
     6  C    0.000000
     7  H    1.095482   0.000000
     8  H    1.095618   1.780791   0.000000
     9  H    1.093032   1.772888   1.785971   0.000000
    10  C    2.542210   3.489463   2.774752   2.813523   0.000000
    11  H    3.501029   4.335312   3.810538   3.785573   1.097711
    12  H    2.757421   3.774100   3.067518   2.584767   1.092655
    13  H    2.828160   3.808091   2.616986   3.233302   1.095983
    14  O    2.449032   2.700185   3.394363   2.715015   2.445873
    15  O    3.031462   3.435055   4.009776   2.596427   3.021074
    16  H    3.280431   3.377743   4.344895   2.860050   3.825007
                   11         12         13         14         15
    11  H    0.000000
    12  H    1.751533   0.000000
    13  H    1.792174   1.781763   0.000000
    14  O    2.656469   2.765501   3.389540   0.000000
    15  O    3.313949   2.644830   4.039209   1.751179   0.000000
    16  H    4.148946   3.543368   4.808190   2.034321   0.973632
                   16
    16  H    0.000000
 Symmetry turned off by external request.
 Stoichiometry    C4H9O3(2)
 Framework group  C1[X(C4H9O3)]
 Deg. of freedom    42
 Full point group                 C1
 Rotational constants (GHZ):      3.5588718      1.8748829      1.7354359
 Standard basis: 6-31G(d) (6D, 7F)
 Integral buffers will be    131072 words long.
 Raffenetti 2 integral format.
 Two-electron integral symmetry is turned off.
   123 basis functions,   232 primitive gaussians,   123 cartesian basis functions
    29 alpha electrons       28 beta electrons
       nuclear repulsion energy       330.9612446642 Hartrees.
 NAtoms=   16 NActive=   16 NUniq=   16 SFac= 7.50D-01 NAtFMM=   80 NAOKFM=F Big=F
 One-electron integrals computed using PRISM.
 NBasis=   123 RedAO= T  NBF=   123
 NBsUse=   123 1.00D-06 NBFU=   123
 Initial guess read from the read-write file:
 <S**2> of initial guess= 0.7928
 Requested convergence on RMS density matrix=1.00D-08 within 128 cycles.
 Requested convergence on MAX density matrix=1.00D-06.
 Requested convergence on             energy=1.00D-06.
 No special actions if energy rises.
 Keep R1 and R2 integrals in memory in canonical form, NReq=    60141286.
 SCF Done:  E(UB+HF-LYP) =  -383.338759050     A.U. after   14 cycles
             Convg  =    0.4793D-08             -V/T =  2.0089
             S**2   =   0.7925
 Annihilation of the first spin contaminant:
 S**2 before annihilation     0.7925,   after     0.7502
 -------------------------------------------------------------------
 Center     Atomic                   Forces (Hartrees/Bohr)
 Number     Number              X              Y              Z
 -------------------------------------------------------------------
    1          6          -0.000064210    0.000015682   -0.000078343
    2          1          -0.000001857    0.000001643   -0.000003194
    3          8           0.000088749   -0.000005650    0.000082989
    4          1          -0.000053020    0.000000264   -0.000046551
    5          6           0.000019085   -0.000003125    0.000031813
    6          6           0.000001997    0.000001245   -0.000001772
    7          1           0.000001255    0.000001157   -0.000000502
    8          1           0.000001172    0.000000731   -0.000000407
    9          1           0.000001069    0.000000859   -0.000000734
   10          6           0.000000207    0.000000669    0.000000076
   11          1          -0.000001411   -0.000002130    0.000001842
   12          1           0.000003035   -0.000000813    0.000001456
   13          1           0.000001571    0.000002165    0.000000246
   14          8           0.000010951    0.000000418    0.000012438
   15          8          -0.000006633   -0.000008039   -0.000000519
   16          1          -0.000001960   -0.000005074    0.000001163
 -------------------------------------------------------------------
 Cartesian Forces:  Max     0.000088749 RMS     0.000025878

 GradGradGradGradGradGradGradGradGradGradGradGradGradGradGradGradGradGrad
 Berny optimization.
 Internal  Forces:  Max     0.000074348 RMS     0.000011884
 Search for a saddle point.
 Step number   3 out of a maximum of  79 on scan point     1 out of    37
 All quantities printed in internal units (Hartrees-Bohrs-Radians)
 Swaping is turned off.
 Update second derivatives using D2CorX and points  1  2  3
     Eigenvalues ---   -0.07139   0.00167   0.00291   0.00446   0.00539
     Eigenvalues ---    0.01355   0.01737   0.03314   0.04525   0.04632
     Eigenvalues ---    0.04695   0.04877   0.06263   0.08694   0.11165
     Eigenvalues ---    0.12147   0.12293   0.12641   0.12773   0.13246
     Eigenvalues ---    0.14384   0.15083   0.17198   0.17736   0.19071
     Eigenvalues ---    0.21780   0.22796   0.27822   0.28299   0.31514
     Eigenvalues ---    0.33870   0.34465   0.34639   0.34806   0.35599
     Eigenvalues ---    0.35731   0.37748   0.38459   0.49449   0.52466
     Eigenvalues ---    0.527421000.000001000.000001000.000001000.00000
     Eigenvalues --- 1000.000001000.000001000.000001000.000001000.00000
     Eigenvalues --- 1000.000001000.000001000.000001000.000001000.00000
     Eigenvalues --- 1000.000001000.000001000.000001000.000001000.00000
     Eigenvalues --- 1000.000001000.000001000.000001000.000001000.00000
     Eigenvalues --- 1000.000001000.000001000.000001000.00000
 Eigenvectors required to have negative eigenvalues:
                          R1        R2        R3        R4        R5
         1              0.00258  -0.06992  -0.06276   0.01058   0.00390
                          R6        R7        R8        R9        R10
         1              0.00365  -0.14012   0.00142   0.00327  -0.00091
                          R11       R12       R13       R14       R15
         1              0.00306  -0.00070   0.00268   0.79925   0.00666
                          A1        A2        A3        A4        A5
         1             -0.00580  -0.00897   0.01977  -0.00108   0.07928
                          A6        A7        A8        A9        A10
         1              0.06145  -0.27953  -0.05138   0.07259   0.09084
                          A11       A12       A13       A14       A15
         1              0.00422   0.01409  -0.02382  -0.00015  -0.00250
                          A16       A17       A18       A19       A20
         1              0.00776   0.00746  -0.01874   0.01027  -0.00277
                          A21       A22       A23       A24       D1
         1             -0.00230   0.00518  -0.04931  -0.10442   0.03532
                          D2        D3        D4        D5        D6
         1              0.00000  -0.04643   0.01804  -0.01226  -0.00778
                          D7        D8        D9        D10       D11
         1              0.05670   0.02640   0.11989   0.13210   0.13481
                          D12       D13       D14       D15       D16
         1              0.00475   0.01697   0.01968  -0.13855  -0.12633
                          D17       D18       D19       D20       D21
         1             -0.12362  -0.12204  -0.13257  -0.13213   0.00319
                          D22       D23       D24       D25       D26
         1             -0.00735  -0.00690   0.13675   0.12621   0.12666
                          D27       D28       D29       D30
         1             -0.01018   0.01688  -0.05256  -0.00766
 RFO step:  Lambda0=4.685441549D-10 Lambda=-1.67312093D-08.
 Linear search not attempted -- option 19 set.
 Iteration  1 RMS(Cart)=  0.00036886 RMS(Int)=  0.00000008
 Iteration  2 RMS(Cart)=  0.00000009 RMS(Int)=  0.00000000
 Iteration  1 RMS(Cart)=  0.00000009 RMS(Int)=  0.00000008
 Variable       Old X    -DE/DX   Delta X   Delta X   Delta X     New X
                                 (Linear)    (Quad)   (Total)
    R1        2.04660   0.00000   0.00000   0.00000   0.00000   2.04661
    R2        2.52297  -0.00001   0.00000  -0.00001  -0.00001   2.52296
    R3        2.80999   0.00001   0.00000   0.00003   0.00003   2.81003
    R4        1.83963   0.00000   0.00000   0.00000   0.00000   1.83964
    R5        2.89162   0.00000   0.00000   0.00001   0.00001   2.89163
    R6        2.89382   0.00000   0.00000   0.00002   0.00002   2.89383
[...]
    11  H   -0.005600  -0.000090  -0.000267   0.012320  -0.023003   0.006248
    12  H    0.004284  -0.000101   0.000224  -0.000484  -0.021496  -0.004899
    13  H   -0.000969  -0.000050  -0.000038   0.000019  -0.021082   0.000532
    14  O   -0.016478   0.000599  -0.006797   0.001060   0.136579  -0.051847
    15  O    0.005634  -0.000062  -0.000026  -0.000025  -0.005361  -0.004786
    16  H   -0.000687   0.000009   0.000004   0.000001  -0.001043   0.001225
              7          8          9         10         11         12
     1  C   -0.006587   0.000190   0.004241  -0.046579  -0.005600   0.004284
     2  H    0.005367   0.000276  -0.000130   0.004711  -0.000090  -0.000101
     3  O    0.000029  -0.000014  -0.000057  -0.005721  -0.000267   0.000224
     4  H   -0.000006  -0.000012  -0.000004   0.012794   0.012320  -0.000484
     5  C   -0.026042  -0.022783  -0.025797   0.333394  -0.023003  -0.021496
     6  C    0.360076   0.340894   0.358218  -0.079491   0.006248  -0.004899
     7  H    0.571260  -0.028414  -0.026777   0.006074  -0.000200  -0.000006
     8  H   -0.028414   0.589826  -0.025181   0.000186  -0.000107   0.000342
     9  H   -0.026777  -0.025181   0.528952  -0.006318  -0.000059   0.003394
    10  C    0.006074   0.000186  -0.006318   5.282412   0.343857   0.368942
    11  H   -0.000200  -0.000107  -0.000059   0.343857   0.582353  -0.023454
    12  H   -0.000006   0.000342   0.003394   0.368942  -0.023454   0.496774
    13  H   -0.000146   0.000683   0.000268   0.340722  -0.031340  -0.025291
    14  O    0.001880   0.003304  -0.001826  -0.060612   0.002911  -0.002052
    15  O   -0.000244   0.000279   0.013762  -0.002988  -0.000315   0.006268
    16  H    0.000103  -0.000019  -0.000285   0.000164   0.000002  -0.000257
             13         14         15         16
     1  C   -0.000969  -0.016478   0.005634  -0.000687
     2  H   -0.000050   0.000599  -0.000062   0.000009
     3  O   -0.000038  -0.006797  -0.000026   0.000004
     4  H    0.000019   0.001060  -0.000025   0.000001
     5  C   -0.021082   0.136579  -0.005361  -0.001043
     6  C    0.000532  -0.051847  -0.004786   0.001225
     7  H   -0.000146   0.001880  -0.000244   0.000103
     8  H    0.000683   0.003304   0.000279  -0.000019
     9  H    0.000268  -0.001826   0.013762  -0.000285
    10  C    0.340722  -0.060612  -0.002988   0.000164
    11  H   -0.031340   0.002911  -0.000315   0.000002
    12  H   -0.025291  -0.002052   0.006268  -0.000257
    13  H    0.587534   0.003396   0.000109  -0.000017
    14  O    0.003396   8.370053   0.006076   0.002005
    15  O    0.000109   0.006076   8.300659   0.194811
    16  H   -0.000017   0.002005   0.194811   0.418787
 Mulliken atomic charges:
              1
     1  C    0.119042
     2  H    0.181138
     3  O   -0.523238
     4  H    0.430654
     5  C    0.332255
     6  C   -0.473468
     7  H    0.143633
     8  H    0.140549
     9  H    0.177599
    10  C   -0.491546
    11  H    0.136745
    12  H    0.197813
    13  H    0.145670
    14  O   -0.388251
    15  O   -0.513791
    16  H    0.385197
 Sum of Mulliken charges=   0.00000
 Atomic charges with hydrogens summed into heavy atoms:
              1
     1  C    0.300179
     2  H    0.000000
     3  O   -0.092583
     4  H    0.000000
     5  C    0.332255
     6  C   -0.011687
     7  H    0.000000
     8  H    0.000000
     9  H    0.000000
    10  C   -0.011318
    11  H    0.000000
    12  H    0.000000
    13  H    0.000000
    14  O   -0.388251
    15  O   -0.128594
    16  H    0.000000
 Sum of Mulliken charges=   0.00000
          Atomic-Atomic Spin Densities.
              1          2          3          4          5          6
     1  C    0.656364  -0.002632  -0.106744  -0.000007   0.005832  -0.006447
     2  H   -0.002632  -0.027048   0.000716  -0.000207  -0.000149   0.000504
     3  O   -0.106744   0.000716   0.222630  -0.001223  -0.002209   0.000116
     4  H   -0.000007  -0.000207  -0.001223  -0.003537   0.000448   0.000011
     5  C    0.005832  -0.000149  -0.002209   0.000448  -0.028128   0.003075
     6  C   -0.006447   0.000504   0.000116   0.000011   0.003075   0.014877
     7  H   -0.000548   0.000005   0.000008   0.000000   0.000787   0.000440
     8  H    0.000703  -0.000008  -0.000014   0.000000   0.000193  -0.000190
     9  H    0.000388  -0.000025  -0.000002  -0.000001  -0.000535  -0.004560
    10  C   -0.006219   0.000011   0.000650   0.000068   0.000781   0.004100
    11  H   -0.000017  -0.000002  -0.000012  -0.000043   0.000327  -0.000017
    12  H    0.000098  -0.000001  -0.000003  -0.000007   0.000521  -0.000801
    13  H    0.000662  -0.000004  -0.000104  -0.000010   0.000337  -0.000161
    14  O    0.009242  -0.000432  -0.000786  -0.000200  -0.016100  -0.006816
    15  O    0.003449   0.000004  -0.000037   0.000006   0.008949   0.002960
    16  H   -0.000323  -0.000001   0.000005   0.000000  -0.000628  -0.000272
              7          8          9         10         11         12
     1  C   -0.000548   0.000703   0.000388  -0.006219  -0.000017   0.000098
     2  H    0.000005  -0.000008  -0.000025   0.000011  -0.000002  -0.000001
     3  O    0.000008  -0.000014  -0.000002   0.000650  -0.000012  -0.000003
     4  H    0.000000   0.000000  -0.000001   0.000068  -0.000043  -0.000007
     5  C    0.000787   0.000193  -0.000535   0.000781   0.000327   0.000521
     6  C    0.000440  -0.000190  -0.004560   0.004100  -0.000017  -0.000801
     7  H   -0.000289   0.000039  -0.000656   0.000070   0.000000  -0.000008
     8  H    0.000039  -0.001183   0.000296  -0.000156   0.000001   0.000039
     9  H   -0.000656   0.000296   0.009314  -0.001076   0.000002   0.000353
    10  C    0.000070  -0.000156  -0.001076   0.009948  -0.000079  -0.001523
    11  H    0.000000   0.000001   0.000002  -0.000079  -0.000672   0.000160
    12  H   -0.000008   0.000039   0.000353  -0.001523   0.000160   0.001286
    13  H   -0.000005  -0.000020   0.000060  -0.000866   0.000087   0.000234
    14  O   -0.000609   0.000106   0.003090  -0.006082  -0.000035   0.001312
    15  O    0.000149  -0.000044  -0.003121   0.001583   0.000019  -0.001328
    16  H   -0.000028   0.000004   0.000472  -0.000050  -0.000001   0.000086
             13         14         15         16
     1  C    0.000662   0.009242   0.003449  -0.000323
     2  H   -0.000004  -0.000432   0.000004  -0.000001
     3  O   -0.000104  -0.000786  -0.000037   0.000005
     4  H   -0.000010  -0.000200   0.000006   0.000000
     5  C    0.000337  -0.016100   0.008949  -0.000628
     6  C   -0.000161  -0.006816   0.002960  -0.000272
     7  H   -0.000005  -0.000609   0.000149  -0.000028
     8  H   -0.000020   0.000106  -0.000044   0.000004
     9  H    0.000060   0.003090  -0.003121   0.000472
    10  C   -0.000866  -0.006082   0.001583  -0.000050
    11  H    0.000087  -0.000035   0.000019  -0.000001
    12  H    0.000234   0.001312  -0.001328   0.000086
    13  H   -0.000345   0.000092  -0.000023   0.000001
    14  O    0.000092   0.017887  -0.104033   0.006143
    15  O   -0.000023  -0.104033   0.588838  -0.005173
    16  H    0.000001   0.006143  -0.005173  -0.012701
 Mulliken atomic spin densities:
              1
     1  C    0.553802
     2  H   -0.029271
     3  O    0.112990
     4  H   -0.004701
     5  C   -0.026501
     6  C    0.006820
     7  H   -0.000646
     8  H   -0.000235
     9  H    0.003998
    10  C    0.001159
    11  H   -0.000283
    12  H    0.000416
    13  H   -0.000063
    14  O   -0.097219
    15  O    0.492197
    16  H   -0.012464
 Sum of Mulliken spin densities=   1.00000
 Electronic spatial extent (au):  <R**2>=  1202.4249
 Charge=     0.0000 electrons
 Dipole moment (field-independent basis, Debye):
    X=     2.0874    Y=     0.4593    Z=     1.4151  Tot=     2.5633
 Quadrupole moment (field-independent basis, Debye-Ang):
   XX=   -49.8391   YY=   -41.1904   ZZ=   -37.9887
   XY=    -4.6554   XZ=    -1.8595   YZ=     3.4417
 Traceless Quadrupole moment (field-independent basis, Debye-Ang):
   XX=    -6.8330   YY=     1.8156   ZZ=     5.0173
   XY=    -4.6554   XZ=    -1.8595   YZ=     3.4417
 Octapole moment (field-independent basis, Debye-Ang**2):
  XXX=   148.6058  YYY=    99.6357  ZZZ=   -72.0115  XYY=    36.6105
  XXY=    46.6642  XXZ=   -25.6311  XZZ=    33.2891  YZZ=    30.7343
  YYZ=   -27.9002  XYZ=    -7.8237
 Hexadecapole moment (field-independent basis, Debye-Ang**3):
 XXXX=  -637.6056 YYYY=  -579.8164 ZZZZ=  -311.0078 XXXY=  -192.5839
 XXXZ=    59.0800 YYYX=  -150.3164 YYYZ=    77.3343 ZZZX=    61.1080
 ZZZY=    57.0035 XXYY=  -194.5979 XXZZ=  -126.8925 YYZZ=  -132.5569
 XXYZ=    33.8222 YYXZ=    31.7931 ZZXY=   -38.4611
 N-N= 3.309740921733D+02 E-N=-1.559574474137D+03  KE= 3.799730289290D+02
                          Isotropic Fermi Contact Couplings
        Atom                 a.u.       MegaHertz       Gauss      10(-4) cm-1
     1  C(13)              0.04971      55.87857      19.93886      18.63908
     2  H(1)              -0.00949     -42.43727     -15.14267     -14.15555
     3  O(17)              0.03140     -19.03167      -6.79097      -6.34828
     4  H(1)              -0.00224     -10.03292      -3.58000      -3.34662
     5  C(13)             -0.00830      -9.33490      -3.33092      -3.11379
     6  C(13)              0.00804       9.04274       3.22668       3.01633
     7  H(1)              -0.00019      -0.84846      -0.30275      -0.28302
     8  H(1)               0.00007       0.31558       0.11261       0.10526
     9  H(1)               0.00146       6.51530       2.32482       2.17327
    10  C(13)              0.00244       2.74516       0.97954       0.91569
    11  H(1)              -0.00015      -0.66890      -0.23868      -0.22312
    12  H(1)               0.00023       1.02272       0.36493       0.34114
    13  H(1)               0.00000       0.01387       0.00495       0.00463
    14  O(17)              0.36395    -220.62341     -78.72392     -73.59205
    15  O(17)              0.07633     -46.27277     -16.51127     -15.43493
    16  H(1)              -0.00757     -33.83068     -12.07163     -11.28470
 --------------------------------------------------------
       Center         ----  Spin Dipole Couplings  ----
                      3XX-RR        3YY-RR        3ZZ-RR
 --------------------------------------------------------
     1   Atom        0.053586     -0.320041      0.266455
     2   Atom        0.016524     -0.036741      0.020217
     3   Atom        0.109310     -0.329084      0.219775
     4   Atom        0.009939     -0.014848      0.004908
     5   Atom       -0.004052      0.000167      0.003885
     6   Atom       -0.006269      0.015731     -0.009463
     7   Atom       -0.000672      0.005221     -0.004550
     8   Atom       -0.001783      0.002888     -0.001105
     9   Atom        0.002222      0.000786     -0.003008
    10   Atom        0.003639     -0.004236      0.000597
    11   Atom        0.002036     -0.001881     -0.000155
    12   Atom       -0.001802     -0.002800      0.004602
    13   Atom       -0.001698     -0.002975      0.004673
    14   Atom       -0.319346      0.077914      0.241432
    15   Atom        0.731440      0.190135     -0.921575
    16   Atom       -0.033800     -0.024257      0.058058
 --------------------------------------------------------
                        XY            XZ            YZ
 --------------------------------------------------------
     1   Atom       -0.074375      0.471997     -0.073946
     2   Atom       -0.012116     -0.023132      0.007984
     3   Atom       -0.061883      0.478197     -0.058561
     4   Atom       -0.010573     -0.020672      0.008653
     5   Atom       -0.000559     -0.000531     -0.002617
     6   Atom       -0.001149      0.002214     -0.000699
     7   Atom       -0.001895     -0.000162      0.001729
     8   Atom       -0.001110      0.002570     -0.004384
     9   Atom       -0.001011      0.003534     -0.002767
    10   Atom        0.003424     -0.004346      0.000054
    11   Atom        0.000918     -0.003626      0.001856
    12   Atom        0.002192     -0.000030      0.001352
    13   Atom        0.001525     -0.002539     -0.001038
    14   Atom       -0.345579      0.091186      0.007815
    15   Atom        1.380235     -0.093039     -0.071007
    16   Atom        0.005129     -0.030485      0.053915
 --------------------------------------------------------


 ---------------------------------------------------------------------------------
              Anisotropic Spin Dipole Couplings in Principal Axis System
 ---------------------------------------------------------------------------------

       Atom             a.u.   MegaHertz   Gauss  10(-4) cm-1        Axes

              Baa    -0.3399   -45.611   -16.275   -15.214  0.5162  0.8006 -0.3042
     1 C(13)  Bbb    -0.3151   -42.284   -15.088   -14.104 -0.5888  0.5897  0.5528
              Bcc     0.6550    87.896    31.363    29.319  0.6220 -0.1063  0.7758
 
              Baa    -0.0395   -21.095    -7.527    -7.037  0.1879  0.9805 -0.0583
     2 H(1)   Bbb    -0.0045    -2.402    -0.857    -0.801  0.7114 -0.0949  0.6964
              Bcc     0.0440    23.497     8.384     7.838 -0.6772  0.1723  0.7153
 
              Baa    -0.3388    24.515     8.747     8.177  0.2873  0.9465 -0.1467
     3 O(17)  Bbb    -0.3145    22.754     8.119     7.590  0.6910 -0.3109 -0.6526
              Bcc     0.6533   -47.269   -16.867   -15.767  0.6633 -0.0861  0.7434
 
              Baa    -0.0189   -10.061    -3.590    -3.356  0.2694  0.9563 -0.1139
     4 H(1)   Bbb    -0.0134    -7.125    -2.542    -2.377  0.6383 -0.0888  0.7646
              Bcc     0.0322    17.186     6.132     5.733  0.7211 -0.2787 -0.6343
 
              Baa    -0.0042    -0.568    -0.203    -0.190  0.9716  0.1992  0.1277
     5 C(13)  Bbb    -0.0010    -0.135    -0.048    -0.045 -0.2355  0.8673  0.4386
              Bcc     0.0052     0.703     0.251     0.235 -0.0234 -0.4562  0.8896
 
              Baa    -0.0106    -1.422    -0.507    -0.474 -0.4546  0.0038  0.8907
     6 C(13)  Bbb    -0.0052    -0.701    -0.250    -0.234  0.8890  0.0639  0.4535
              Bcc     0.0158     2.123     0.757     0.708 -0.0552  0.9980 -0.0324
 
              Baa    -0.0049    -2.589    -0.924    -0.864 -0.0419 -0.1766  0.9834
     7 H(1)   Bbb    -0.0012    -0.640    -0.228    -0.213  0.9616  0.2602  0.0877
              Bcc     0.0061     3.229     1.152     1.077 -0.2713  0.9493  0.1589
 
              Baa    -0.0049    -2.599    -0.927    -0.867 -0.5146  0.3649  0.7760
     8 H(1)   Bbb    -0.0015    -0.810    -0.289    -0.270  0.8102  0.5032  0.3006
              Bcc     0.0064     3.409     1.216     1.137 -0.2808  0.7834 -0.5545
 
              Baa    -0.0055    -2.930    -1.045    -0.977 -0.3577  0.3278  0.8744
     9 H(1)   Bbb     0.0003     0.174     0.062     0.058  0.5714  0.8175 -0.0727
              Bcc     0.0052     2.756     0.983     0.919  0.7386 -0.4736  0.4797
 
              Baa    -0.0060    -0.805    -0.287    -0.269 -0.4346  0.8516 -0.2932
    10 C(13)  Bbb    -0.0014    -0.188    -0.067    -0.063  0.3741  0.4668  0.8014
              Bcc     0.0074     0.993     0.354     0.331  0.8193  0.2386 -0.5214
 
              Baa    -0.0045    -2.382    -0.850    -0.795  0.4468 -0.6213  0.6437
    11 H(1)   Bbb    -0.0003    -0.153    -0.055    -0.051  0.4167  0.7812  0.4648
              Bcc     0.0048     2.535     0.904     0.846  0.7917 -0.0605 -0.6080
 
              Baa    -0.0047    -2.495    -0.890    -0.832 -0.6031  0.7890 -0.1169
    12 H(1)   Bbb    -0.0002    -0.099    -0.035    -0.033  0.7955  0.5844 -0.1601
              Bcc     0.0049     2.594     0.926     0.865  0.0580  0.1896  0.9802
 
              Baa    -0.0040    -2.153    -0.768    -0.718 -0.6058  0.7914 -0.0823
    13 H(1)   Bbb    -0.0018    -0.950    -0.339    -0.317  0.7164  0.5875  0.3763
              Bcc     0.0058     3.103     1.107     1.035 -0.3462 -0.1690  0.9228
 
              Baa    -0.5282    38.224    13.639    12.750  0.8631  0.4935 -0.1073
    14 O(17)  Bbb     0.2231   -16.141    -5.759    -5.384 -0.2102  0.5443  0.8121
              Bcc     0.3052   -22.083    -7.880    -7.366 -0.4591  0.6784 -0.5735
 
              Baa    -0.9466    68.499    24.442    22.849 -0.6282  0.7498 -0.2078
    15 O(17)  Bbb    -0.9256    66.973    23.898    22.340 -0.1005  0.1866  0.9773
              Bcc     1.8722  -135.471   -48.340   -45.188  0.7715  0.6348 -0.0418
 
              Baa    -0.0637   -33.991   -12.129   -11.338 -0.5737  0.6861 -0.4474
    16 H(1)   Bbb    -0.0262   -13.975    -4.987    -4.661  0.7937  0.6005 -0.0971
              Bcc     0.0899    47.966    17.115    16.000 -0.2021  0.4108  0.8890
 

 ---------------------------------------------------------------------------------

 1\1\GINC-NODE26\Scan\UB3LYP\6-31G(d)\C4H9O3(2)\GOLDMANM\18-Jul-2019\0\
 \# opt=(ts,noeigentest,addred,calcfc) b3lyp/6-31g(d) nosymm\\71bEpoxyF
 roma\\0,2\C,0.0927425193,0.116549877,0.2072369258\H,0.8596918645,-0.09
 13082094,-0.5286061456\O,-0.0861961475,1.4218907752,0.4231106677\H,-0.
 7954727165,1.5488738296,1.0776982782\C,-0.7809112183,-0.9609104254,0.7
 427187848\C,-0.0577281784,-2.301913945,0.8851099109\H,0.5715652643,-2.
 4917914094,0.0087401875\H,0.5705145213,-2.3301986604,1.7822371132\H,-0
 .8096100614,-3.0931452636,0.943552807\C,-1.5860777221,-0.5996509885,1.
 9941502658\H,-2.1627301928,0.3232539451,1.850531225\H,-2.3176462951,-1
 .3911995935,2.1735090848\H,-0.9456273139,-0.4989461436,2.8778545379\O,
 -1.5497660333,-0.8782400965,-0.4353632015\O,-2.8251009365,-2.074027640
 5,-0.3319188081\H,-2.5906363536,-2.450820051,-1.1985296335\\Version=AM
 64L-G03RevD.01\HF=-383.3387591,-383.3384651,-383.3375931,-383.3361385,
 -383.3341472,-383.3317089,-383.329054,-383.3264574,-383.3243106,-383.3
 230105,-383.3227845,-383.3235692,-383.3250912,-383.3270407,-383.329158
 1,-383.3312223,-383.3330389,-383.3344624,-383.3353899,-383.3357616,-38
 3.3355762,-383.334876,-383.3337302,-383.3322569,-383.3306331,-383.3291
 137,-383.3280294,-383.3277366,-383.3284153,-383.3299108,-383.3318312,-
 383.3337699,-383.3354627,-383.3368086,-383.3378371,-383.3385212,-383.3
 387531\S2=0.792517,0.794529,0.797534,0.801049,0.804725,0.807907,0.8099
 09,0.810582,0.809565,0.807482,0.805338,0.803604,0.802361,0.801271,0.80
 0116,0.798808,0.797448,0.796174,0.795301,0.794923,0.795198,0.79596,0.7
 97301,0.798893,0.800099,0.800803,0.800544,0.799321,0.797963,0.796825,0
 .796017,0.79524,0.794183,0.792868,0.791783,0.791632,0.792525\S2-1=0.,0
 .,0.,0.,0.,0.,0.,0.,0.,0.,0.,0.,0.,0.,0.,0.,0.,0.,0.,0.,0.,0.,0.,0.,0.
 ,0.,0.,0.,0.,0.,0.,0.,0.,0.,0.,0.,0.\S2A=0.750199,0.750209,0.750225,0.
 750243,0.750264,0.750284,0.750301,0.750313,0.750317,0.750311,0.750298,
 0.750281,0.750266,0.750254,0.750245,0.750236,0.750229,0.750224,0.75022
 ,0.75022,0.750222,0.750228,0.750237,0.750249,0.75026,0.75027,0.750273,
 0.750267,0.750253,0.750237,0.750225,0.750216,0.750208,0.7502,0.750195,
 0.750194,0.750199\RMSD=4.793e-09,3.723e-09,6.127e-09,5.416e-09,8.078e-
 09,8.080e-09,4.735e-09,9.884e-09,5.446e-09,7.069e-09,3.242e-09,9.874e-
 09,9.937e-09,8.303e-09,6.644e-09,3.319e-09,9.098e-09,8.603e-09,7.540e-
 09,8.780e-09,3.554e-09,6.145e-09,6.669e-09,7.174e-09,4.894e-09,7.801e-
 09,9.132e-09,6.190e-09,5.305e-09,8.941e-09,7.624e-09,5.028e-09,7.766e-
 09,6.349e-09,9.224e-09,8.898e-09,4.309e-09\Thermal=0.,0.,0.,0.,0.,0.,0
 .,0.,0.,0.,0.,0.,0.,0.,0.,0.,0.,0.,0.,0.,0.,0.,0.,0.,0.,0.,0.,0.,0.,0.
 ,0.,0.,0.,0.,0.,0.,0.\PG=C01 [X(C4H9O3)]\\@


 QUHEN THE CAUSS IS TAKEN AWAY THE EFFECT WANISHETH.
 -- PROVERBS AND REASONS OF THE YEAR 1585
           AS REPRINTED IN PAISLEY MAGAZINE 1828.
 Job cpu time:  0 days  7 hours 42 minutes 57.6 seconds.
 File lengths (MBytes):  RWF=     59 Int=      0 D2E=      0 Chk=     10 Scr=      1
 Normal termination of Gaussian 03 at Thu Jul 18 22:49:17 2019.
