 Entering Gaussian System, Link 0=g03
 Input=TS1freq.gjf
 Output=TS1freq.log
 Initial command:
 /opt/g03/l1.exe /scratch/nyee/Gau-20430.inp -scrdir=/scratch/nyee/
 Entering Link 1 = /opt/g03/l1.exe PID=     20432.
  
 Copyright (c) 1988,1990,1992,1993,1995,1998,2003,2004, Gaussian, Inc.
                  All Rights Reserved.
  
 This is the Gaussian(R) 03 program.  It is based on the
 the Gaussian(R) 98 system (copyright 1998, Gaussian, Inc.),
 the Gaussian(R) 94 system (copyright 1995, Gaussian, Inc.),
 the Gaussian 92(TM) system (copyright 1992, Gaussian, Inc.),
 the Gaussian 90(TM) system (copyright 1990, Gaussian, Inc.),
 the Gaussian 88(TM) system (copyright 1988, Gaussian, Inc.),
 the Gaussian 86(TM) system (copyright 1986, Carnegie Mellon
 University), and the Gaussian 82(TM) system (copyright 1983,
 Carnegie Mellon University). Gaussian is a federally registered
 trademark of Gaussian, Inc.
  
 This software contains proprietary and confidential information,
 including trade secrets, belonging to Gaussian, Inc.
  
 This software is provided under written license and may be
 used, copied, transmitted, or stored only in accord with that
 written license.
  
 The following legend is applicable only to US Government
 contracts under FAR:
  
                    RESTRICTED RIGHTS LEGEND
  
 Use, reproduction and disclosure by the US Government is
 subject to restrictions as set forth in subparagraphs (a)
 and (c) of the Commercial Computer Software - Restricted
 Rights clause in FAR 52.227-19.
  
 Gaussian, Inc.
 340 Quinnipiac St., Bldg. 40, Wallingford CT 06492
  
  
 ---------------------------------------------------------------
 Warning -- This program may not be used in any manner that
 competes with the business of Gaussian, Inc. or will provide
 assistance to any competitor of Gaussian, Inc.  The licensee
 of this program is prohibited from giving any competitor of
 Gaussian, Inc. access to this program.  By using this program,
 the user acknowledges that Gaussian, Inc. is engaged in the
 business of creating and licensing software in the field of
 computational chemistry and represents and warrants to the
 licensee that it is not a competitor of Gaussian, Inc. and that
 it will not use this program in any manner prohibited above.
 ---------------------------------------------------------------
  

 Cite this work as:
 Gaussian 03, Revision D.01,
 M. J. Frisch, G. W. Trucks, H. B. Schlegel, G. E. Scuseria, 
 M. A. Robb, J. R. Cheeseman, J. A. Montgomery, Jr., T. Vreven, 
 K. N. Kudin, J. C. Burant, J. M. Millam, S. S. Iyengar, J. Tomasi, 
 V. Barone, B. Mennucci, M. Cossi, G. Scalmani, N. Rega, 
 G. A. Petersson, H. Nakatsuji, M. Hada, M. Ehara, K. Toyota, 
 R. Fukuda, J. Hasegawa, M. Ishida, T. Nakajima, Y. Honda, O. Kitao, 
 H. Nakai, M. Klene, X. Li, J. E. Knox, H. P. Hratchian, J. B. Cross, 
 V. Bakken, C. Adamo, J. Jaramillo, R. Gomperts, R. E. Stratmann, 
 O. Yazyev, A. J. Austin, R. Cammi, C. Pomelli, J. W. Ochterski, 
 P. Y. Ayala, K. Morokuma, G. A. Voth, P. Salvador, J. J. Dannenberg, 
 V. G. Zakrzewski, S. Dapprich, A. D. Daniels, M. C. Strain, 
 O. Farkas, D. K. Malick, A. D. Rabuck, K. Raghavachari, 
 J. B. Foresman, J. V. Ortiz, Q. Cui, A. G. Baboul, S. Clifford, 
 J. Cioslowski, B. B. Stefanov, G. Liu, A. Liashenko, P. Piskorz, 
 I. Komaromi, R. L. Martin, D. J. Fox, T. Keith, M. A. Al-Laham, 
 C. Y. Peng, A. Nanayakkara, M. Challacombe, P. M. W. Gill, 
 B. Johnson, W. Chen, M. W. Wong, C. Gonzalez, and J. A. Pople, 
 Gaussian, Inc., Wallingford CT, 2004.
 
 ******************************************
 Gaussian 03:  AM64L-G03RevD.01 13-Oct-2005
                 9-Jun-2013 
 ******************************************
 %chk=TS1cbsqb3.chk
 %mem=1000mb
 %nproc=8
 Will use up to    8 processors via shared memory.
 -------------------------------------
 # freq nosymm b3lyp/cbsb7 iop(7/33=1)
 -------------------------------------
 1/10=4,30=1,38=1/1,3;
 2/15=1,17=6,18=5,40=1/2;
 3/5=4,6=6,7=700,11=2,16=1,25=1,30=1,74=-5/1,2,3;
 4//1;
 5/5=2,38=5/2;
 8/6=4,10=90,11=11/1;
 11/6=1,8=1,9=11,15=111,16=1,31=1/1,2,10;
 10/6=1,31=1/2;
 6/7=2,8=2,9=2,10=2,18=1,28=1/1;
 7/8=1,10=1,25=1,30=1,33=1/1,2,3,16;
 1/10=4,30=1/3;
 99//99;
 -------------------
 Title Card Required
 -------------------
 Symbolic Z-matrix:
 Charge =  0 Multiplicity = 2
 C                     0.03539   0.12926   0.12496 
 H                     0.74685  -0.06992  -0.6643 
 O                    -0.16444   1.42763   0.34526 
 H                    -0.82948   1.54082   1.03823 
 C                    -0.77971  -0.95851   0.72548 
 C                    -0.01915  -2.2808    0.82695 
 H                     0.52626  -2.47465  -0.09999 
 H                     0.68924  -2.27665   1.65948 
 H                    -0.74368  -3.0833    0.96955 
 C                    -1.49326  -0.59467   2.0288 
 H                    -2.08455   0.32082   1.91908 
 H                    -2.20369  -1.38788   2.26162 
 H                    -0.7931   -0.48268   2.86118 
 O                    -1.65389  -0.92521  -0.38194 
 O                    -2.88309  -2.13037  -0.12993 
 H                    -2.76271  -2.50546  -1.0124 
 

 GradGradGradGradGradGradGradGradGradGradGradGradGradGradGradGradGradGrad
 Berny optimization.
 Initialization pass.
 Trust Radius=3.00D-01 FncErr=1.00D-07 GrdErr=1.00D-07
 Number of steps in this run=   2 maximum allowed number of steps=   2.
 GradGradGradGradGradGradGradGradGradGradGradGradGradGradGradGradGradGrad

                          Input orientation:                          
 ---------------------------------------------------------------------
 Center     Atomic     Atomic              Coordinates (Angstroms)
 Number     Number      Type              X           Y           Z
 ---------------------------------------------------------------------
    1          6             0        0.035388    0.129258    0.124955
    2          1             0        0.746845   -0.069918   -0.664296
    3          8             0       -0.164435    1.427626    0.345264
    4          1             0       -0.829480    1.540816    1.038227
    5          6             0       -0.779706   -0.958506    0.725483
    6          6             0       -0.019150   -2.280804    0.826946
    7          1             0        0.526264   -2.474653   -0.099987
    8          1             0        0.689242   -2.276650    1.659479
    9          1             0       -0.743680   -3.083304    0.969548
   10          6             0       -1.493258   -0.594665    2.028800
   11          1             0       -2.084548    0.320815    1.919083
   12          1             0       -2.203688   -1.387881    2.261622
   13          1             0       -0.793101   -0.482677    2.861182
   14          8             0       -1.653892   -0.925213   -0.381937
   15          8             0       -2.883085   -2.130369   -0.129933
   16          1             0       -2.762705   -2.505459   -1.012404
 ---------------------------------------------------------------------
                    Distance matrix (angstroms):
                    1          2          3          4          5
     1  C    0.000000
     2  H    1.081092   0.000000
     3  O    1.332000   2.022939   0.000000
     4  H    1.890650   2.824509   0.967106   0.000000
     5  C    1.486016   2.247539   2.493341   2.519305   0.000000
     6  C    2.510810   2.774629   3.742403   3.912295   1.528794
     7  H    2.659306   2.479889   3.987868   4.388344   2.164639
     8  H    2.927573   3.205139   4.022137   4.155180   2.183497
     9  H    3.411867   3.737861   4.590615   4.625426   2.139073
    10  C    2.546654   3.542060   2.947834   2.445836   1.529762
    11  H    2.783832   3.852701   2.718229   1.959466   2.182649
    12  H    3.446813   4.359320   3.969642   3.458672   2.138179
    13  H    2.923662   3.869212   3.220919   2.723786   2.188105
    14  O    2.054876   2.564136   2.878047   2.962739   1.411272
    15  O    3.699779   4.208015   4.502910   4.365718   2.555230
    16  H    4.008072   4.286022   4.905449   4.931003   3.057057
                    6          7          8          9         10
     6  C    0.000000
     7  H    1.092821   0.000000
     8  H    1.093137   1.778057   0.000000
     9  H    1.090544   1.768366   1.783244   0.000000
    10  C    2.541754   3.484904   2.780068   2.806636   0.000000
    11  H    3.496720   4.325231   3.808954   3.779890   1.095338
    12  H    2.761850   3.769736   3.085698   2.583706   1.090004
    13  H    2.823186   3.804893   2.619116   3.216206   1.093445
    14  O    2.443646   2.689487   3.388811   2.704137   2.438589
    15  O    3.023305   3.426819   3.998114   2.587276   2.991677
    16  H    3.310706   3.413323   4.371184   2.887646   3.809403
                   11         12         13         14         15
    11  H    0.000000
    12  H    1.746760   0.000000
    13  H    1.789130   1.780062   0.000000
    14  O    2.651932   2.739478   3.384467   0.000000
    15  O    3.293088   2.594688   4.003710   1.739777   0.000000
    16  H    4.128116   3.504387   4.793293   2.030796   0.966405
                   16
    16  H    0.000000
 Symmetry turned off by external request.
 Stoichiometry    C4H9O3(2)
 Framework group  C1[X(C4H9O3)]
 Deg. of freedom    42
 Full point group                 C1
 Rotational constants (GHZ):      3.5958611      1.8741554      1.7391271
 Standard basis: CBSB7 (5D, 7F)
 Integral buffers will be    131072 words long.
 Raffenetti 2 integral format.
 Two-electron integral symmetry is turned off.
   180 basis functions,   296 primitive gaussians,   187 cartesian basis functions
    29 alpha electrons       28 beta electrons
       nuclear repulsion energy       331.4899631702 Hartrees.
 NAtoms=   16 NActive=   16 NUniq=   16 SFac= 7.50D-01 NAtFMM=   80 NAOKFM=F Big=F
 One-electron integrals computed using PRISM.
 NBasis=   180 RedAO= T  NBF=   180
 NBsUse=   180 1.00D-06 NBFU=   180
 Harris functional with IExCor=  402 diagonalized for initial guess.
 ExpMin= 1.03D-01 ExpMax= 8.59D+03 ExpMxC= 1.30D+03 IAcc=1 IRadAn=         1 AccDes= 1.00D-06
 HarFok:  IExCor= 402 AccDes= 1.00D-06 IRadAn=         1 IDoV=1
 ScaDFX=  1.000000  1.000000  1.000000  1.000000
 <S**2> of initial guess= 0.7500
 Requested convergence on RMS density matrix=1.00D-08 within 128 cycles.
 Requested convergence on MAX density matrix=1.00D-06.
 Requested convergence on             energy=1.00D-06.
 No special actions if energy rises.
 Integral accuracy reduced to 1.0D-05 until final iterations.
 EnCoef did     3 forward-backward iterations
 Problem detected with inexpensive integrals.
 Switching to full accuracy and repeating last cycle.
 SCF Done:  E(UB+HF-LYP) =  -383.463749044     A.U. after   22 cycles
             Convg  =    0.4983D-08             -V/T =  2.0033
             S**2   =   0.7891
 Annihilation of the first spin contaminant:
 S**2 before annihilation     0.7891,   after     0.7502
 Range of M.O.s used for correlation:     1   180
 NBasis=   180 NAE=    29 NBE=    28 NFC=     0 NFV=     0
 NROrb=    180 NOA=    29 NOB=    28 NVA=   151 NVB=   152
 Symmetrizing basis deriv contribution to polar:
 IMax=3 JMax=2 DiffMx= 0.00D+00
 G2DrvN: will do   17 centers at a time, making    1 passes doing MaxLOS=2.
 FoFDir/FoFCou used for L=0 through L=2.
 DoAtom=TTTTTTTTTTTTTTTT
          Differentiating once with respect to electric field.
                with respect to dipole field.
          Differentiating once with respect to nuclear coordinates.
 Symmetry not used in FoFDir.
 MinBra= 0 MaxBra= 2 Meth= 1.
 IRaf=       0 NMat=  51 IRICut=      51 DoRegI=T DoRafI=T ISym2E= 0 JSym2E=0.
          There are  51 degrees of freedom in the 1st order CPHF.
    48 vectors were produced by pass  0.
 AX will form  48 AO Fock derivatives at one time.
    48 vectors were produced by pass  1.
    48 vectors were produced by pass  2.
    48 vectors were produced by pass  3.
    48 vectors were produced by pass  4.
    48 vectors were produced by pass  5.
    28 vectors were produced by pass  6.
     4 vectors were produced by pass  7.
     3 vectors were produced by pass  8.
 Inv2:  IOpt= 1 Iter= 1 AM= 3.77D-15 Conv= 1.00D-12.
 Inverted reduced A of dimension  323 with in-core refinement.
 Isotropic polarizability for W=    0.000000       70.30 Bohr**3.
 End of Minotr Frequency-dependent properties file   721 does not exist.

 **********************************************************************

            Population analysis using the SCF density.

 **********************************************************************

 Alpha  occ. eigenvalues --  -19.19325 -19.13926 -19.11402 -10.26776 -10.24464
 Alpha  occ. eigenvalues --  -10.17373 -10.16459  -1.11206  -1.02397  -0.92929
 Alpha  occ. eigenvalues --   -0.77796  -0.71720  -0.69864  -0.60999  -0.52349
 Alpha  occ. eigenvalues --   -0.50343  -0.47350  -0.44855  -0.43587  -0.42472
 Alpha  occ. eigenvalues --   -0.41261  -0.40155  -0.39677  -0.37197  -0.36344
 Alpha  occ. eigenvalues --   -0.33603  -0.29028  -0.25198  -0.19575
 Alpha virt. eigenvalues --   -0.04718   0.02055   0.04860   0.07422   0.08378
 Alpha virt. eigenvalues --    0.09754   0.10775   0.11538   0.14118   0.14949
 Alpha virt. eigenvalues --    0.17601   0.19766   0.20076   0.23914   0.25077
 Alpha virt. eigenvalues --    0.28137   0.31041   0.32554   0.36623   0.38282
 Alpha virt. eigenvalues --    0.40030   0.42637   0.45195   0.45731   0.47910
 Alpha virt. eigenvalues --    0.51178   0.52113   0.54377   0.55832   0.57653
 Alpha virt. eigenvalues --    0.59145   0.59575   0.60270   0.62089   0.63157
 Alpha virt. eigenvalues --    0.66168   0.71103   0.76901   0.77485   0.79407
 Alpha virt. eigenvalues --    0.83619   0.85429   0.89202   0.91806   0.93959
 Alpha virt. eigenvalues --    0.95193   0.98732   1.01346   1.03636   1.06874
 Alpha virt. eigenvalues --    1.16416   1.18237   1.22450   1.27351   1.30910
 Alpha virt. eigenvalues --    1.32774   1.35473   1.38771   1.39924   1.41499
 Alpha virt. eigenvalues --    1.43959   1.45204   1.47296   1.49068   1.49735
 Alpha virt. eigenvalues --    1.51172   1.54662   1.54777   1.55786   1.57747
 Alpha virt. eigenvalues --    1.59315   1.65217   1.67060   1.68414   1.69545
 Alpha virt. eigenvalues --    1.71358   1.76225   1.83571   1.87519   1.88469
 Alpha virt. eigenvalues --    1.89980   1.94055   1.96631   2.00023   2.04051
 Alpha virt. eigenvalues --    2.07750   2.09352   2.16531   2.23843   2.28064
 Alpha virt. eigenvalues --    2.33089   2.36884   2.38929   2.40552   2.44615
 Alpha virt. eigenvalues --    2.45362   2.45909   2.48411   2.50455   2.52272
 Alpha virt. eigenvalues --    2.53062   2.54003   2.58569   2.60670   2.64377
 Alpha virt. eigenvalues --    2.68461   2.69153   2.77714   2.83509   2.83891
 Alpha virt. eigenvalues --    2.88310   2.93274   2.96517   3.00541   3.05405
 Alpha virt. eigenvalues --    3.08878   3.12457   3.13716   3.16601   3.18200
 Alpha virt. eigenvalues --    3.21824   3.27656   3.36572   3.37774   3.53402
 Alpha virt. eigenvalues --    3.74437   3.77045   3.79093   3.81575   3.82383
 Alpha virt. eigenvalues --    3.83306   3.86393   3.96435   4.24384   4.27815
 Alpha virt. eigenvalues --    4.77873   4.82372   4.88627   4.96479   5.10689
 Alpha virt. eigenvalues --    5.24836   5.43485   5.50218   5.64670  23.67068
 Alpha virt. eigenvalues --   23.76913  23.91140  23.93468  49.80176  49.82710
 Alpha virt. eigenvalues --   49.90175
  Beta  occ. eigenvalues --  -19.18875 -19.14001 -19.10125 -10.25946 -10.24523
  Beta  occ. eigenvalues --  -10.17367 -10.16437  -1.10252  -1.01788  -0.90531
  Beta  occ. eigenvalues --   -0.77565  -0.71068  -0.69077  -0.60671  -0.51968
  Beta  occ. eigenvalues --   -0.50014  -0.46356  -0.44024  -0.42781  -0.41652
  Beta  occ. eigenvalues --   -0.40450  -0.39509  -0.38818  -0.37135  -0.36095
  Beta  occ. eigenvalues --   -0.31234  -0.28460  -0.24528
  Beta virt. eigenvalues --   -0.08511  -0.00283   0.02251   0.05028   0.07630
  Beta virt. eigenvalues --    0.08724   0.09840   0.10964   0.11605   0.14171
  Beta virt. eigenvalues --    0.15084   0.17729   0.19983   0.20773   0.24649
  Beta virt. eigenvalues --    0.25407   0.28238   0.31152   0.32857   0.36846
  Beta virt. eigenvalues --    0.38985   0.40182   0.43205   0.45710   0.46878
  Beta virt. eigenvalues --    0.48629   0.51478   0.52337   0.54497   0.55935
  Beta virt. eigenvalues --    0.57814   0.59402   0.59671   0.60382   0.62445
  Beta virt. eigenvalues --    0.63245   0.66592   0.71467   0.77359   0.78150
  Beta virt. eigenvalues --    0.80319   0.84268   0.86005   0.89959   0.93000
  Beta virt. eigenvalues --    0.94517   0.95802   0.99029   1.01513   1.04139
  Beta virt. eigenvalues --    1.07186   1.17489   1.19233   1.23090   1.27699
  Beta virt. eigenvalues --    1.31066   1.33149   1.35609   1.39203   1.40131
  Beta virt. eigenvalues --    1.41706   1.44265   1.45364   1.47348   1.49223
  Beta virt. eigenvalues --    1.49849   1.51373   1.55062   1.55267   1.56957
  Beta virt. eigenvalues --    1.57818   1.60086   1.65573   1.67219   1.68528
  Beta virt. eigenvalues --    1.69889   1.71984   1.76477   1.83826   1.87742
  Beta virt. eigenvalues --    1.88995   1.90266   1.94419   1.97521   2.00382
  Beta virt. eigenvalues --    2.04372   2.07969   2.09530   2.16714   2.23913
  Beta virt. eigenvalues --    2.28189   2.33191   2.36963   2.39099   2.40623
  Beta virt. eigenvalues --    2.44929   2.45571   2.46243   2.48482   2.50556
  Beta virt. eigenvalues --    2.52435   2.53134   2.54680   2.58640   2.61466
  Beta virt. eigenvalues --    2.64510   2.68888   2.70584   2.78658   2.83654
  Beta virt. eigenvalues --    2.84570   2.89440   2.94318   2.96918   3.01096
  Beta virt. eigenvalues --    3.06608   3.09986   3.12535   3.16101   3.17377
  Beta virt. eigenvalues --    3.19537   3.22097   3.28382   3.36948   3.39414
  Beta virt. eigenvalues --    3.53684   3.74937   3.77350   3.79225   3.82047
  Beta virt. eigenvalues --    3.83025   3.83405   3.86876   3.96696   4.24458
  Beta virt. eigenvalues --    4.28113   4.79731   4.84077   4.93051   4.96428
  Beta virt. eigenvalues --    5.10065   5.25310   5.44265   5.50322   5.65176
  Beta virt. eigenvalues --   23.67536  23.77267  23.91216  23.93488  49.80944
  Beta virt. eigenvalues --   49.83528  49.90287
          Condensed to atoms (all electrons):
              1          2          3          4          5          6
     1  C    4.987937   0.410874   0.330519  -0.046270   0.309367  -0.051856
     2  H    0.410874   0.509900  -0.028469   0.006873  -0.052316  -0.003173
     3  O    0.330519  -0.028469   7.681059   0.327665  -0.042071   0.002062
     4  H   -0.046270   0.006873   0.327665   0.440381  -0.012323   0.000751
     5  C    0.309367  -0.052316  -0.042071  -0.012323   5.255097   0.295935
     6  C   -0.051856  -0.003173   0.002062   0.000751   0.295935   4.983919
     7  H   -0.008383   0.004833   0.000035  -0.000054  -0.024860   0.385234
     8  H    0.001710   0.000064  -0.000117  -0.000081  -0.032255   0.378321
     9  H    0.007658  -0.000337  -0.000191   0.000050  -0.035336   0.400578
    10  C   -0.065332   0.006281  -0.003988   0.009368   0.293472  -0.087743
    11  H   -0.005352  -0.000134  -0.000650   0.010047  -0.023114   0.011383
    12  H    0.006817  -0.000178   0.000196  -0.000571  -0.024440  -0.009354
    13  H    0.000058  -0.000154   0.000762  -0.000084  -0.035564  -0.001562
    14  O   -0.011383   0.004977  -0.004957   0.002555   0.183152  -0.057114
    15  O    0.008961  -0.000224  -0.000053  -0.000099  -0.032756  -0.002055
    16  H   -0.001793   0.000025   0.000027   0.000012  -0.001816   0.002577
              7          8          9         10         11         12
     1  C   -0.008383   0.001710   0.007658  -0.065332  -0.005352   0.006817
     2  H    0.004833   0.000064  -0.000337   0.006281  -0.000134  -0.000178
     3  O    0.000035  -0.000117  -0.000191  -0.003988  -0.000650   0.000196
     4  H   -0.000054  -0.000081   0.000050   0.009368   0.010047  -0.000571
     5  C   -0.024860  -0.032255  -0.035336   0.293472  -0.023114  -0.024440
     6  C    0.385234   0.378321   0.400578  -0.087743   0.011383  -0.009354
     7  H    0.583899  -0.026888  -0.026895   0.010363  -0.000665   0.000138
     8  H   -0.026888   0.601317  -0.024298  -0.001858  -0.000457   0.000409
     9  H   -0.026895  -0.024298   0.541933  -0.013598  -0.000027   0.003214
    10  C    0.010363  -0.001858  -0.013598   5.020567   0.366559   0.404530
    11  H   -0.000665  -0.000457  -0.000027   0.366559   0.607286  -0.020921
    12  H    0.000138   0.000409   0.003214   0.404530  -0.020921   0.504237
    13  H   -0.000460  -0.000470   0.000498   0.382697  -0.030259  -0.022830
    14  O    0.004034   0.004950  -0.002225  -0.072614   0.005732  -0.003000
    15  O   -0.000337   0.000224   0.021872  -0.002528  -0.000615   0.011507
    16  H    0.000269  -0.000012  -0.000961   0.000224   0.000028  -0.001097
             13         14         15         16
     1  C    0.000058  -0.011383   0.008961  -0.001793
     2  H   -0.000154   0.004977  -0.000224   0.000025
     3  O    0.000762  -0.004957  -0.000053   0.000027
     4  H   -0.000084   0.002555  -0.000099   0.000012
     5  C   -0.035564   0.183152  -0.032756  -0.001816
     6  C   -0.001562  -0.057114  -0.002055   0.002577
     7  H   -0.000460   0.004034  -0.000337   0.000269
     8  H   -0.000470   0.004950   0.000224  -0.000012
     9  H    0.000498  -0.002225   0.021872  -0.000961
    10  C    0.382697  -0.072614  -0.002528   0.000224
    11  H   -0.030259   0.005732  -0.000615   0.000028
    12  H   -0.022830  -0.003000   0.011507  -0.001097
    13  H    0.592336   0.004780   0.000202  -0.000073
    14  O    0.004780   8.233141   0.022190  -0.001168
    15  O    0.000202   0.022190   8.064204   0.264823
    16  H   -0.000073  -0.001168   0.264823   0.493538
 Mulliken atomic charges:
              1
     1  C    0.126468
     2  H    0.141159
     3  O   -0.261830
     4  H    0.261781
     5  C   -0.020172
     6  C   -0.247903
     7  H    0.099736
     8  H    0.099441
     9  H    0.128067
    10  C   -0.246399
    11  H    0.081159
    12  H    0.151343
    13  H    0.110122
    14  O   -0.313052
    15  O   -0.355316
    16  H    0.245398
 Sum of Mulliken charges=   0.00000
 Atomic charges with hydrogens summed into heavy atoms:
              1
     1  C    0.267626
     2  H    0.000000
     3  O   -0.000049
     4  H    0.000000
     5  C   -0.020172
     6  C    0.079340
     7  H    0.000000
     8  H    0.000000
     9  H    0.000000
    10  C    0.096225
    11  H    0.000000
    12  H    0.000000
    13  H    0.000000
    14  O   -0.313052
    15  O   -0.109918
    16  H    0.000000
 Sum of Mulliken charges=   0.00000
          Atomic-Atomic Spin Densities.
              1          2          3          4          5          6
     1  C    0.679268   0.002114  -0.114405  -0.000643   0.004795  -0.005341
     2  H    0.002114  -0.033392   0.000815  -0.000370  -0.000130   0.000595
     3  O   -0.114405   0.000815   0.232028   0.001155  -0.000778   0.000097
     4  H   -0.000643  -0.000370   0.001155  -0.004440   0.000456   0.000023
     5  C    0.004795  -0.000130  -0.000778   0.000456  -0.032139   0.002925
     6  C   -0.005341   0.000595   0.000097   0.000023   0.002925   0.007678
     7  H   -0.001258   0.000023   0.000022  -0.000001   0.001689  -0.000009
     8  H    0.002060  -0.000003  -0.000102   0.000000   0.000026  -0.000177
     9  H    0.000713  -0.000059  -0.000007  -0.000006  -0.000752  -0.002711
    10  C   -0.010878  -0.000064   0.001077   0.000093  -0.001788   0.005476
    11  H    0.000166  -0.000015  -0.000053  -0.000053   0.000144  -0.000112
    12  H    0.000261  -0.000003  -0.000007  -0.000012   0.001553  -0.000883
    13  H    0.000148  -0.000005  -0.000042   0.000008   0.000388   0.000137
    14  O    0.008515  -0.000664  -0.001227  -0.000214  -0.001274  -0.003779
    15  O    0.004678   0.000009  -0.000054   0.000016   0.003838   0.002471
    16  H   -0.000745  -0.000010   0.000031  -0.000003  -0.000709  -0.000343
              7          8          9         10         11         12
     1  C   -0.001258   0.002060   0.000713  -0.010878   0.000166   0.000261
     2  H    0.000023  -0.000003  -0.000059  -0.000064  -0.000015  -0.000003
     3  O    0.000022  -0.000102  -0.000007   0.001077  -0.000053  -0.000007
     4  H   -0.000001   0.000000  -0.000006   0.000093  -0.000053  -0.000012
     5  C    0.001689   0.000026  -0.000752  -0.001788   0.000144   0.001553
     6  C   -0.000009  -0.000177  -0.002711   0.005476  -0.000112  -0.000883
     7  H    0.000546  -0.000162  -0.001148   0.000331  -0.000007  -0.000048
     8  H   -0.000162  -0.000691   0.000741  -0.000730   0.000014   0.000197
     9  H   -0.001148   0.000741   0.007953  -0.001918   0.000055   0.000599
    10  C    0.000331  -0.000730  -0.001918   0.019247  -0.000237  -0.003456
    11  H   -0.000007   0.000014   0.000055  -0.000237  -0.000960   0.000429
    12  H   -0.000048   0.000197   0.000599  -0.003456   0.000429   0.001854
    13  H    0.000002  -0.000030   0.000006  -0.000893   0.000169   0.000063
    14  O   -0.001013   0.000405   0.003625  -0.009099   0.000390   0.002072
    15  O    0.000414  -0.000203  -0.004034   0.003267  -0.000154  -0.002327
    16  H   -0.000145   0.000046   0.000912  -0.000303   0.000010   0.000318
             13         14         15         16
     1  C    0.000148   0.008515   0.004678  -0.000745
     2  H   -0.000005  -0.000664   0.000009  -0.000010
     3  O   -0.000042  -0.001227  -0.000054   0.000031
     4  H    0.000008  -0.000214   0.000016  -0.000003
     5  C    0.000388  -0.001274   0.003838  -0.000709
     6  C    0.000137  -0.003779   0.002471  -0.000343
     7  H    0.000002  -0.001013   0.000414  -0.000145
     8  H   -0.000030   0.000405  -0.000203   0.000046
     9  H    0.000006   0.003625  -0.004034   0.000912
    10  C   -0.000893  -0.009099   0.003267  -0.000303
    11  H    0.000169   0.000390  -0.000154   0.000010
    12  H    0.000063   0.002072  -0.002327   0.000318
    13  H   -0.000457  -0.000062   0.000026  -0.000003
    14  O   -0.000062   0.006212  -0.098864   0.007393
    15  O    0.000026  -0.098864   0.545298  -0.001937
    16  H   -0.000003   0.007393  -0.001937  -0.011076
 Mulliken atomic spin densities:
              1
     1  C    0.569449
     2  H   -0.031160
     3  O    0.118549
     4  H   -0.003992
     5  C   -0.021756
     6  C    0.006048
     7  H   -0.000764
     8  H    0.001390
     9  H    0.003970
    10  C    0.000122
    11  H   -0.000216
    12  H    0.000608
    13  H   -0.000544
    14  O   -0.087585
    15  O    0.452444
    16  H   -0.006565
 Sum of Mulliken spin densities=   1.00000
 APT atomic charges:
              1
     1  C    0.342653
     2  H    0.063214
     3  O   -0.696482
     4  H    0.290758
     5  C    0.357860
     6  C    0.015799
     7  H   -0.020403
     8  H   -0.008334
     9  H    0.026568
    10  C   -0.005158
    11  H   -0.033257
    12  H    0.039801
    13  H   -0.006858
    14  O    0.170169
    15  O   -0.773953
    16  H    0.237623
 Sum of APT charges=   0.00000
 APT Atomic charges with hydrogens summed into heavy atoms:
              1
     1  C    0.405867
     2  H    0.000000
     3  O   -0.405724
     4  H    0.000000
     5  C    0.357860
     6  C    0.013630
     7  H    0.000000
     8  H    0.000000
     9  H    0.000000
    10  C   -0.005472
    11  H    0.000000
    12  H    0.000000
    13  H    0.000000
    14  O    0.170169
    15  O   -0.536330
    16  H    0.000000
 Sum of APT charges=   0.00000
 Electronic spatial extent (au):  <R**2>=  1216.6074
 Charge=     0.0000 electrons
 Dipole moment (field-independent basis, Debye):
    X=     2.0731    Y=     0.5092    Z=     1.1648  Tot=     2.4318
 Quadrupole moment (field-independent basis, Debye-Ang):
   XX=   -50.3967   YY=   -42.1689   ZZ=   -38.8461
   XY=    -4.3748   XZ=    -0.9974   YZ=     3.7441
 Traceless Quadrupole moment (field-independent basis, Debye-Ang):
   XX=    -6.5928   YY=     1.6350   ZZ=     4.9578
   XY=    -4.3748   XZ=    -0.9974   YZ=     3.7441
 Octapole moment (field-independent basis, Debye-Ang**2):
  XXX=   151.2691  YYY=   102.6437  ZZZ=   -73.3997  XYY=    37.5813
  XXY=    46.6050  XXZ=   -29.4842  XZZ=    35.5939  YZZ=    32.4613
  YYZ=   -29.1737  XYZ=    -9.4531
 Hexadecapole moment (field-independent basis, Debye-Ang**3):
 XXXX=  -655.8360 YYYY=  -600.7622 ZZZZ=  -314.2583 XXXY=  -192.7904
 XXXZ=    79.3313 YYYX=  -152.4132 YYYZ=    86.0380 ZZZX=    66.7349
 ZZZY=    61.5375 XXYY=  -196.8727 XXZZ=  -130.4530 YYZZ=  -138.7189
 XXYZ=    43.3737 YYXZ=    38.3489 ZZXY=   -41.8127
 N-N= 3.314899631702D+02 E-N=-1.562963496618D+03  KE= 3.822074243018D+02
  Exact polarizability:  76.699  21.201  78.267   2.472   5.998  55.946
 Approx polarizability: 133.597  50.967 120.809   7.020   8.542  78.338
                          Isotropic Fermi Contact Couplings
        Atom                 a.u.       MegaHertz       Gauss      10(-4) cm-1
     1  C(13)              0.03083      34.66272      12.36852      11.56224
     2  H(1)              -0.00887     -39.62593     -14.13952     -13.21779
     3  O(17)              0.02091     -12.67661      -4.52333      -4.22846
     4  H(1)              -0.00234     -10.47724      -3.73854      -3.49483
     5  C(13)             -0.00964     -10.84105      -3.86835      -3.61618
     6  C(13)              0.00950      10.68168       3.81149       3.56303
     7  H(1)              -0.00024      -1.05471      -0.37635      -0.35181
     8  H(1)               0.00011       0.50906       0.18164       0.16980
     9  H(1)               0.00152       6.80118       2.42683       2.26863
    10  C(13)              0.00233       2.62241       0.93574       0.87474
    11  H(1)              -0.00016      -0.71632      -0.25560      -0.23894
    12  H(1)               0.00027       1.19316       0.42575       0.39799
    13  H(1)               0.00000       0.00169       0.00060       0.00057
    14  O(17)              0.37947    -230.03119     -82.08085     -76.73015
    15  O(17)              0.06622     -40.14294     -14.32400     -13.39024
    16  H(1)              -0.00698     -31.19999     -11.13293     -10.40720
 --------------------------------------------------------
       Center         ----  Spin Dipole Couplings  ----
                      3XX-RR        3YY-RR        3ZZ-RR
 --------------------------------------------------------
     1   Atom        0.128564     -0.351877      0.223313
     2   Atom        0.015370     -0.040956      0.025585
     3   Atom        0.198037     -0.378520      0.180483
     4   Atom        0.008438     -0.016451      0.008013
     5   Atom       -0.004459      0.000240      0.004218
     6   Atom       -0.006632      0.016610     -0.009978
     7   Atom       -0.001048      0.005613     -0.004565
     8   Atom       -0.001426      0.003003     -0.001577
     9   Atom        0.002576      0.000907     -0.003483
    10   Atom        0.003117     -0.004476      0.001360
    11   Atom        0.001666     -0.001927      0.000261
    12   Atom       -0.001721     -0.002643      0.004364
    13   Atom       -0.002135     -0.003053      0.005188
    14   Atom       -0.311879      0.085290      0.226589
    15   Atom        0.672974      0.211847     -0.884821
    16   Atom       -0.037162     -0.021943      0.059105
 --------------------------------------------------------
                        XY            XZ            YZ
 --------------------------------------------------------
     1   Atom       -0.075339      0.525865     -0.064101
     2   Atom       -0.011440     -0.022024      0.009232
     3   Atom       -0.060672      0.552541     -0.048643
     4   Atom       -0.010328     -0.021411      0.009249
     5   Atom       -0.000400     -0.000756     -0.003139
     6   Atom       -0.001594      0.001753      0.000071
     7   Atom       -0.001865     -0.000532      0.001878
     8   Atom       -0.001652      0.002765     -0.004570
     9   Atom       -0.000940      0.002786     -0.002593
    10   Atom        0.003379     -0.005340     -0.000308
    11   Atom        0.001007     -0.004093      0.001627
    12   Atom        0.002438      0.000231      0.001287
    13   Atom        0.001466     -0.002190     -0.001187
    14   Atom       -0.354422      0.154614      0.034127
    15   Atom        1.379671     -0.289518     -0.246029
    16   Atom        0.013443     -0.016737      0.049812
 --------------------------------------------------------


 ---------------------------------------------------------------------------------
              Anisotropic Spin Dipole Couplings in Principal Axis System
 ---------------------------------------------------------------------------------

       Atom             a.u.   MegaHertz   Gauss  10(-4) cm-1        Axes

              Baa    -0.3696   -49.594   -17.696   -16.543  0.4747  0.8147 -0.3330
     1 C(13)  Bbb    -0.3434   -46.081   -16.443   -15.371 -0.5677  0.5725  0.5915
              Bcc     0.7130    95.675    34.139    31.914  0.6726 -0.0918  0.7343
 
              Baa    -0.0436   -23.252    -8.297    -7.756  0.1610  0.9837 -0.0800
     2 H(1)   Bbb    -0.0019    -1.011    -0.361    -0.337  0.7660 -0.0734  0.6386
              Bcc     0.0455    24.263     8.657     8.093 -0.6223  0.1641  0.7654
 
              Baa    -0.3865    27.968     9.980     9.329  0.2719  0.9446 -0.1839
     3 O(17)  Bbb    -0.3607    26.098     9.312     8.705 -0.6481  0.3210  0.6906
              Bcc     0.7472   -54.066   -19.292   -18.034  0.7114 -0.0686  0.6995
 
              Baa    -0.0204   -10.860    -3.875    -3.622  0.2543  0.9595 -0.1209
     4 H(1)   Bbb    -0.0131    -7.003    -2.499    -2.336  0.6802 -0.0885  0.7277
              Bcc     0.0335    17.862     6.374     5.958  0.6875 -0.2673 -0.6752
 
              Baa    -0.0046    -0.623    -0.222    -0.208  0.9744  0.1726  0.1443
     5 C(13)  Bbb    -0.0013    -0.178    -0.063    -0.059 -0.2204  0.8614  0.4577
              Bcc     0.0060     0.801     0.286     0.267 -0.0453 -0.4778  0.8773
 
              Baa    -0.0107    -1.442    -0.515    -0.481 -0.4004 -0.0257  0.9160
     6 C(13)  Bbb    -0.0060    -0.801    -0.286    -0.267  0.9138  0.0632  0.4012
              Bcc     0.0167     2.243     0.801     0.748 -0.0682  0.9977 -0.0018
 
              Baa    -0.0049    -2.620    -0.935    -0.874  0.0555 -0.1659  0.9846
     7 H(1)   Bbb    -0.0015    -0.819    -0.292    -0.273  0.9668  0.2554 -0.0114
              Bcc     0.0064     3.439     1.227     1.147 -0.2495  0.9525  0.1745
 
              Baa    -0.0051    -2.743    -0.979    -0.915 -0.4442  0.3682  0.8168
     8 H(1)   Bbb    -0.0017    -0.905    -0.323    -0.302  0.8315  0.5089  0.2228
              Bcc     0.0068     3.648     1.302     1.217 -0.3336  0.7781 -0.5322
 
              Baa    -0.0053    -2.831    -1.010    -0.944 -0.2786  0.3337  0.9006
     9 H(1)   Bbb     0.0006     0.341     0.122     0.114  0.5718  0.8110 -0.1236
              Bcc     0.0047     2.489     0.888     0.830  0.7717 -0.4805  0.4167
 
              Baa    -0.0063    -0.840    -0.300    -0.280 -0.4676  0.8336 -0.2939
    10 C(13)  Bbb    -0.0020    -0.269    -0.096    -0.090  0.4384  0.5074  0.7418
              Bcc     0.0083     1.110     0.396     0.370  0.7675  0.2180 -0.6028
 
              Baa    -0.0046    -2.431    -0.867    -0.811  0.5095 -0.5854  0.6307
    11 H(1)   Bbb    -0.0006    -0.305    -0.109    -0.102  0.4077  0.8097  0.4221
              Bcc     0.0051     2.736     0.976     0.913  0.7577 -0.0421 -0.6512
 
              Baa    -0.0047    -2.531    -0.903    -0.844 -0.6207  0.7784 -0.0943
    12 H(1)   Bbb     0.0001     0.040     0.014     0.013  0.7756  0.5919 -0.2193
              Bcc     0.0047     2.491     0.889     0.831  0.1149  0.2092  0.9711
 
              Baa    -0.0041    -2.212    -0.789    -0.738 -0.6209  0.7826 -0.0461
    13 H(1)   Bbb    -0.0019    -1.019    -0.364    -0.340  0.7312  0.5993  0.3259
              Bcc     0.0061     3.231     1.153     1.078 -0.2826 -0.1686  0.9443
 
              Baa    -0.5489    39.720    14.173    13.249  0.8524  0.4866 -0.1914
    14 O(17)  Bbb     0.2231   -16.147    -5.762    -5.386 -0.1438  0.5700  0.8090
              Bcc     0.3258   -23.573    -8.412    -7.863 -0.5027  0.6620 -0.5559
 
              Baa    -0.9564    69.206    24.694    23.084 -0.6424  0.7657  0.0335
    15 O(17)  Bbb    -0.9368    67.783    24.187    22.610  0.1252  0.0617  0.9902
              Bcc     1.8932  -136.989   -48.881   -45.695  0.7561  0.6403 -0.1355
 
              Baa    -0.0614   -32.773   -11.694   -10.932 -0.6322  0.6812 -0.3693
    16 H(1)   Bbb    -0.0221   -11.797    -4.210    -3.935  0.7708  0.6015 -0.2100
              Bcc     0.0835    44.571    15.904    14.867 -0.0790  0.4174  0.9053
 

 ---------------------------------------------------------------------------------

 Use density number 0.
 Entering OneElI...
 Calculate overlap and kinetic energy integrals
    NBasis = 187  MinDer = 2  MaxDer = 2
 Requested accuracy = 0.1000D-12
 PrsmSu:  NPrtUS=   1 ThrOK=F
 PRISM was handed   130759303 working-precision words and  2551 shell-pairs
 Entering OneElI...
 Calculate potential energy integrals
    NBasis = 187  MinDer = 2  MaxDer = 2
 Requested accuracy = 0.1000D-12
 PrsmSu:  NPrtUS=   8 ThrOK=T
 PRISM was handed    16301001 working-precision words and  2394 shell-pairs
 PRISM was handed    16301001 working-precision words and  2394 shell-pairs
 PRISM was handed    16301001 working-precision words and  2394 shell-pairs
 PRISM was handed    16301001 working-precision words and  2394 shell-pairs
 PRISM was handed    16301001 working-precision words and  2394 shell-pairs
 PRISM was handed    16301001 working-precision words and  2394 shell-pairs
 PRISM was handed    16301001 working-precision words and  2394 shell-pairs
 PRISM was handed    16301001 working-precision words and  2394 shell-pairs
 Polarizability after L701:
                1             2             3
      1  0.766987D+02
      2  0.212011D+02  0.782674D+02
      3  0.247173D+01  0.599822D+01  0.559463D+02
 Dipole Derivatives after L701:
               1            2            3            4            5
      1-0.408141D+00 0.467462D+00-0.239968D+00 0.103152D+00 0.834366D-02
      2-0.487986D+00 0.133296D+01 0.108323D+00 0.320479D-01 0.469016D-01
      3-0.262601D+00 0.183700D+00 0.103140D+00 0.750838D-01 0.389809D-02
               6            7            8            9           10
      1 0.958991D-01-0.786828D-01-0.632048D+00-0.146556D+00 0.196093D+00
      2-0.151207D-01 0.319130D+00-0.168688D+01-0.273829D+00-0.497486D-01
      3 0.395881D-01 0.793580D-01-0.191971D+00-0.323878D+00 0.106346D-01
              11           12           13           14           15
      1-0.156674D-01 0.973611D-01 0.218062D+00-0.250666D+00 0.131008D+00
      2 0.388554D+00 0.575670D-01-0.279167D+00 0.271437D+00-0.293851D-01
      3 0.427254D-02 0.287626D+00 0.560397D-01-0.926782D-01 0.584081D+00
              16           17           18           19           20
      1 0.733583D-01 0.788082D-01 0.440182D-01 0.259338D-02 0.131971D-01
      2 0.877850D-01-0.101715D+00 0.129484D-01 0.363497D-01 0.347223D-01
      3 0.172177D-01 0.519725D-01 0.757535D-01 0.721444D-01-0.923984D-02
              21           22           23           24           25
      1 0.103229D+00-0.740997D-02-0.176007D-01-0.103541D+00-0.130368D-02
      2-0.526707D-01 0.390658D-01 0.414872D-01 0.203265D-01-0.114466D+00
      3-0.985245D-01-0.962793D-01-0.260102D-01-0.590793D-01 0.284546D-01
              26           27           28           29           30
      1 0.305047D-02 0.478228D-02 0.310832D-01 0.528827D-02 0.114207D+00
      2 0.123003D-01-0.137925D-01-0.683282D-02 0.168549D-01 0.164111D-01
      3 0.265869D-01 0.687074D-01 0.185514D+00-0.589427D-02-0.634107D-01
              31           32           33           34           35
      1 0.104737D-01 0.109279D+00-0.167699D-01 0.459183D-01-0.681687D-01
      2 0.859295D-01-0.138357D+00 0.362411D-01-0.388408D-01 0.548573D-02
      3-0.253757D-02 0.431233D-02 0.281133D-01 0.385508D-01 0.431877D-01
              36           37           38           39           40
      1-0.304036D-01-0.268756D-01 0.448729D-02-0.501362D-01 0.659996D+00
      2-0.189780D-01-0.990561D-02 0.674733D-01-0.540459D-02 0.100950D+01
      3 0.679990D-01-0.117038D+00-0.287557D-01-0.611730D-01 0.602509D-01
              41           42           43           44           45
      1 0.100457D+01-0.114188D+00-0.109298D+01-0.728128D+00-0.453073D-01
      2 0.437097D+00 0.259680D-01-0.613236D+00-0.100923D+01 0.113885D+00
      3 0.147446D+00-0.586586D+00-0.225549D+00-0.766097D-01-0.219650D+00
              46           47           48
      1 0.274662D+00 0.177928D-01 0.156364D+00
      2-0.962840D-02 0.280914D+00 0.175104D-01
      3 0.807569D-01-0.342175D-01 0.157293D+00
 Hessian after L701:
                1             2             3             4             5
      1  0.178968D+02
      2 -0.164096D+01  0.671684D+01
      3  0.320301D+01 -0.677264D+00  0.194254D+02
      4 -0.329339D+01 -0.535886D+00 -0.168558D+01  0.291286D+01
      5 -0.441923D+00 -0.474662D+01  0.485074D+00  0.453766D+00  0.485931D+01
      6 -0.158929D+01  0.562005D+00 -0.303840D+01  0.179527D+01 -0.566168D+00
      7 -0.996091D+01 -0.163714D+01 -0.369696D+00  0.807703D-01  0.905330D-01
      8 -0.189066D+01  0.103015D+01  0.209122D+01  0.330307D-01 -0.208951D+00
      9 -0.401363D+00  0.192042D+01 -0.978126D+01 -0.593256D-01 -0.844774D-01
     10  0.111819D+00 -0.464548D-01  0.109590D-04  0.418366D-01 -0.589648D-01
     11  0.100636D+00  0.171941D+00 -0.552277D-01 -0.693790D-01  0.211576D-01
     12  0.122013D-01  0.780215D-01  0.166354D+00 -0.763261D-01  0.642390D-01
     13 -0.522573D+01  0.251576D+01 -0.155306D+01  0.403037D-01 -0.115125D+00
     14  0.265730D+01 -0.326071D+01 -0.202756D+01 -0.910436D-01  0.152615D+00
     15 -0.173920D+01 -0.212974D+01 -0.613611D+01  0.212671D+00  0.153859D+00
     16 -0.538383D-01  0.925407D-01 -0.196644D-01 -0.102411D-01  0.541702D-02
     17 -0.209851D-01  0.100630D+00 -0.325718D-01  0.226451D-01  0.175714D-03
     18  0.255643D-01 -0.563785D-01  0.192580D-01 -0.222416D-01 -0.169196D-01
     19  0.809457D-02 -0.202779D-01 -0.143307D-02 -0.278991D-01 -0.166102D-02
     20 -0.209114D-01 -0.445339D-01 -0.160855D-01  0.196303D-01  0.440765D-01
     21 -0.122230D-01  0.115451D-01  0.190979D-02  0.509057D-02 -0.725672D-02
     22 -0.232717D-01 -0.271702D-01  0.182641D-01 -0.833904D-02 -0.624267D-03
     23 -0.961860D-02  0.213454D-01 -0.335333D-01  0.352293D-02  0.925268D-03
     24  0.203159D-01 -0.585351D-01  0.643830D-03 -0.886400D-02 -0.640646D-02
     25 -0.334263D-01  0.750911D-01 -0.109020D-01  0.508074D-02  0.802316D-03
     26  0.750190D-01  0.179497D+00 -0.393233D-01  0.841692D-02 -0.148481D-02
     27 -0.137164D-01 -0.423244D-01 -0.449037D-01 -0.283555D-02 -0.127000D-03
     28 -0.726064D-01 -0.367104D-01  0.183644D-01  0.404780D-01  0.106565D-01
     29 -0.186221D-01  0.719699D-01 -0.108403D+00  0.222938D-01 -0.462390D-01
     30  0.125256D+00 -0.418773D-01  0.198671D+00 -0.110090D+00 -0.192441D-01
     31 -0.621137D-02  0.210470D-03 -0.104561D-01  0.812635D-02 -0.267057D-02
     32 -0.772697D-02 -0.845855D-02  0.649712D-02 -0.795480D-02  0.510561D-03
     33  0.731482D-02 -0.317480D-02 -0.963712D-02 -0.453839D-02  0.896272D-03
     34  0.686093D-01  0.766902D-01 -0.922851D-01  0.525127D-02 -0.203065D-02
     35  0.791539D-01 -0.353985D-03 -0.663646D-01  0.679915D-02 -0.111209D-02
     36 -0.946815D-01 -0.623288D-01  0.251544D-01 -0.250261D-02  0.234093D-02
     37 -0.198620D-01  0.422910D-02 -0.457416D-02 -0.427630D-02  0.732466D-03
     38  0.777685D-02 -0.258290D-01 -0.167796D-01 -0.244785D-03 -0.164838D-02
     39 -0.270382D-01 -0.237951D-01  0.546537D-01 -0.984240D-02  0.163604D-02
     40  0.397324D+00  0.779119D+00  0.498143D+00  0.172645D+00  0.499750D-01
     41  0.801937D+00 -0.334385D+00  0.488887D+00  0.104105D+00 -0.645031D-01
     42  0.475657D+00  0.529568D+00 -0.676272D+00 -0.212088D-01 -0.456962D-02
     43  0.220729D+00  0.412520D+00  0.119323D-01  0.349294D-01  0.100718D-01
     44  0.335560D+00  0.139759D+00 -0.261759D-02  0.238348D-01 -0.781615D-02
     45  0.968689D-03 -0.118310D-01 -0.213399D+00 -0.179408D-01 -0.317075D-02
     46 -0.141318D-01 -0.115557D-01 -0.206528D-02  0.186935D-02  0.104544D-02
     47 -0.597223D-02 -0.112512D-01  0.405083D-02  0.646425D-02 -0.402930D-03
     48  0.722803D-02  0.569093D-02  0.795473D-02  0.826661D-02  0.294390D-03
                6             7             8             9            10
      6  0.289655D+01
      7 -0.590532D-01  0.145418D+02
      8 -0.106894D-01  0.132087D+01  0.429686D+01
      9  0.117854D+00  0.338824D+01 -0.223374D+01  0.142409D+02
     10 -0.741719D-01 -0.423285D+01 -0.666207D+00 -0.274668D+01  0.422840D+01
     11  0.733204D-01 -0.104894D+01 -0.661592D+01  0.106930D+01  0.750596D+00
     12  0.532721D-01 -0.281882D+01  0.692971D+00 -0.395037D+01  0.285711D+01
     13  0.177997D+00 -0.127549D+00  0.290926D+00 -0.111596D+00  0.295472D-01
     14  0.110746D+00  0.265512D+00  0.617300D+00 -0.417808D+00  0.341869D-01
     15 -0.456519D-01 -0.817987D-01 -0.430672D+00  0.323028D-01  0.615757D-02
     16 -0.230388D-01 -0.163216D+00 -0.271317D-01  0.845472D-02 -0.124567D-01
     17 -0.439969D-01 -0.293893D-01  0.321303D+00 -0.847340D-01 -0.272648D-01
     18  0.864832D-02  0.679699D-02 -0.711340D-01 -0.152704D+00 -0.106382D-02
     19  0.551830D-02 -0.166958D-01 -0.300205D-01 -0.570376D-03  0.319748D-02
     20 -0.294493D-01 -0.626092D-02  0.439802D-01  0.556013D-02 -0.411493D-02
     21 -0.273446D-01 -0.166571D-02  0.374136D-01 -0.177739D-01 -0.604698D-02
     22  0.718414D-02 -0.138840D-01 -0.307087D-01  0.159302D-01  0.446230D-02
     23 -0.104015D-01 -0.840917D-02  0.267567D-01 -0.187253D-01 -0.382687D-02
     24  0.154164D-01  0.559145D-02 -0.411305D-01  0.243627D-02  0.569056D-02
     25 -0.702881D-02 -0.403760D-02  0.222185D-01 -0.649549D-02 -0.436569D-02
     26 -0.901084D-02  0.106577D-01  0.361574D-01 -0.111511D-01 -0.650400D-02
     27  0.172931D-02 -0.184825D-02 -0.957544D-02 -0.850270D-02  0.742390D-03
     28 -0.100952D+00 -0.834528D-01  0.236527D+00 -0.156899D+00 -0.987241D-01
     29 -0.262983D-01  0.336061D+00  0.571673D-01 -0.279316D+00 -0.321657D-02
     30  0.830320D-01 -0.178824D+00 -0.155404D+00 -0.147038D+00 -0.583092D-02
     31 -0.100552D-01  0.227773D-01  0.274064D-01 -0.938417D-01 -0.473929D-03
     32  0.787006D-02 -0.348687D-01 -0.801569D-01  0.129465D-01  0.574416D-01
     33  0.222052D-02 -0.521590D-01 -0.241396D-01  0.128285D-01 -0.438067D-01
     34 -0.606825D-02  0.159779D-01  0.423934D-01 -0.309822D-01 -0.730466D-02
     35 -0.725705D-02  0.425351D-01  0.375444D-01 -0.383841D-01 -0.706576D-02
     36  0.138968D-02 -0.207713D-01 -0.305247D-01  0.971333D-03  0.250351D-02
     37  0.284013D-02 -0.388836D-01 -0.520920D-02  0.129910D-01  0.932091D-03
     38  0.112077D-03  0.157180D-01  0.339216D-03 -0.479187D-01 -0.261788D-02
     39  0.125503D-01 -0.320420D-01 -0.736824D-01  0.649226D-01  0.996519D-02
     40 -0.913997D-01 -0.389223D-01  0.539108D+00  0.180163D+00 -0.460147D-01
     41 -0.350250D-01  0.496210D+00  0.360155D+00  0.207159D+00 -0.682327D-02
     42 -0.698971D-01  0.188325D+00  0.222043D+00 -0.298274D+00 -0.288734D-02
     43 -0.269693D-01  0.218006D-01  0.128953D+00 -0.906408D-03 -0.175016D-01
     44 -0.122909D-01  0.168899D+00  0.587927D-01 -0.452102D-02 -0.699248D-02
     45 -0.458559D-02  0.956226D-02  0.884356D-02 -0.112316D+00  0.207961D-02
     46 -0.780873D-03 -0.274666D-02  0.849851D-02  0.287925D-02 -0.511746D-03
     47 -0.346576D-02  0.180081D-01  0.185232D-01  0.540028D-02 -0.217110D-02
     48 -0.678929D-02  0.181603D-01  0.282057D-01 -0.397388D-02 -0.377525D-02
               11            12            13            14            15
     11  0.633959D+01
     12 -0.928439D+00  0.383395D+01
     13  0.880915D-01  0.165956D-01  0.192760D+02
     14 -0.185858D+00 -0.345817D-02  0.231905D+00  0.183607D+02
     15 -0.547666D-01  0.258196D-01 -0.110375D+01  0.170625D+01  0.166991D+02
     16 -0.105973D-01 -0.151959D-02 -0.453564D+01 -0.267534D+01  0.206453D+00
     17  0.426943D-01  0.207235D-01 -0.263020D+01 -0.177817D+01 -0.470143D+00
     18  0.234179D-02 -0.143979D-01  0.243851D+00 -0.526517D+00 -0.610266D+01
     19 -0.333168D-02 -0.464241D-02  0.846728D-01 -0.383761D-01  0.274591D-01
     20  0.286722D-02  0.440416D-02 -0.161238D-01  0.387894D-01 -0.724604D-01
     21  0.427874D-02  0.529668D-02 -0.298341D-01  0.211178D-02  0.235037D-01
     22 -0.383401D-02 -0.476436D-02  0.116456D-01  0.201063D-01 -0.784014D-01
     23  0.200062D-02  0.266317D-02  0.604157D-01  0.687254D-01  0.897290D-01
     24 -0.373814D-02 -0.601007D-02 -0.421640D-01  0.363859D-01  0.214888D-01
     25  0.223174D-02  0.342564D-02  0.913814D-01  0.582958D-01 -0.800837D-02
     26  0.674844D-02  0.719358D-02 -0.575314D-01  0.584700D-01  0.246186D-01
     27 -0.691042D-03 -0.197633D-02  0.727520D-02  0.112322D-01  0.643724D-01
     28  0.523512D-01 -0.929603D-02 -0.496578D+01 -0.565679D+00 -0.237313D+01
     29  0.141158D+00 -0.349265D-01 -0.576318D+00 -0.576309D+01  0.126205D+01
     30 -0.105391D+00 -0.724425D-01 -0.246910D+01  0.130972D+01 -0.170695D+01
     31  0.869346D-01 -0.341518D-01 -0.194450D-01  0.193234D-01 -0.222408D-01
     32  0.315118D-02 -0.412802D-01  0.514683D-02  0.661269D-01  0.510519D-01
     33 -0.595150D-01 -0.287967D-01  0.337402D-01 -0.197779D-01  0.781335D-01
     34  0.170368D-02  0.706160D-02  0.228461D-01 -0.381724D-02 -0.357834D-01
     35  0.308281D-02  0.814860D-02  0.540581D-01  0.533598D-01 -0.549809D-01
     36 -0.813545D-03 -0.396771D-02  0.238229D-01  0.249780D-01  0.544391D-01
     37 -0.446155D-02 -0.274557D-02  0.115955D+00 -0.374650D-02 -0.132555D-01
     38 -0.158447D-02  0.338425D-02 -0.217334D-01  0.974190D-01 -0.145774D-03
     39 -0.733886D-02 -0.108982D-01 -0.773092D-01  0.785082D-02 -0.925933D-01
     40  0.447961D-01  0.371150D-01 -0.498628D+01  0.866156D-01  0.483293D+01
     41  0.529043D-01  0.942830D-01  0.179322D+00 -0.831463D+01 -0.239393D+00
     42  0.572071D-01  0.731734D-02  0.470042D+01 -0.384805D+00 -0.278178D+01
     43  0.126768D-01  0.183843D-01  0.207986D+00 -0.220342D-01  0.160458D+00
     44  0.133968D-01  0.272206D-01 -0.404762D-01 -0.246176D+00  0.120529D+00
     45  0.549392D-02 -0.913873D-02  0.159478D+00  0.119633D+00 -0.156657D+00
     46  0.525282D-03  0.368388D-03 -0.199349D-01  0.267896D-01  0.943992D-02
     47  0.267075D-02  0.485153D-02  0.318886D-01  0.350749D-01  0.442145D-01
     48  0.398398D-02  0.599713D-02  0.236365D-01  0.510173D-01  0.232916D-01
               16            17            18            19            20
     16  0.140079D+02
     17  0.182402D+01  0.123885D+02
     18 -0.259212D+00  0.524632D+00  0.160622D+02
     19 -0.365628D+01 -0.238669D+00 -0.132735D+01  0.331271D+01
     20 -0.315439D+00 -0.427547D+01  0.593262D+00  0.572202D+00  0.406535D+01
     21 -0.114672D+01  0.391257D+00 -0.231375D+01  0.132079D+01 -0.569027D+00
     22 -0.303762D+01  0.442681D-01  0.142085D+01  0.994202D-01 -0.755858D-02
     23 -0.752791D-01 -0.423589D+01 -0.100078D+00 -0.736712D-02  0.818720D-01
     24  0.134108D+01  0.397973D-01 -0.261478D+01 -0.290688D-01 -0.351416D-01
     25 -0.326525D+01  0.134690D+01 -0.240251D+00  0.535339D-02 -0.325867D-01
     26  0.168718D+01 -0.278565D+01 -0.290163D+00 -0.320445D-01  0.681683D-01
     27 -0.324834D+00 -0.315286D+00 -0.445697D+01  0.798902D-01  0.458074D-01
     28  0.483238D-01  0.783212D-01  0.776994D-02  0.415545D-01 -0.930477D-01
     29  0.436525D-01  0.102060D+00  0.216743D-01 -0.982871D-01  0.255062D-01
     30  0.104991D+00 -0.113758D+00  0.886662D-01 -0.118836D+00  0.109684D+00
     31  0.599774D-01 -0.152029D+00 -0.562648D-01 -0.811751D-03  0.449114D-02
     32 -0.154427D+00  0.117287D+00  0.693178D-01  0.599137D-03 -0.279363D-02
     33 -0.659974D-01  0.804713D-01 -0.410752D-01  0.437960D-02 -0.571169D-02
     34  0.415501D-02  0.522460D-02 -0.245999D-02  0.937878D-02 -0.453171D-02
     35  0.243662D-01 -0.365589D-02 -0.209596D-01  0.323488D-02 -0.388076D-02
     36  0.178778D-01 -0.123517D-01 -0.146346D-01 -0.859346D-02  0.334838D-02
     37 -0.291386D-01  0.191982D-02  0.633694D-02 -0.335009D-02  0.178013D-02
     38 -0.101848D-01 -0.764493D-02  0.370825D-01 -0.122347D-02 -0.528300D-03
     39 -0.146386D-01  0.370154D-01  0.359804D-01 -0.435388D-02  0.248870D-02
     40  0.317017D+00 -0.374713D+00 -0.254244D-01  0.653590D-01 -0.800724D-01
     41 -0.460303D+00  0.304298D+00 -0.175394D+00 -0.907726D-01 -0.159008D-01
     42 -0.827586D-01 -0.659930D-01 -0.304751D+00  0.560818D-01 -0.371314D-01
     43  0.274585D+00  0.140438D+00  0.165916D+00  0.672323D-01 -0.166200D-01
     44  0.272730D-01 -0.265501D+00 -0.854768D-02 -0.185785D-01 -0.235032D-01
     45  0.168094D+00  0.241470D-01 -0.233756D+00 -0.125146D-01  0.216116D-02
     46  0.517653D-01  0.951736D-02  0.571832D-01  0.806563D-02 -0.835787D-03
     47  0.242467D-01 -0.249762D-01  0.177807D-01  0.457366D-02 -0.400311D-02
     48  0.914335D-01  0.207904D-01  0.347105D-01  0.132442D-01 -0.170861D-02
               21            22            23            24            25
     21  0.243663D+01
     22 -0.899312D-02  0.283489D+01
     23 -0.113527D-01  0.201733D+00  0.404916D+01
     24 -0.116193D+00 -0.143931D+01  0.174743D+00  0.261119D+01
     25  0.381855D-01 -0.424957D-01 -0.641146D-01 -0.418340D-01  0.323257D+01
     26  0.248570D-01 -0.726777D-01  0.465209D-01 -0.357120D-01 -0.139763D+01
     27  0.274219D-01 -0.725365D-01 -0.492175D-01  0.562253D-01  0.190273D+00
     28 -0.108921D+00  0.388025D-01 -0.386704D-01  0.173975D-01  0.506423D-02
     29  0.104710D+00 -0.576899D-01 -0.154126D-02 -0.141620D-01  0.438457D-01
     30  0.586219D-01  0.467595D-02 -0.125042D-02 -0.270644D-01  0.105627D-01
     31 -0.113473D-02  0.441577D-02 -0.140419D-02  0.487111D-02 -0.409876D-02
     32  0.289785D-02 -0.699467D-02  0.759749D-03 -0.572569D-02  0.247425D-02
     33 -0.123917D-02  0.592755D-03 -0.256854D-03 -0.840387D-03 -0.156020D-03
     34 -0.129046D-01  0.228792D-01 -0.652444D-02  0.476647D-02 -0.489195D-02
     35 -0.439786D-02  0.364904D-02 -0.531509D-02  0.414933D-02 -0.156390D-01
     36  0.571204D-02 -0.724705D-02  0.151993D-02 -0.662968D-02 -0.123032D-01
     37  0.439414D-02 -0.550096D-02 -0.660838D-03 -0.133348D-02 -0.188160D-02
     38  0.242459D-02 -0.985073D-02  0.748069D-03 -0.118071D-02  0.360499D-02
     39  0.755127D-02 -0.134986D-01  0.752292D-02 -0.810878D-02  0.628746D-02
     40 -0.484049D-02  0.683330D-01 -0.468024D-01  0.118437D+00 -0.319300D-01
     41  0.457366D-02 -0.519869D-01 -0.362283D-01 -0.519858D-01 -0.105280D-01
     42 -0.623580D-01  0.121803D+00 -0.510086D-01  0.669336D-01 -0.184321D-02
     43 -0.353126D-01  0.452559D-01 -0.339689D-02  0.424589D-01  0.592711D-01
     44  0.798675D-02 -0.325871D-02 -0.185008D-01 -0.406552D-02 -0.349391D-01
     45 -0.195862D-01  0.271907D-01 -0.890892D-03 -0.176280D-02  0.855795D-01
     46  0.142230D-03  0.100726D-02  0.402625D-03  0.195778D-02 -0.634226D-02
     47 -0.202202D-02  0.259759D-02 -0.132965D-02  0.270765D-02 -0.225632D-04
     48 -0.841008D-02  0.825896D-02  0.536901D-03  0.706142D-02 -0.549163D-02
               26            27            28            29            30
     26  0.243879D+01
     27  0.426029D+00  0.447105D+01
     28  0.235062D-01  0.228040D-02  0.151813D+02
     29 -0.418621D-01 -0.141602D-01 -0.118203D+00  0.151619D+02
     30 -0.311395D-01  0.140646D-01  0.172676D+01 -0.876037D+00  0.126265D+02
     31 -0.816509D-02 -0.832783D-04 -0.353910D+01 -0.138481D+01  0.238050D+00
     32  0.145047D-01  0.658499D-03 -0.133360D+01 -0.247430D+01 -0.325367D+00
     33  0.255776D-02 -0.213100D-02  0.622211D-01 -0.890549D-01 -0.445276D+01
     34 -0.346972D-01 -0.150035D-01 -0.326657D+01  0.148873D+01 -0.362433D+00
     35 -0.133165D-02  0.115355D-01  0.139189D+01 -0.297972D+01 -0.397476D+00
     36  0.263082D-01 -0.368211D-02 -0.559127D+00 -0.647732D+00 -0.445883D+01
     37  0.662237D-02  0.116051D-02 -0.319057D+01  0.180322D+00  0.129050D+01
     38  0.134552D-01  0.891345D-02  0.208996D+00 -0.427146D+01  0.234123D+00
     39  0.211669D-01  0.297897D-02  0.148333D+01  0.233011D+00 -0.261225D+01
     40 -0.650583D-01  0.276499D-01 -0.107224D+00 -0.625544D-01 -0.500641D+00
     41  0.768122D-01 -0.441773D-01 -0.318021D-01  0.144868D+00  0.223217D+00
     42 -0.547990D-01 -0.217817D-01 -0.343231D+00  0.196603D+00  0.350877D+00
     43 -0.137087D+00  0.124770D+00 -0.189020D-01  0.203821D+00  0.238402D+00
     44 -0.105408D+00 -0.316983D-01  0.207309D+00 -0.120934D+00  0.173420D+00
     45 -0.516059D-01 -0.101913D+00  0.313718D+00  0.249502D+00  0.327474D-01
     46 -0.539861D-05 -0.318275D-02 -0.125989D-01  0.968381D-03  0.656040D-02
     47 -0.339307D-02  0.308100D-02  0.815932D-02 -0.545355D-02  0.167824D-01
     48 -0.982682D-02  0.402470D-02  0.197157D-01  0.225399D-01  0.241583D-01
               31            32            33            34            35
     31  0.357580D+01
     32  0.134893D+01  0.229447D+01
     33  0.143924D+00 -0.611554D-01  0.426395D+01
     34  0.576774D-01  0.239764D-01 -0.780709D-02  0.321160D+01
     35 -0.302279D-01  0.181697D-02  0.351018D-02 -0.153496D+01  0.298254D+01
     36  0.409373D-02  0.185562D-01  0.431763D-01  0.642795D+00  0.627861D+00
     37 -0.481275D-01  0.873609D-01 -0.994025D-01 -0.299957D-01 -0.447687D-01
     38  0.109777D+00  0.591571D-01  0.806554D-01 -0.746061D-01  0.343952D-01
     39 -0.126355D+00  0.810107D-01  0.370921D-01 -0.399171D-01 -0.246780D-01
     40 -0.807598D-01 -0.162995D-02  0.100585D-01 -0.198170D-01  0.116159D-01
     41 -0.138894D-01 -0.375261D-01  0.579824D-01  0.849804D-02 -0.265124D-01
     42 -0.336873D-01  0.119586D+00  0.100557D+00 -0.683247D-01 -0.609212D-01
     43 -0.284281D-01  0.214866D-01  0.113491D-01 -0.910538D-01  0.160741D-01
     44 -0.219210D-02  0.399997D-01  0.332105D-01  0.177239D-01 -0.872102D-01
     45  0.671979D-03  0.521460D-01 -0.464437D-02  0.290916D-01  0.331168D-01
     46 -0.131472D-02 -0.209737D-03  0.286662D-03  0.125725D-02 -0.711266D-03
     47 -0.168841D-02  0.545177D-02  0.350234D-02 -0.377157D-02 -0.364630D-02
     48 -0.334019D-02  0.109899D-01  0.316539D-02 -0.974570D-02 -0.129021D-01
               36            37            38            39            40
     36  0.408840D+01
     37 -0.464956D-01  0.326719D+01
     38 -0.420812D-01 -0.249743D+00  0.416054D+01
     39  0.639846D-01 -0.127832D+01 -0.303434D+00  0.224508D+01
     40 -0.290144D-01 -0.192390D-01  0.942952D-02  0.879603D-01  0.486386D+01
     41 -0.520899D-02  0.864155D-02 -0.496618D-01  0.156514D-01 -0.265055D+01
     42  0.751776D-01  0.918958D-01  0.241704D-01  0.168322D+00 -0.470772D+01
     43  0.943193D-01  0.740084D-02  0.149206D-01  0.358094D-01 -0.478827D+00
     44  0.101095D+00  0.148764D-01 -0.791623D-02  0.224192D-01  0.171622D+01
     45  0.138507D+00  0.312324D-01  0.188827D-01  0.244208D-01 -0.512337D+00
     46 -0.467599D-02 -0.651143D-03 -0.183024D-04 -0.431923D-04 -0.755230D-01
     47 -0.496619D-02  0.210501D-02  0.223711D-03  0.315502D-02  0.444944D-01
     48 -0.916896D-02  0.477636D-02  0.179150D-02  0.631244D-02  0.789157D-01
               41            42            43            44            45
     41  0.841517D+01
     42 -0.243897D+00  0.576298D+01
     43  0.171723D+01 -0.369577D+00  0.573590D+01
     44 -0.490244D+00 -0.291255D+00 -0.240941D+01  0.647089D+01
     45 -0.427787D+00 -0.232692D+01  0.917394D-01 -0.176916D+01  0.534918D+01
     46  0.709621D-03 -0.294759D-02 -0.604038D+01  0.414831D-02 -0.376613D+00
     47  0.153825D-01  0.452032D-01 -0.896428D-01 -0.534963D+01  0.175052D+01
     48  0.131115D+00  0.987375D-02 -0.562774D+00  0.163828D+01 -0.236018D+01
               46            47            48
     46  0.611017D+01
     47 -0.392689D-01  0.532675D+01
     48  0.311491D+00 -0.189080D+01  0.226197D+01
 ReadGW:  IGet=0 IStart=         114 Next=        7220 LGW=        7106.
 ICntrl=12127.
 Symmetry not used in FoFDir.
 MinBra= 0 MaxBra= 2 Meth= 1.
 IRaf=       0 NMat=   1 IRICut=       1 DoRegI=T DoRafI=F ISym2E= 0 JSym2E=0.
 PrsmSu:  NPrtUS=   8 ThrOK=T
 PRISM was handed    16286866 working-precision words and  2480 shell-pairs
 PRISM was handed    16286866 working-precision words and  2480 shell-pairs
 PRISM was handed    16286866 working-precision words and  2480 shell-pairs
 PRISM was handed    16286866 working-precision words and  2480 shell-pairs
 PRISM was handed    16286866 working-precision words and  2480 shell-pairs
 PRISM was handed    16286866 working-precision words and  2480 shell-pairs
 PRISM was handed    16286866 working-precision words and  2480 shell-pairs
 PRISM was handed    16286866 working-precision words and  2480 shell-pairs
 Pruned (  75, 302) grid will be used in CalDFT.
 CkSvGd:  ISavGI=        -1 IRadAn=       4 IRASav=       4 ISavGd=        -1.
 CalDSu:  NPrtUS=   8 ThrOK=T
 IPart= 0 IRanGd=          0 ScrnBf=T ScrnGd=T RCrit=4.00D+00 DoMicB=T.
 IPart= 6 IRanGd=          0 ScrnBf=T ScrnGd=T RCrit=4.00D+00 DoMicB=T.
 IPart= 4 IRanGd=          0 ScrnBf=T ScrnGd=T RCrit=4.00D+00 DoMicB=T.
 CutRad = 1000.00    CtRdIn =    0.00    XCrit =  15.00   ICut = 0
 IPart= 2 IRanGd=          0 ScrnBf=T ScrnGd=T RCrit=4.00D+00 DoMicB=T.
 CutRad = 1000.00    CtRdIn =    0.00    XCrit =  15.00   ICut = 0
 CutRad = 1000.00    CtRdIn =    0.00    XCrit =  15.00   ICut = 0
 IPart= 1 IRanGd=          0 ScrnBf=T ScrnGd=T RCrit=4.00D+00 DoMicB=T.
 IPart= 3 IRanGd=          0 ScrnBf=T ScrnGd=T RCrit=4.00D+00 DoMicB=T.
 IPart= 7 IRanGd=          0 ScrnBf=T ScrnGd=T RCrit=4.00D+00 DoMicB=T.
 CutRad = 1000.00    CtRdIn =    0.00    XCrit =  15.00   ICut = 0
 CutRad = 1000.00    CtRdIn =    0.00    XCrit =  15.00   ICut = 0
 IPart= 5 IRanGd=          0 ScrnBf=T ScrnGd=T RCrit=4.00D+00 DoMicB=T.
 CutRad = 1000.00    CtRdIn =    0.00    XCrit =  15.00   ICut = 0
 CutRad = 1000.00    CtRdIn =    0.00    XCrit =  15.00   ICut = 0
 CutRad = 1000.00    CtRdIn =    0.00    XCrit =  15.00   ICut = 0
 IPart= 3        14606 of        16352 points in      34 batches and      106 microbatches, Max-NSigAt=      16 Max-NSgAt2=      16
 IPart= 4        12953 of        14580 points in      30 batches and       85 microbatches, Max-NSigAt=      16 Max-NSgAt2=      16
 IPart= 2        14991 of        17040 points in      35 batches and      103 microbatches, Max-NSigAt=      16 Max-NSgAt2=      16
 IPart= 0        13758 of        15324 points in      31 batches and      105 microbatches, Max-NSigAt=      16 Max-NSgAt2=      16
 IPart= 5        13922 of        16180 points in      34 batches and       93 microbatches, Max-NSigAt=      16 Max-NSgAt2=      16
 IPart= 7        13883 of        15880 points in      33 batches and       95 microbatches, Max-NSigAt=      16 Max-NSgAt2=      16
 IPart= 1        14150 of        16318 points in      33 batches and      112 microbatches, Max-NSigAt=      16 Max-NSgAt2=      16
 IPart= 6        14103 of        16116 points in      32 batches and       84 microbatches, Max-NSigAt=      16 Max-NSgAt2=      16
 Polarizability after L703:
                1             2             3
      1  0.766987D+02
      2  0.212011D+02  0.782674D+02
      3  0.247173D+01  0.599822D+01  0.559463D+02
 Dipole Derivatives after L703:
               1            2            3            4            5
      1-0.408141D+00 0.467462D+00-0.239968D+00 0.103152D+00 0.834366D-02
      2-0.487986D+00 0.133296D+01 0.108323D+00 0.320479D-01 0.469016D-01
      3-0.262601D+00 0.183700D+00 0.103140D+00 0.750838D-01 0.389809D-02
               6            7            8            9           10
      1 0.958991D-01-0.786828D-01-0.632048D+00-0.146556D+00 0.196093D+00
      2-0.151207D-01 0.319130D+00-0.168688D+01-0.273829D+00-0.497486D-01
      3 0.395881D-01 0.793580D-01-0.191971D+00-0.323878D+00 0.106346D-01
              11           12           13           14           15
      1-0.156674D-01 0.973611D-01 0.218062D+00-0.250666D+00 0.131008D+00
      2 0.388554D+00 0.575670D-01-0.279167D+00 0.271437D+00-0.293851D-01
      3 0.427254D-02 0.287626D+00 0.560397D-01-0.926782D-01 0.584081D+00
              16           17           18           19           20
      1 0.733583D-01 0.788082D-01 0.440182D-01 0.259338D-02 0.131971D-01
      2 0.877850D-01-0.101715D+00 0.129484D-01 0.363497D-01 0.347223D-01
      3 0.172177D-01 0.519725D-01 0.757535D-01 0.721444D-01-0.923984D-02
              21           22           23           24           25
      1 0.103229D+00-0.740997D-02-0.176007D-01-0.103541D+00-0.130368D-02
      2-0.526707D-01 0.390658D-01 0.414872D-01 0.203265D-01-0.114466D+00
      3-0.985245D-01-0.962793D-01-0.260102D-01-0.590793D-01 0.284546D-01
              26           27           28           29           30
      1 0.305047D-02 0.478228D-02 0.310832D-01 0.528827D-02 0.114207D+00
      2 0.123003D-01-0.137925D-01-0.683282D-02 0.168549D-01 0.164111D-01
      3 0.265869D-01 0.687074D-01 0.185514D+00-0.589427D-02-0.634107D-01
              31           32           33           34           35
      1 0.104737D-01 0.109279D+00-0.167699D-01 0.459183D-01-0.681687D-01
      2 0.859295D-01-0.138357D+00 0.362411D-01-0.388408D-01 0.548573D-02
      3-0.253757D-02 0.431233D-02 0.281133D-01 0.385508D-01 0.431877D-01
              36           37           38           39           40
      1-0.304036D-01-0.268756D-01 0.448729D-02-0.501362D-01 0.659996D+00
      2-0.189780D-01-0.990561D-02 0.674733D-01-0.540459D-02 0.100950D+01
      3 0.679990D-01-0.117038D+00-0.287557D-01-0.611730D-01 0.602509D-01
              41           42           43           44           45
      1 0.100457D+01-0.114188D+00-0.109298D+01-0.728128D+00-0.453073D-01
      2 0.437097D+00 0.259680D-01-0.613236D+00-0.100923D+01 0.113885D+00
      3 0.147446D+00-0.586586D+00-0.225549D+00-0.766097D-01-0.219650D+00
              46           47           48
      1 0.274662D+00 0.177928D-01 0.156364D+00
      2-0.962840D-02 0.280914D+00 0.175104D-01
      3 0.807569D-01-0.342175D-01 0.157293D+00
 Hessian after L703:
                1             2             3             4             5
      1  0.351008D+00
      2 -0.230597D-01  0.631721D+00
      3 -0.308314D+00  0.409697D-01  0.384965D+00
      4 -0.162698D+00  0.338878D-01  0.157525D+00  0.168158D+00
      5  0.232479D-01 -0.584934D-01 -0.291103D-01 -0.370290D-01  0.734478D-01
      6  0.168350D+00 -0.337087D-01 -0.198218D+00 -0.170211D+00  0.435388D-01
      7 -0.670187D-01  0.629930D-01  0.520940D-01 -0.307326D-02  0.271166D-01
      8  0.130463D-01 -0.370027D+00 -0.292128D-01  0.377405D-02 -0.142481D-01
      9  0.538298D-01 -0.538011D-01 -0.751623D-01  0.165058D-02 -0.293666D-01
     10 -0.913943D-02  0.601788D-02  0.860134D-02  0.417182D-02  0.617440D-03
     11  0.364718D-01 -0.130919D-01 -0.383335D-01  0.188419D-03 -0.581566D-02
     12  0.786673D-02 -0.985905D-02 -0.799434D-02  0.184213D-02 -0.893828D-03
     13 -0.902044D-01 -0.455235D-01  0.711995D-01 -0.646189D-02 -0.112572D-01
     14 -0.543683D-01 -0.147351D+00  0.393285D-01  0.199668D-02  0.705482D-02
     15  0.820934D-01  0.689961D-01 -0.838306D-01  0.673107D-02  0.143706D-01
     16  0.116604D-01 -0.145082D-01 -0.323683D-02  0.144901D-03 -0.939620D-03
     17  0.899836D-02 -0.304242D-01  0.118947D-02  0.621259D-04  0.204364D-02
     18 -0.137319D-02  0.586651D-02  0.475120D-03 -0.450304D-03  0.886984D-03
     19 -0.114571D-03 -0.744083D-03  0.342347D-04  0.482002D-03  0.259576D-03
     20  0.110412D-02 -0.800677D-04 -0.197855D-02 -0.478494D-03 -0.594018D-03
     21 -0.159042D-03  0.101025D-02  0.320264D-04 -0.840691D-04 -0.539104D-03
     22  0.990783D-03 -0.106429D-02  0.471043D-03 -0.497843D-04  0.978473D-04
     23 -0.881213D-03  0.181958D-02  0.130629D-03  0.656106D-04 -0.104455D-03
     24  0.533815D-03 -0.564843D-03 -0.103592D-04 -0.212982D-03  0.448193D-05
     25 -0.218854D-02  0.236710D-02  0.641151D-03  0.366415D-05  0.197818D-03
     26  0.389618D-02 -0.391446D-02 -0.191919D-02 -0.177510D-03 -0.539103D-04
     27 -0.546482D-03  0.143559D-02  0.250077D-03 -0.582272D-04 -0.303001D-03
     28 -0.120076D-01 -0.188915D-02  0.215645D-01 -0.178333D-03 -0.208889D-02
     29 -0.132100D-01  0.658437D-02  0.206235D-01 -0.125489D-02 -0.354511D-02
     30  0.970899D-02  0.309810D-02 -0.112038D-01 -0.102214D-02 -0.155312D-03
     31 -0.511285D-03  0.332228D-02  0.252097D-03  0.000000D+00 -0.156051D-03
     32  0.236160D-03 -0.308552D-02 -0.431661D-03  0.296731D-04  0.347508D-03
     33 -0.264707D-03 -0.161140D-03  0.741547D-03  0.424631D-04 -0.148420D-03
     34 -0.106903D-02  0.273252D-02  0.242255D-02 -0.234626D-04 -0.676245D-03
     35  0.147344D-02 -0.197938D-02 -0.231666D-02  0.141682D-03  0.555681D-03
     36  0.199963D-02 -0.138854D-02 -0.436852D-02  0.401948D-03  0.122983D-02
     37  0.713499D-03 -0.446129D-03 -0.708950D-03  0.214050D-04  0.174198D-03
     38  0.377293D-03  0.496942D-03  0.489386D-03  0.341072D-04 -0.300392D-05
     39  0.554492D-03 -0.172477D-02  0.714294D-03 -0.630602D-04 -0.783445D-05
     40  0.215855D-01 -0.363255D-01  0.706514D-02 -0.140194D-02 -0.564824D-03
     41  0.455022D-01 -0.260338D-01  0.100005D-01 -0.199780D-02 -0.144354D-02
     42 -0.190546D-01 -0.147647D-01 -0.916520D-02  0.496485D-02  0.108782D-02
     43 -0.399962D-01  0.126496D-01 -0.870087D-02  0.980792D-03  0.112766D-02
     44 -0.420820D-01  0.151119D-01 -0.942180D-02  0.959719D-03  0.900261D-03
     45  0.404596D-02 -0.368352D-02  0.211683D-02 -0.923528D-03 -0.519011D-03
     46 -0.101111D-02 -0.409607D-03 -0.909425D-03 -0.764279D-04 -0.127110D-03
     47 -0.752437D-03 -0.125392D-02 -0.733925D-05 -0.202129D-03 -0.485431D-04
     48  0.729363D-03 -0.171990D-02  0.658499D-03 -0.132786D-03 -0.751686D-04
                6             7             8             9            10
      6  0.200649D+00
      7  0.262609D-03  0.307053D+00
      8 -0.268962D-02 -0.706232D-01  0.460359D+00
      9 -0.284648D-02 -0.291559D+00  0.800040D-01  0.327829D+00
     10  0.132213D-02 -0.239816D+00  0.401383D-01  0.238981D+00  0.244702D+00
     11  0.293562D-04  0.873579D-02 -0.476077D-01 -0.961454D-02 -0.452265D-01
     12  0.325358D-02  0.238100D+00 -0.406192D-01 -0.260023D+00 -0.246064D+00
     13  0.970770D-03  0.402629D-02  0.786971D-02 -0.117888D-01  0.186656D-02
     14 -0.813319D-02 -0.151037D-01 -0.284466D-01  0.780391D-02 -0.952837D-03
     15 -0.765254D-02 -0.567383D-03 -0.177341D-01  0.328728D-02 -0.297098D-02
     16 -0.746961D-04 -0.222830D-02 -0.568375D-02  0.300631D-02 -0.487435D-03
     17 -0.107290D-02 -0.609405D-03 -0.273259D-02  0.248070D-02 -0.265322D-03
     18  0.187406D-03 -0.243091D-03  0.334408D-02  0.297560D-03  0.826259D-03
     19 -0.252333D-03  0.363975D-03 -0.311217D-03 -0.338101D-03 -0.108771D-03
     20  0.587994D-03 -0.531680D-03  0.735925D-03  0.488364D-03  0.247893D-03
     21  0.463840D-03 -0.275649D-03 -0.420787D-03  0.263273D-03 -0.309500D-04
     22 -0.291576D-04 -0.261294D-03  0.111408D-02  0.233760D-03  0.950849D-04
     23  0.170370D-03  0.247910D-03 -0.777177D-03 -0.333578D-03 -0.180956D-04
     24 -0.140281D-03 -0.156840D-03  0.875623D-03  0.207185D-03  0.992768D-05
     25 -0.260103D-03  0.848011D-03  0.737419D-03 -0.620901D-03  0.485396D-04
     26  0.420969D-04 -0.435328D-03 -0.129755D-02  0.145060D-02 -0.204459D-03
     27  0.175123D-03  0.120738D-03 -0.618863D-03 -0.206205D-03 -0.129134D-03
     28  0.151568D-02 -0.407174D-02  0.517899D-02  0.281255D-02  0.403365D-02
     29  0.240815D-02  0.374036D-03  0.849587D-03  0.460229D-03 -0.290597D-02
     30  0.467100D-03  0.435135D-03 -0.130281D-02 -0.298355D-03 -0.330450D-03
     31  0.130022D-05  0.137757D-02 -0.242611D-02 -0.128493D-02 -0.261754D-02
     32 -0.771776D-04 -0.323395D-02  0.119182D-02  0.267437D-02  0.938731D-03
     33 -0.271044D-04  0.275189D-03  0.688037D-03 -0.600971D-03  0.127591D-02
     34  0.504184D-03  0.108226D-02 -0.260597D-03 -0.123840D-02 -0.117751D-02
     35 -0.281726D-03 -0.873028D-03  0.993449D-03  0.101688D-02  0.824349D-03
     36 -0.799262D-03  0.733020D-03 -0.156354D-02 -0.325432D-03 -0.747823D-03
     37 -0.883920D-04  0.238197D-03  0.899455D-04  0.207294D-03 -0.380369D-03
     38 -0.501728D-05 -0.354277D-03 -0.104029D-03 -0.500677D-03  0.837852D-03
     39 -0.123515D-04 -0.213957D-03  0.226721D-02  0.701029D-03 -0.554962D-03
     40 -0.895510D-03 -0.718488D-02  0.368397D-01  0.166038D-01  0.141212D-02
     41  0.283981D-03 -0.173505D-01  0.282854D-01  0.667178D-02  0.217367D-02
     42  0.449067D-02  0.340110D-02  0.602458D-03  0.465872D-02 -0.850153D-03
     43 -0.120685D-02  0.862561D-02 -0.296396D-01 -0.106526D-01 -0.253839D-02
     44 -0.105753D-02  0.979687D-02 -0.276707D-01 -0.956878D-02 -0.224335D-02
     45  0.725292D-05 -0.182217D-02  0.406621D-02  0.176074D-02  0.355067D-03
     46  0.910599D-04  0.390272D-04  0.156000D-03  0.156986D-03 -0.644338D-04
     47 -0.349804D-04 -0.149208D-03  0.496380D-03  0.134466D-03  0.204452D-04
     48  0.203196D-05 -0.584128D-03  0.231410D-02  0.457323D-03  0.306473D-03
               11            12            13            14            15
     11  0.645324D-01
     12  0.474535D-01  0.265278D+00
     13  0.718977D-03  0.715549D-03  0.414083D+00
     14 -0.681270D-03  0.277944D-02 -0.213313D-01  0.507876D+00
     15 -0.238720D-02  0.329343D-02 -0.725170D-01 -0.418601D-01  0.485486D+00
     16  0.555184D-03  0.646437D-03 -0.950338D-01  0.372094D-01  0.854140D-02
     17  0.192249D-03  0.377628D-03  0.429997D-01 -0.156717D+00  0.230019D-02
     18  0.348152D-03 -0.850024D-03  0.785029D-02 -0.371882D-02 -0.757129D-01
     19 -0.230214D-03  0.127151D-03 -0.924561D-02  0.196122D-02  0.143749D-01
     20  0.253948D-03 -0.215247D-03  0.144588D-01 -0.660495D-02 -0.273798D-01
     21  0.230028D-03 -0.156467D-04 -0.239741D-02  0.560941D-03 -0.275402D-04
     22  0.295550D-04 -0.251369D-03 -0.843429D-02 -0.485199D-02 -0.103528D-01
     23 -0.577198D-04  0.138866D-03  0.152569D-01  0.413806D-02  0.216479D-01
     24 -0.184264D-04 -0.953589D-04  0.638676D-03 -0.761342D-03 -0.243030D-02
     25 -0.154022D-03 -0.131592D-03  0.114163D-01  0.134962D-01 -0.214398D-02
     26  0.195484D-03  0.205512D-03 -0.194353D-01 -0.247854D-01  0.529484D-02
     27  0.116385D-05  0.160762D-03  0.780175D-03  0.141989D-02 -0.979655D-03
     28  0.222915D-02 -0.343234D-02 -0.103336D+00  0.143518D-01  0.505134D-01
     29 -0.589176D-03  0.767258D-03  0.143355D-01 -0.882679D-01 -0.168240D-01
     30  0.653616D-03  0.344788D-03  0.442185D-01 -0.189085D-01 -0.133989D+00
     31 -0.252647D-02  0.231240D-02 -0.102521D-01  0.135254D-01 -0.438120D-02
     32  0.103734D-02 -0.561672D-03  0.373526D-02 -0.722747D-02  0.201651D-02
     33  0.106963D-02  0.645587D-03  0.141239D-01 -0.255253D-01  0.401010D-02
     34 -0.646407D-03  0.692851D-03 -0.120019D-01 -0.121567D-01  0.501332D-02
     35  0.982410D-03 -0.837120D-03  0.619229D-02  0.628157D-02 -0.151203D-02
     36 -0.579977D-03  0.246850D-03  0.200187D-01  0.217198D-01 -0.864994D-02
     37 -0.230415D-03 -0.194601D-03  0.109231D-01  0.127674D-02  0.101989D-01
     38 -0.115376D-03  0.830148D-03 -0.597304D-02 -0.236159D-02 -0.249538D-02
     39  0.192948D-03 -0.914903D-03 -0.205889D-01 -0.452088D-03 -0.150343D-01
     40  0.125890D-02 -0.562524D-02 -0.831847D-01  0.478663D-01 -0.878350D-01
     41  0.194531D-02 -0.310028D-02  0.157594D-01 -0.469761D-01 -0.508153D-02
     42  0.491349D-03 -0.241728D-02 -0.501627D-01  0.336334D-01 -0.172603D+00
     43 -0.110307D-02  0.334835D-02 -0.214259D-01 -0.190630D-01  0.335601D-02
     44 -0.114501D-02  0.361577D-02 -0.166679D-01 -0.146084D-01 -0.387713D-03
     45  0.498717D-03 -0.662941D-03 -0.384246D-02 -0.894725D-02  0.695156D-02
     46 -0.706540D-04  0.474533D-04 -0.273478D-02 -0.385597D-02 -0.541011D-04
     47 -0.353747D-04 -0.817333D-04 -0.113825D-02 -0.132311D-02  0.103569D-02
     48 -0.348541D-04 -0.249697D-03  0.781309D-03  0.106070D-02 -0.211946D-02
               16            17            18            19            20
     16  0.550668D+00
     17  0.489785D-01  0.481703D+00
     18 -0.181778D-02  0.634479D-02  0.579787D+00
     19 -0.111163D+00  0.216488D-01  0.109610D+00  0.117540D+00
     20  0.209912D-01 -0.537572D-01 -0.342728D-01 -0.256862D-01  0.591870D-01
     21  0.111422D+00 -0.376699D-01 -0.237722D+00 -0.122647D+00  0.404939D-01
     22 -0.156166D+00 -0.326930D-03 -0.127703D+00  0.119835D-01 -0.469731D-03
     23 -0.152655D-02 -0.482861D-01 -0.407065D-02 -0.402606D-02 -0.118537D-02
     24 -0.129150D+00 -0.257557D-02 -0.199511D+00 -0.180237D-01  0.264811D-04
     25 -0.166168D+00 -0.134001D+00  0.252166D-01 -0.992051D-02 -0.105325D-01
     26 -0.130626D+00 -0.189304D+00  0.260089D-01  0.476702D-02  0.513925D-02
     27  0.243222D-01  0.250616D-01 -0.518775D-01  0.183842D-01  0.212239D-01
     28 -0.875368D-02  0.671274D-02  0.151916D-01 -0.105773D-02  0.237549D-02
     29  0.174661D-01 -0.869085D-02 -0.245265D-01  0.297780D-02 -0.478787D-02
     30  0.454135D-02 -0.408512D-02  0.233725D-02 -0.131810D-02  0.186533D-02
     31 -0.984416D-03 -0.460213D-03  0.326159D-02 -0.134529D-03  0.112024D-02
     32  0.965654D-03  0.776924D-03 -0.279530D-02  0.527926D-03 -0.588228D-03
     33  0.196181D-02 -0.291233D-04 -0.491947D-02  0.996210D-03 -0.143172D-02
     34  0.320935D-03 -0.737689D-03 -0.581585D-03  0.360384D-03  0.144935D-03
     35  0.526343D-03  0.757746D-03 -0.147998D-03 -0.324612D-04  0.471304D-04
     36 -0.800887D-03  0.920931D-03  0.866585D-03 -0.370043D-03  0.572204D-04
     37 -0.253656D-04  0.601002D-05 -0.525944D-03  0.176569D-03 -0.237254D-03
     38 -0.212053D-03 -0.129332D-03 -0.738617D-04  0.379387D-04  0.353359D-04
     39 -0.655758D-03  0.468258D-03  0.475351D-03  0.247019D-03  0.232411D-03
     40 -0.234187D-01  0.470140D-02 -0.307600D-01  0.185938D-02 -0.206188D-02
     41  0.230249D-01  0.428294D-02  0.239091D-01 -0.670621D-03  0.251740D-02
     42 -0.181091D-01  0.565104D-02 -0.134756D-01 -0.418464D-03  0.432988D-03
     43  0.128043D-02  0.255428D-02  0.154475D-02 -0.593531D-03 -0.404880D-03
     44  0.313862D-02 -0.514948D-04  0.294348D-02 -0.569664D-03 -0.415261D-03
[...]
    X8        1.30248   0.00000   0.00000  -0.00081  -0.00082   1.30166
    Y8       -4.30225   0.00000   0.00000  -0.00067  -0.00067  -4.30292
    Z8        3.13596   0.00000   0.00000   0.00060   0.00056   3.13652
    X9       -1.40535   0.00000   0.00000  -0.00030  -0.00033  -1.40568
    Y9       -5.82660   0.00000   0.00000  -0.00010  -0.00009  -5.82669
    Z9        1.83218   0.00000   0.00000  -0.00110  -0.00111   1.83107
   X10       -2.82185   0.00000   0.00000   0.00017   0.00019  -2.82166
   Y10       -1.12375   0.00000   0.00000   0.00001   0.00003  -1.12373
   Z10        3.83388   0.00000   0.00000   0.00011   0.00012   3.83400
   X11       -3.93922   0.00000   0.00000  -0.00052  -0.00049  -3.93972
   Y11        0.60625   0.00000   0.00000  -0.00049  -0.00046   0.60579
   Z11        3.62654   0.00000   0.00000  -0.00019  -0.00017   3.62638
   X12       -4.16437   0.00000   0.00000   0.00084   0.00086  -4.16351
   Y12       -2.62271   0.00000   0.00000  -0.00041  -0.00038  -2.62310
   Z12        4.27385   0.00000   0.00000   0.00076   0.00078   4.27463
   X13       -1.49874   0.00000   0.00000   0.00033   0.00037  -1.49837
   Y13       -0.91213   0.00000   0.00000   0.00092   0.00094  -0.91119
   Z13        5.40685   0.00000   0.00000  -0.00014  -0.00015   5.40670
   X14       -3.12540  -0.00001   0.00000  -0.00002  -0.00005  -3.12546
   Y14       -1.74840   0.00000   0.00000   0.00005   0.00007  -1.74832
   Z14       -0.72176  -0.00001   0.00000   0.00007   0.00008  -0.72168
   X15       -5.44824   0.00001   0.00000   0.00002  -0.00002  -5.44826
   Y15       -4.02581   0.00000   0.00000   0.00028   0.00032  -4.02550
   Z15       -0.24554  -0.00001   0.00000  -0.00004   0.00000  -0.24554
   X16       -5.22076   0.00000   0.00000   0.00005  -0.00001  -5.22077
   Y16       -4.73463   0.00001   0.00000   0.00030   0.00033  -4.73430
   Z16       -1.91317   0.00001   0.00000  -0.00001   0.00002  -1.91315
         Item               Value     Threshold  Converged?
 Maximum Force            0.000013     0.000450     YES
 RMS     Force            0.000005     0.000300     YES
 Maximum Displacement     0.001107     0.001800     YES
 RMS     Displacement     0.000389     0.001200     YES
 Predicted change in Energy=-9.263890D-09
 Optimization completed.
    -- Stationary point found.
 GradGradGradGradGradGradGradGradGradGradGradGradGradGradGradGradGradGrad


 Test job not archived.
 1\1\GINC-NODE24\Freq\UB3LYP\CBSB7\C4H9O3(2)\NYEE\09-Jun-2013\0\\# freq
  nosymm b3lyp/cbsb7 iop(7/33=1)\\Title Card Required\\0,2\C,0.035388,0
 .129258,0.124955\H,0.746845,-0.069918,-0.664296\O,-0.164435,1.427626,0
 .345264\H,-0.82948,1.540816,1.038227\C,-0.779706,-0.958506,0.725483\C,
 -0.01915,-2.280804,0.826946\H,0.526264,-2.474653,-0.099987\H,0.689242,
 -2.27665,1.659479\H,-0.74368,-3.083304,0.969548\C,-1.493258,-0.594665,
 2.0288\H,-2.084548,0.320815,1.919083\H,-2.203688,-1.387881,2.261622\H,
 -0.793101,-0.482677,2.861182\O,-1.653892,-0.925213,-0.381937\O,-2.8830
 85,-2.130369,-0.129933\H,-2.762705,-2.505459,-1.012404\\Version=AM64L-
 G03RevD.01\HF=-383.463749\S2=0.789053\S2-1=0.\S2A=0.750189\RMSD=4.983e
 -09\RMSF=4.804e-06\ZeroPoint=0.1276502\Thermal=0.1366959\Dipole=0.8156
 272,0.2003282,0.4582545\DipoleDeriv=-0.4081411,-0.4879863,-0.2626012,0
 .4674617,1.3329597,0.1837,-0.2399679,0.1083229,0.1031399,0.103152,0.03
 20479,0.0750838,0.0083437,0.0469016,0.0038981,0.0958991,-0.0151207,0.0
 395881,-0.0786828,0.3191297,0.079358,-0.6320476,-1.6868844,-0.1919707,
 -0.1465563,-0.2738286,-0.323878,0.1960929,-0.0497486,0.0106346,-0.0156
 674,0.3885538,0.0042725,0.0973611,0.057567,0.287626,0.2180616,-0.27916
 75,0.0560397,-0.2506664,0.271437,-0.0926782,0.1310082,-0.0293851,0.584
 081,0.0733583,0.087785,0.0172177,0.0788082,-0.101715,0.0519725,0.04401
 82,0.0129484,0.0757535,0.0025934,0.0363497,0.0721444,0.0131971,0.03472
 23,-0.0092398,0.1032291,-0.0526707,-0.0985245,-0.00741,0.0390658,-0.09
 62793,-0.0176007,0.0414872,-0.0260102,-0.1035408,0.0203265,-0.0590793,
 -0.0013037,-0.1144665,0.0284546,0.0030505,0.0123003,0.0265869,0.004782
 3,-0.0137925,0.0687074,0.0310832,-0.0068328,0.1855141,0.0052883,0.0168
 549,-0.0058943,0.1142071,0.0164111,-0.0634107,0.0104737,0.0859295,-0.0
 025376,0.1092787,-0.1383569,0.0043123,-0.0167699,0.0362411,0.0281133,0
 .0459183,-0.0388408,0.0385508,-0.0681687,0.0054857,0.0431877,-0.030403
 6,-0.018978,0.067999,-0.0268756,-0.0099056,-0.1170383,0.0044873,0.0674
 733,-0.0287557,-0.0501362,-0.0054046,-0.061173,0.6599961,1.0095044,0.0
 602509,1.0045711,0.4370971,0.147446,-0.1141877,0.025968,-0.586586,-1.0
 92978,-0.6132356,-0.225549,-0.7281284,-1.009231,-0.0766097,-0.0453073,
 0.1138849,-0.2196501,0.2746616,-0.0096284,0.0807569,0.0177928,0.280914
 2,-0.0342175,0.1563644,0.0175104,0.1572935\Polar=76.6987224,21.2010826
 ,78.2673891,2.4717285,5.9982196,55.9463214\PG=C01 [X(C4H9O3)]\NImag=1\
 \0.35100807,-0.02305972,0.63172144,-0.30831444,0.04096975,0.38496485,-
 0.16269755,0.03388777,0.15752504,0.16815841,0.02324785,-0.05849337,-0.
 02911029,-0.03702901,0.07344781,0.16835029,-0.03370866,-0.19821810,-0.
 17021098,0.04353885,0.20064911,-0.06701866,0.06299301,0.05209396,-0.00
 307326,0.02711661,0.00026261,0.30705314,0.01304627,-0.37002686,-0.0292
 1278,0.00377405,-0.01424812,-0.00268962,-0.07062321,0.46035882,0.05382
 978,-0.05380114,-0.07516231,0.00165058,-0.02936659,-0.00284648,-0.2915
 5865,0.08000401,0.32782943,-0.00913943,0.00601788,0.00860134,0.0041718
 2,0.00061744,0.00132213,-0.23981596,0.04013832,0.23898138,0.24470207,0
 .03647183,-0.01309191,-0.03833349,0.00018842,-0.00581566,0.00002936,0.
 00873579,-0.04760766,-0.00961454,-0.04522654,0.06453242,0.00786673,-0.
 00985905,-0.00799434,0.00184213,-0.00089383,0.00325358,0.23810013,-0.0
 4061922,-0.26002279,-0.24606404,0.04745353,0.26527798,-0.09020442,-0.0
 4552348,0.07119945,-0.00646189,-0.01125725,0.00097077,0.00402629,0.007
 86971,-0.01178882,0.00186656,0.00071898,0.00071555,0.41408331,-0.05436
 831,-0.14735069,0.03932849,0.00199668,0.00705482,-0.00813319,-0.015103
 68,-0.02844665,0.00780391,-0.00095284,-0.00068127,0.00277944,-0.021331
 30,0.50787635,0.08209344,0.06899609,-0.08383062,0.00673107,0.01437060,
 -0.00765254,-0.00056738,-0.01773411,0.00328728,-0.00297098,-0.00238720
 ,0.00329343,-0.07251703,-0.04186007,0.48548650,0.01166043,-0.01450824,
 -0.00323683,0.00014490,-0.00093962,-0.00007470,-0.00222830,-0.00568375
 ,0.00300631,-0.00048744,0.00055518,0.00064644,-0.09503380,0.03720944,0
 .00854140,0.55066754,0.00899836,-0.03042417,0.00118947,0.00006213,0.00
 204364,-0.00107290,-0.00060940,-0.00273259,0.00248070,-0.00026532,0.00
 019225,0.00037763,0.04299970,-0.15671721,0.00230019,0.04897851,0.48170
 318,-0.00137319,0.00586651,0.00047512,-0.00045030,0.00088698,0.0001874
 1,-0.00024309,0.00334408,0.00029756,0.00082626,0.00034815,-0.00085002,
 0.00785029,-0.00371882,-0.07571287,-0.00181778,0.00634479,0.57978657,-
 0.00011457,-0.00074408,0.00003423,0.00048200,0.00025958,-0.00025233,0.
 00036398,-0.00031122,-0.00033810,-0.00010877,-0.00023021,0.00012715,-0
 .00924561,0.00196122,0.01437492,-0.11116290,0.02164880,0.10961023,0.11
 753981,0.00110412,-0.00008007,-0.00197855,-0.00047849,-0.00059402,0.00
 058799,-0.00053168,0.00073593,0.00048836,0.00024789,0.00025395,-0.0002
 1525,0.01445877,-0.00660495,-0.02737980,0.02099121,-0.05375719,-0.0342
 7277,-0.02568622,0.05918702,-0.00015904,0.00101025,0.00003203,-0.00008
 407,-0.00053910,0.00046384,-0.00027565,-0.00042079,0.00026327,-0.00003
 095,0.00023003,-0.00001565,-0.00239741,0.00056094,-0.00002754,0.111421
 81,-0.03766993,-0.23772156,-0.12264728,0.04049394,0.25594327,0.0009907
 8,-0.00106429,0.00047104,-0.00004978,0.00009785,-0.00002916,-0.0002612
 9,0.00111408,0.00023376,0.00009508,0.00002956,-0.00025137,-0.00843429,
 -0.00485199,-0.01035280,-0.15616620,-0.00032693,-0.12770293,0.01198347
 ,-0.00046973,0.01242648,0.16709363,-0.00088121,0.00181958,0.00013063,0
 .00006561,-0.00010446,0.00017037,0.00024791,-0.00077718,-0.00033358,-0
 .00001810,-0.00005772,0.00013887,0.01525688,0.00413806,0.02164789,-0.0
 0152655,-0.04828608,-0.00407065,-0.00402606,-0.00118537,-0.00353076,0.
 00000245,0.04848446,0.00053382,-0.00056484,-0.00001036,-0.00021298,0.0
 0000448,-0.00014028,-0.00015684,0.00087562,0.00020719,0.00000993,-0.00
 001843,-0.00009536,0.00063868,-0.00076134,-0.00243030,-0.12914984,-0.0
 0257557,-0.19951136,-0.01802368,0.00002648,-0.01889465,0.14261412,0.00
 317696,0.21505336,-0.00218854,0.00236710,0.00064115,0.00000366,0.00019
 782,-0.00026010,0.00084801,0.00073742,-0.00062090,0.00004854,-0.000154
 02,-0.00013159,0.01141627,0.01349620,-0.00214398,-0.16616814,-0.134000
 83,0.02521656,-0.00992051,-0.01053253,0.00125592,-0.01242214,-0.013391
 42,0.00378386,0.17833902,0.00389618,-0.00391446,-0.00191919,-0.0001775
 1,-0.00005391,0.00004210,-0.00043533,-0.00129755,0.00145060,-0.0002044
 6,0.00019548,0.00020551,-0.01943532,-0.02478544,0.00529484,-0.13062580
 ,-0.18930415,0.02600891,0.00476702,0.00513925,-0.00042732,0.00156274,0
 .00119151,-0.00087368,0.14324367,0.20843340,-0.00054648,0.00143559,0.0
 0025008,-0.00005823,-0.00030300,0.00017512,0.00012074,-0.00061886,-0.0
 0020620,-0.00012913,0.00000116,0.00016076,0.00078018,0.00141989,-0.000
 97966,0.02432220,0.02506158,-0.05187753,0.01838418,0.02122387,-0.00339
 895,-0.01598986,-0.01953342,0.00417821,-0.02763431,-0.02770926,0.05227
 961,-0.01200756,-0.00188915,0.02156450,-0.00017833,-0.00208889,0.00151
 568,-0.00407174,0.00517899,0.00281255,0.00403365,0.00222915,-0.0034323
 4,-0.10333613,0.01435176,0.05051339,-0.00875368,0.00671274,0.01519158,
 -0.00105773,0.00237549,-0.00009655,0.00007450,-0.00040543,0.00015843,0
 .00075344,-0.00099317,-0.00047362,0.55183528,-0.01321004,0.00658437,0.
 02062353,-0.00125489,-0.00354511,0.00240815,0.00037404,0.00084959,0.00
 046023,-0.00290597,-0.00058918,0.00076726,0.01433547,-0.08826789,-0.01
 682397,0.01746613,-0.00869085,-0.02452648,0.00297780,-0.00478787,-0.00
 039913,-0.00043975,0.00076333,-0.00039740,-0.00015801,0.00089871,-0.00
 051831,0.01288323,0.55898756,0.00970899,0.00309810,-0.01120379,-0.0010
 2214,-0.00015531,0.00046710,0.00043514,-0.00130281,-0.00029836,-0.0003
 3045,0.00065362,0.00034479,0.04421854,-0.01890854,-0.13398873,0.004541
 35,-0.00408512,0.00233725,-0.00131810,0.00186533,0.00089611,-0.0003207
 5,0.00001231,-0.00033930,-0.00053889,0.00069210,-0.00011719,0.05105320
 ,-0.02064945,0.49123452,-0.00051129,0.00332228,0.00025210,-0.00000036,
 -0.00015605,0.00000130,0.00137757,-0.00242611,-0.00128493,-0.00261754,
 -0.00252647,0.00231240,-0.01025209,0.01352542,-0.00438120,-0.00098442,
 -0.00046021,0.00326159,-0.00013453,0.00112024,0.00018983,0.00030181,-0
 .00038360,0.00005576,0.00003549,0.00019529,0.00001573,-0.11896233,0.11
 609422,-0.01460332,0.12843443,0.00023616,-0.00308552,-0.00043166,0.000
 02967,0.00034751,-0.00007718,-0.00323395,0.00119182,0.00267437,0.00093
 873,0.00103734,-0.00056167,0.00373526,-0.00722747,0.00201651,0.0009656
 5,0.00077692,-0.00279530,0.00052793,-0.00058823,0.00008223,-0.00016298
 ,0.00015509,0.00019155,-0.00012408,0.00047311,0.00022676,0.11309117,-0
 .22338885,0.02324830,-0.12578924,0.24573000,-0.00026471,-0.00016114,0.
 00074155,0.00004246,-0.00014842,-0.00002710,0.00027519,0.00068804,-0.0
 0060097,0.00127591,0.00106963,0.00064559,0.01412391,-0.02552527,0.0040
 1010,0.00196181,-0.00002912,-0.00491947,0.00099621,-0.00143172,0.00006
 922,0.00022292,0.00011481,0.00017046,-0.00008319,0.00008569,-0.0000602
 5,-0.01651941,0.02472637,-0.05119439,0.01334047,-0.02759645,0.05135133
 ,-0.00106903,0.00273252,0.00242255,-0.00002346,-0.00067625,0.00050418,
 0.00108226,-0.00026060,-0.00123840,-0.00117751,-0.00064641,0.00069285,
 -0.01200194,-0.01215670,0.00501332,0.00032093,-0.00073769,-0.00058159,
 0.00036038,0.00014493,-0.00019765,-0.00012998,-0.00002327,0.00005403,-
 0.00002113,0.00069751,0.00040103,-0.15959001,-0.13005812,0.03736371,0.
 01187662,0.01448047,-0.00424775,0.17257198,0.00147344,-0.00197938,-0.0
 0231666,0.00014168,0.00055568,-0.00028173,-0.00087303,0.00099345,0.001
 01688,0.00082435,0.00098241,-0.00083712,0.00619229,0.00628157,-0.00151
 203,0.00052634,0.00075775,-0.00014800,-0.00003246,0.00004713,0.0001219
 9,-0.00001147,0.00000928,0.00003273,0.00015009,0.00000529,-0.00033954,
 -0.13080777,-0.19174721,0.04335509,-0.01707119,-0.02110012,0.00571612,
 0.13999776,0.20684695,0.00199963,-0.00138854,-0.00436852,0.00040195,0.
 00122983,-0.00079926,0.00073302,-0.00156354,-0.00032543,-0.00074782,-0
 .00057998,0.00024685,0.02001868,0.02171985,-0.00864994,-0.00080089,0.0
 0092093,0.00086659,-0.00037004,0.00005722,0.00001904,-0.00008095,-0.00
 012875,0.00001227,0.00026979,-0.00073419,0.00010611,0.03535046,0.04120
 289,-0.05604364,0.00227260,0.00319677,-0.00126684,-0.04308251,-0.04465
 874,0.06064706,0.00071350,-0.00044613,-0.00070895,0.00002141,0.0001742
 0,-0.00008839,0.00023820,0.00008995,0.00020729,-0.00038037,-0.00023042
 ,-0.00019460,0.01092308,0.00127674,0.01019889,-0.00002537,0.00000601,-
 0.00052594,0.00017657,-0.00023725,-0.00005638,0.00002844,0.00042893,0.
 00047672,-0.00005083,0.00007397,-0.00000501,-0.15728820,-0.01572141,-0
 .12706330,-0.01006661,-0.00317364,-0.01068949,-0.01231804,0.00019315,-
 0.01564312,0.16795082,0.00037729,0.00049694,0.00048939,0.00003411,-0.0
 0000300,-0.00000502,-0.00035428,-0.00010403,-0.00050068,0.00083785,-0.
 00011538,0.00083015,-0.00597304,-0.00236159,-0.00249538,-0.00021205,-0
 .00012933,-0.00007386,0.00003794,0.00003534,0.00023724,0.00056383,-0.0
 0030471,-0.00028160,-0.00004175,-0.00001433,-0.00014195,-0.01524290,-0
 .05091859,-0.02056937,0.01626502,0.00426731,0.02130069,-0.01376118,-0.
 00105293,-0.01925047,0.01744961,0.04941349,0.00055449,-0.00172477,0.00
 071429,-0.00006306,-0.00000783,-0.00001235,-0.00021396,0.00226721,0.00
 070103,-0.00055496,0.00019295,-0.00091490,-0.02058890,-0.00045209,-0.0
 1503431,-0.00065576,0.00046826,0.00047535,0.00024702,0.00023241,0.0002
 8136,0.00064874,-0.00046296,0.00040318,0.00003934,0.00001018,0.0000337
 8,-0.12576216,-0.02122770,-0.19651356,-0.00061318,0.00033947,-0.001873
 87,0.00486428,-0.00020022,0.00629434,0.13992159,0.02248579,0.21338367,
 0.02158554,-0.03632546,0.00706514,-0.00140194,-0.00056482,-0.00089551,
 -0.00718488,0.03683975,0.01660376,0.00141212,0.00125890,-0.00562524,-0
 .08318468,0.04786627,-0.08783497,-0.02341871,0.00470140,-0.03076001,0.
 00185938,-0.00206188,0.00090714,-0.00422205,0.00672632,-0.00208352,0.0
 0154670,-0.00305201,0.00177080,0.00456119,-0.00201331,-0.00389021,0.00
 232141,-0.00130519,0.00003780,0.00011356,-0.00086523,0.00180187,-0.000
 07719,-0.00027370,0.00012805,0.04248712,0.04550220,-0.02603385,0.01000
 051,-0.00199780,-0.00144354,0.00028398,-0.01735045,0.02828541,0.006671
 78,0.00217367,0.00194531,-0.00310028,0.01575943,-0.04697612,-0.0050815
 3,0.02302494,0.00428294,0.02390912,-0.00067062,0.00251740,0.00075194,0
 .00217843,-0.00555589,0.00036271,-0.00102960,0.00030872,0.00140125,-0.
 00859468,0.00322204,-0.00851157,-0.00104171,0.00118588,0.00159560,0.00
 008914,-0.00045744,0.00177279,0.00019855,0.00049779,-0.00413881,-0.096
 68850,0.01969546,-0.01905462,-0.01476471,-0.00916520,0.00496485,0.0010
 8782,0.00449067,0.00340110,0.00060246,0.00465872,-0.00085015,0.0004913
 5,-0.00241728,-0.05016273,0.03363336,-0.17260291,-0.01810915,0.0056510
 4,-0.01347563,-0.00041846,0.00043299,0.00184935,-0.00141416,0.00278026
 ,0.00141043,0.00064392,-0.00085049,0.00001273,-0.03138563,-0.00513229,
 -0.04435753,-0.00097217,-0.00021498,0.00298637,-0.00096923,0.00101577,
 0.00218228,0.00482887,-0.00154046,-0.00827716,0.11262815,-0.02557266,0
 .26407033,-0.03999617,0.01264959,-0.00870087,0.00098079,0.00112766,-0.
 00120685,0.00862561,-0.02963964,-0.01065260,-0.00253839,-0.00110307,0.
 00334835,-0.02142588,-0.01906296,0.00335601,0.00128043,0.00255428,0.00
 154475,-0.00059353,-0.00040488,-0.00032470,0.00101506,-0.00234668,0.00
 111833,-0.00213101,0.00026017,-0.00031819,0.00417073,0.00175491,0.0012
 2774,-0.00071691,-0.00021078,-0.00046973,-0.00002312,-0.00011078,-0.00
 220879,0.00010139,0.00027246,0.00197060,0.04719267,0.04720480,0.010401
 50,0.02402504,-0.04208198,0.01511186,-0.00942180,0.00095972,0.00090026
 ,-0.00105753,0.00979687,-0.02767075,-0.00956878,-0.00224335,-0.0011450
 1,0.00361577,-0.01666786,-0.01460843,-0.00038771,0.00313862,-0.0000514
 9,0.00294348,-0.00056966,-0.00041526,-0.00045636,0.00178774,-0.0000425
 5,0.00082169,-0.00054615,0.00262467,-0.00196112,0.00293684,0.00077357,
 0.00054689,-0.00074391,0.00018044,-0.00033664,0.00016165,-0.00013055,-
 0.00170932,-0.00005491,0.00020271,0.00199865,0.04937761,0.02677157,0.0
 1504072,-0.02804463,0.07842466,0.00404596,-0.00368352,0.00211683,-0.00
 092353,-0.00051901,0.00000725,-0.00182217,0.00406621,0.00176074,0.0003
 5507,0.00049872,-0.00066294,-0.00384246,-0.00894725,0.00695156,-0.0002
 3887,0.00103900,-0.00077367,-0.00035254,-0.00017089,0.00018712,-0.0006
 1766,-0.00026986,-0.00005228,-0.00042281,-0.00112175,-0.00012991,-0.00
 056418,-0.00070753,-0.00090015,0.00007821,-0.00033895,-0.00005067,-0.0
 0082894,-0.00071781,0.00045841,-0.00043396,-0.00025477,0.00023814,-0.0
 1397320,-0.00636715,-0.03605542,-0.06024945,0.18427593,0.46646403,-0.0
 0101111,-0.00040961,-0.00090942,-0.00007643,-0.00012711,0.00009106,0.0
 0003903,0.00015600,0.00015699,-0.00006443,-0.00007065,0.00004745,-0.00
 273478,-0.00385597,-0.00005410,0.00035472,-0.00026155,-0.00004642,-0.0
 0042745,-0.00003999,0.00006850,0.00010296,0.00027422,0.00018320,-0.000
 08885,0.00022705,-0.00064002,-0.00018306,-0.00012430,0.00053850,-0.000
 10126,-0.00000518,-0.00000241,0.00002846,0.00027283,0.00008613,0.00005
 320,0.00002077,0.00007785,-0.00359022,-0.00875780,-0.01353207,-0.01996
 671,0.02279340,0.07979053,0.02766592,-0.00075244,-0.00125392,-0.000007
 34,-0.00020213,-0.00004854,-0.00003498,-0.00014921,0.00049638,0.000134
 47,0.00002045,-0.00003537,-0.00008173,-0.00113825,-0.00132311,0.001035
 69,0.00063998,0.00033639,-0.00004615,0.00009026,0.00009695,-0.00004518
 ,-0.00000955,-0.00024737,-0.00001935,-0.00021391,0.00009969,0.00035536
 ,0.00026261,-0.00014362,0.00071046,0.00007603,0.00004478,-0.00006818,0
 .00001621,-0.00001188,-0.00008674,-0.00002735,0.00009032,0.00021948,-0
 .00362015,-0.00824568,-0.01266017,0.01509955,-0.08092570,-0.16678138,-
 0.01009209,0.09107069,0.00072936,-0.00171990,0.00065850,-0.00013279,-0
 .00007517,0.00000203,-0.00058413,0.00231410,0.00045732,0.00030647,-0.0
 0003485,-0.00024970,0.00078131,0.00106070,-0.00211946,-0.00035751,-0.0
 0040095,0.00041628,-0.00005339,0.00004038,0.00005375,0.00014257,0.0001
 5788,0.00003879,-0.00001478,-0.00015405,-0.00042671,0.00007409,0.00019
 384,-0.00032312,0.00007480,0.00004025,0.00001894,-0.00016989,-0.000246
 73,0.00062069,-0.00022422,-0.00022970,0.00010102,0.00411994,0.00602231
 ,0.00469026,0.06116391,-0.18434387,-0.43955904,-0.06585576,0.17737576,
 0.43562044\\0.00000220,0.00000243,0.00000201,-0.00000103,-0.00000033,-
 0.00000312,0.00000949,0.00000155,-0.00000705,-0.00000551,0.00000093,0.
 00000521,-0.00000818,0.00000132,-0.00000871,0.00000049,0.00000122,0.00
 000196,-0.00000225,-0.00000148,-0.00000155,0.00000182,0.00000067,-0.00
 000109,0.00000042,0.00000066,0.00000157,0.00000170,-0.00000217,0.00000
 217,0.00000137,0.00000138,0.00000014,-0.00000094,0.00000229,-0.0000009
 6,0.00000100,-0.00000122,-0.00000006,0.00001320,0.00000214,0.00000683,
 -0.00001146,-0.00000235,0.00001289,-0.00000231,-0.00000705,-0.00001024
 \\\@


 THE MOST INCOMPREHENSIBLE THING ABOUT THE WORLD
 IS THAT IT IS COMPREHENSIBLE. -- A. EINSTEIN
 Job cpu time:  0 days  1 hours 10 minutes  7.3 seconds.
 File lengths (MBytes):  RWF=    125 Int=      0 D2E=      0 Chk=      8 Scr=      1
 Normal termination of Gaussian 03 at Sun Jun  9 14:51:21 2013.
