 Entering Gaussian System, Link 0=g03
 Input=g-Q0-freq.gjf
 Output=g-Q0-freq.log
 Initial command:
 /opt/g03/l1.exe /scratch/shamel/Gau-9438.inp -scrdir=/scratch/shamel/
 Entering Link 1 = /opt/g03/l1.exe PID=      9440.
  
 Copyright (c) 1988,1990,1992,1993,1995,1998,2003,2004, Gaussian, Inc.
                  All Rights Reserved.
  
 This is the Gaussian(R) 03 program.  It is based on the
 the Gaussian(R) 98 system (copyright 1998, Gaussian, Inc.),
 the Gaussian(R) 94 system (copyright 1995, Gaussian, Inc.),
 the Gaussian 92(TM) system (copyright 1992, Gaussian, Inc.),
 the Gaussian 90(TM) system (copyright 1990, Gaussian, Inc.),
 the Gaussian 88(TM) system (copyright 1988, Gaussian, Inc.),
 the Gaussian 86(TM) system (copyright 1986, Carnegie Mellon
 University), and the Gaussian 82(TM) system (copyright 1983,
 Carnegie Mellon University). Gaussian is a federally registered
 trademark of Gaussian, Inc.
  
 This software contains proprietary and confidential information,
 including trade secrets, belonging to Gaussian, Inc.
  
 This software is provided under written license and may be
 used, copied, transmitted, or stored only in accord with that
 written license.
  
 The following legend is applicable only to US Government
 contracts under FAR:
  
                    RESTRICTED RIGHTS LEGEND
  
 Use, reproduction and disclosure by the US Government is
 subject to restrictions as set forth in subparagraphs (a)
 and (c) of the Commercial Computer Software - Restricted
 Rights clause in FAR 52.227-19.
  
 Gaussian, Inc.
 340 Quinnipiac St., Bldg. 40, Wallingford CT 06492
  
  
 ---------------------------------------------------------------
 Warning -- This program may not be used in any manner that
 competes with the business of Gaussian, Inc. or will provide
 assistance to any competitor of Gaussian, Inc.  The licensee
 of this program is prohibited from giving any competitor of
 Gaussian, Inc. access to this program.  By using this program,
 the user acknowledges that Gaussian, Inc. is engaged in the
 business of creating and licensing software in the field of
 computational chemistry and represents and warrants to the
 licensee that it is not a competitor of Gaussian, Inc. and that
 it will not use this program in any manner prohibited above.
 ---------------------------------------------------------------
  

 Cite this work as:
 Gaussian 03, Revision D.01,
 M. J. Frisch, G. W. Trucks, H. B. Schlegel, G. E. Scuseria, 
 M. A. Robb, J. R. Cheeseman, J. A. Montgomery, Jr., T. Vreven, 
 K. N. Kudin, J. C. Burant, J. M. Millam, S. S. Iyengar, J. Tomasi, 
 V. Barone, B. Mennucci, M. Cossi, G. Scalmani, N. Rega, 
 G. A. Petersson, H. Nakatsuji, M. Hada, M. Ehara, K. Toyota, 
 R. Fukuda, J. Hasegawa, M. Ishida, T. Nakajima, Y. Honda, O. Kitao, 
 H. Nakai, M. Klene, X. Li, J. E. Knox, H. P. Hratchian, J. B. Cross, 
 V. Bakken, C. Adamo, J. Jaramillo, R. Gomperts, R. E. Stratmann, 
 O. Yazyev, A. J. Austin, R. Cammi, C. Pomelli, J. W. Ochterski, 
 P. Y. Ayala, K. Morokuma, G. A. Voth, P. Salvador, J. J. Dannenberg, 
 V. G. Zakrzewski, S. Dapprich, A. D. Daniels, M. C. Strain, 
 O. Farkas, D. K. Malick, A. D. Rabuck, K. Raghavachari, 
 J. B. Foresman, J. V. Ortiz, Q. Cui, A. G. Baboul, S. Clifford, 
 J. Cioslowski, B. B. Stefanov, G. Liu, A. Liashenko, P. Piskorz, 
 I. Komaromi, R. L. Martin, D. J. Fox, T. Keith, M. A. Al-Laham, 
 C. Y. Peng, A. Nanayakkara, M. Challacombe, P. M. W. Gill, 
 B. Johnson, W. Chen, M. W. Wong, C. Gonzalez, and J. A. Pople, 
 Gaussian, Inc., Wallingford CT, 2004.
 
 ******************************************
 Gaussian 03:  AM64L-G03RevD.01 13-Oct-2005
                18-Jun-2013 
 ******************************************
 %chk=g-Q0-freq.chk
 %mem=1000mb
 %nproc=8
 Will use up to    8 processors via shared memory.
 -------------------------------------
 # freq nosymm b3lyp/cbsb7 iop(7/33=1)
 -------------------------------------
 1/10=4,30=1,38=1/1,3;
 2/15=1,17=6,18=5,40=1/2;
 3/5=4,6=6,7=700,11=2,16=1,25=1,30=1,74=-5/1,2,3;
 4//1;
 5/5=2,38=5/2;
 8/6=4,10=90,11=11/1;
 11/6=1,8=1,9=11,15=111,16=1,31=1/1,2,10;
 10/6=1,31=1/2;
 6/7=2,8=2,9=2,10=2,18=1,28=1/1;
 7/8=1,10=1,25=1,30=1,33=1/1,2,3,16;
 1/10=4,30=1/3;
 99//99;
 -------------------
 Title Card Required
 -------------------
 Symbolic Z-matrix:
 Charge =  0 Multiplicity = 2
 C                    -0.50178   0.19868   0.15609 
 H                    -1.44841  -0.25078  -0.16307 
 H                     0.20513  -0.60735   0.38485 
 C                    -0.68797   1.04686   1.42149 
 H                     0.28455   1.45705   1.70834 
 C                    -1.24455   0.19382   2.56641 
 H                    -0.60019  -0.67272   2.73829 
 H                    -1.29565   0.76      3.49842 
 H                    -2.24798  -0.17654   2.33616 
 C                    -1.64702   2.28592   1.19566 
 H                    -2.54823   1.89993   0.69328 
 H                    -1.89416   2.69478   2.18511 
 O                    -0.98902   3.19858   0.42602 
 O                     0.08949   0.87284  -0.94191 
 O                    -0.95996   1.51413  -1.71095 
 H                    -0.98259   2.38571  -1.26952 
 

 GradGradGradGradGradGradGradGradGradGradGradGradGradGradGradGradGradGrad
 Berny optimization.
 Initialization pass.
 Trust Radius=3.00D-01 FncErr=1.00D-07 GrdErr=1.00D-07
 Number of steps in this run=   2 maximum allowed number of steps=   2.
 GradGradGradGradGradGradGradGradGradGradGradGradGradGradGradGradGradGrad

                          Input orientation:                          
 ---------------------------------------------------------------------
 Center     Atomic     Atomic              Coordinates (Angstroms)
 Number     Number      Type              X           Y           Z
 ---------------------------------------------------------------------
    1          6             0       -0.501780    0.198682    0.156088
    2          1             0       -1.448409   -0.250778   -0.163071
    3          1             0        0.205129   -0.607353    0.384847
    4          6             0       -0.687967    1.046858    1.421487
    5          1             0        0.284546    1.457046    1.708337
    6          6             0       -1.244548    0.193815    2.566406
    7          1             0       -0.600192   -0.672723    2.738289
    8          1             0       -1.295645    0.759997    3.498419
    9          1             0       -2.247981   -0.176543    2.336158
   10          6             0       -1.647019    2.285920    1.195656
   11          1             0       -2.548232    1.899932    0.693276
   12          1             0       -1.894156    2.694780    2.185114
   13          8             0       -0.989020    3.198576    0.426019
   14          8             0        0.089487    0.872841   -0.941909
   15          8             0       -0.959963    1.514127   -1.710949
   16          1             0       -0.982587    2.385714   -1.269520
 ---------------------------------------------------------------------
                    Distance matrix (angstroms):
                    1          2          3          4          5
     1  C    0.000000
     2  H    1.095437   0.000000
     3  H    1.096241   1.778074   0.000000
     4  C    1.534700   2.184709   2.146778   0.000000
     5  H    2.147386   3.069522   2.453503   1.093764   0.000000
     6  C    2.522174   2.772953   2.739094   1.532418   2.161056
     7  H    2.727049   3.052114   2.488273   2.167633   2.525763
     8  H    3.480872   3.801514   3.717028   2.182936   2.487423
     9  H    2.818283   2.625066   3.164010   2.183341   3.078387
    10  C    2.597852   2.884514   3.529716   1.583052   2.163520
    11  H    2.714920   2.562907   3.736657   2.172237   3.041567
    12  H    3.505162   3.793280   4.307208   2.180290   2.550695
    13  O    3.051169   3.529321   3.989083   2.389870   2.509828
    14  O    1.417633   2.057725   1.991138   2.494064   2.720873
    15  O    2.329411   2.397790   3.201637   3.178754   3.639173
    16  H    2.654551   2.896948   3.620228   3.020075   3.366851
                    6          7          8          9         10
     6  C    0.000000
     7  H    1.093447   0.000000
     8  H    1.091706   1.764692   0.000000
     9  H    1.094101   1.767233   1.770565   0.000000
    10  C    2.533346   3.497018   2.784712   2.779501   0.000000
    11  H    2.849393   3.820405   3.276775   2.664763   1.101616
    12  H    2.611934   3.649715   2.413788   2.896982   1.098759
    13  O    3.697991   4.526007   3.934505   4.077382   1.363175
    14  O    3.814315   4.050714   4.652724   4.160611   3.095388
    15  O    4.485530   4.970661   5.274363   4.571261   3.084812
    16  H    4.425762   5.055966   5.047198   4.600793   2.555097
                   11         12         13         14         15
    11  H    0.000000
    12  H    1.812506   0.000000
    13  O    2.046716   2.041445   0.000000
    14  O    3.268992   4.127054   2.905761   0.000000
    15  O    2.907188   4.176837   2.721184   1.450523   0.000000
    16  H    2.557303   3.586220   1.880329   1.882938   0.977259
                   16
    16  H    0.000000
 Symmetry turned off by external request.
 Stoichiometry    C4H9O3(2)
 Framework group  C1[X(C4H9O3)]
 Deg. of freedom    42
 Full point group                 C1
 Rotational constants (GHZ):      3.5554861      2.1434643      1.4945356
 Standard basis: CBSB7 (5D, 7F)
 Integral buffers will be    131072 words long.
 Raffenetti 2 integral format.
 Two-electron integral symmetry is turned off.
   180 basis functions,   296 primitive gaussians,   187 cartesian basis functions
    29 alpha electrons       28 beta electrons
       nuclear repulsion energy       331.0951530127 Hartrees.
 NAtoms=   16 NActive=   16 NUniq=   16 SFac= 7.50D-01 NAtFMM=   80 NAOKFM=F Big=F
 One-electron integrals computed using PRISM.
 NBasis=   180 RedAO= T  NBF=   180
 NBsUse=   180 1.00D-06 NBFU=   180
 Harris functional with IExCor=  402 diagonalized for initial guess.
 ExpMin= 1.03D-01 ExpMax= 8.59D+03 ExpMxC= 1.30D+03 IAcc=1 IRadAn=         1 AccDes= 1.00D-06
 HarFok:  IExCor= 402 AccDes= 1.00D-06 IRadAn=         1 IDoV=1
 ScaDFX=  1.000000  1.000000  1.000000  1.000000
 <S**2> of initial guess= 0.7500
 Requested convergence on RMS density matrix=1.00D-08 within 128 cycles.
 Requested convergence on MAX density matrix=1.00D-06.
 Requested convergence on             energy=1.00D-06.
 No special actions if energy rises.
 Integral accuracy reduced to 1.0D-05 until final iterations.
 EnCoef did     1 forward-backward iterations
 EnCoef did     5 forward-backward iterations
 Initial convergence to 1.0D-05 achieved.  Increase integral accuracy.
 SCF Done:  E(UB+HF-LYP) =  -383.454420556     A.U. after   30 cycles
             Convg  =    0.3527D-08             -V/T =  2.0033
             S**2   =   0.7537
 Annihilation of the first spin contaminant:
 S**2 before annihilation     0.7537,   after     0.7500
 Range of M.O.s used for correlation:     1   180
 NBasis=   180 NAE=    29 NBE=    28 NFC=     0 NFV=     0
 NROrb=    180 NOA=    29 NOB=    28 NVA=   151 NVB=   152
 Symmetrizing basis deriv contribution to polar:
 IMax=3 JMax=2 DiffMx= 0.00D+00
 G2DrvN: will do   17 centers at a time, making    1 passes doing MaxLOS=2.
 FoFDir/FoFCou used for L=0 through L=2.
 DoAtom=TTTTTTTTTTTTTTTT
          Differentiating once with respect to electric field.
                with respect to dipole field.
          Differentiating once with respect to nuclear coordinates.
 Symmetry not used in FoFDir.
 MinBra= 0 MaxBra= 2 Meth= 1.
 IRaf=       0 NMat=  51 IRICut=      51 DoRegI=T DoRafI=T ISym2E= 0 JSym2E=0.
          There are  51 degrees of freedom in the 1st order CPHF.
    48 vectors were produced by pass  0.
 AX will form  48 AO Fock derivatives at one time.
    48 vectors were produced by pass  1.
    48 vectors were produced by pass  2.
    48 vectors were produced by pass  3.
    48 vectors were produced by pass  4.
    48 vectors were produced by pass  5.
    29 vectors were produced by pass  6.
     3 vectors were produced by pass  7.
     3 vectors were produced by pass  8.
 Inv2:  IOpt= 1 Iter= 1 AM= 5.37D-15 Conv= 1.00D-12.
 Inverted reduced A of dimension  323 with in-core refinement.
 Isotropic polarizability for W=    0.000000       60.77 Bohr**3.
 End of Minotr Frequency-dependent properties file   721 does not exist.

 **********************************************************************

            Population analysis using the SCF density.

 **********************************************************************

 Alpha  occ. eigenvalues --  -19.17684 -19.17275 -19.15326 -10.24258 -10.23117
 Alpha  occ. eigenvalues --  -10.21633 -10.18983  -1.11424  -1.04828  -0.91031
 Alpha  occ. eigenvalues --   -0.81872  -0.69217  -0.68048  -0.60004  -0.53249
 Alpha  occ. eigenvalues --   -0.51652  -0.49125  -0.47638  -0.45362  -0.44253
 Alpha  occ. eigenvalues --   -0.42813  -0.41153  -0.40718  -0.37776  -0.36771
 Alpha  occ. eigenvalues --   -0.32575  -0.30332  -0.28575  -0.27399
 Alpha virt. eigenvalues --    0.02288   0.02781   0.05752   0.06523   0.06753
 Alpha virt. eigenvalues --    0.09793   0.10594   0.11895   0.12930   0.14052
 Alpha virt. eigenvalues --    0.15603   0.17412   0.19391   0.19673   0.23248
 Alpha virt. eigenvalues --    0.30556   0.31188   0.33048   0.35098   0.38956
 Alpha virt. eigenvalues --    0.40268   0.42265   0.45497   0.47898   0.48586
 Alpha virt. eigenvalues --    0.50664   0.52621   0.53849   0.54648   0.55715
 Alpha virt. eigenvalues --    0.56033   0.57754   0.59287   0.60041   0.61798
 Alpha virt. eigenvalues --    0.61818   0.66496   0.74344   0.76136   0.80484
 Alpha virt. eigenvalues --    0.83131   0.87334   0.88149   0.90249   0.90908
 Alpha virt. eigenvalues --    0.94215   0.96663   0.99686   1.02638   1.07432
 Alpha virt. eigenvalues --    1.12184   1.18286   1.20111   1.22472   1.31266
 Alpha virt. eigenvalues --    1.36256   1.37221   1.40649   1.41348   1.43056
 Alpha virt. eigenvalues --    1.43877   1.45054   1.47370   1.50716   1.51763
 Alpha virt. eigenvalues --    1.52440   1.52976   1.56746   1.58863   1.59414
 Alpha virt. eigenvalues --    1.62450   1.65092   1.66918   1.67755   1.73112
 Alpha virt. eigenvalues --    1.75842   1.77209   1.81455   1.82921   1.86500
 Alpha virt. eigenvalues --    1.96247   1.97923   2.03261   2.04325   2.05703
 Alpha virt. eigenvalues --    2.11055   2.13413   2.16976   2.22221   2.26041
 Alpha virt. eigenvalues --    2.32833   2.35997   2.36513   2.40241   2.41731
 Alpha virt. eigenvalues --    2.43579   2.46989   2.47455   2.49537   2.52452
 Alpha virt. eigenvalues --    2.55469   2.56983   2.58165   2.60161   2.65510
 Alpha virt. eigenvalues --    2.70095   2.72861   2.75611   2.76738   2.79509
 Alpha virt. eigenvalues --    2.82511   2.84415   2.89463   2.91367   2.94143
 Alpha virt. eigenvalues --    3.02066   3.05314   3.13057   3.16104   3.20062
 Alpha virt. eigenvalues --    3.25127   3.26106   3.30164   3.40656   3.59906
 Alpha virt. eigenvalues --    3.75186   3.75718   3.76941   3.79470   3.83641
 Alpha virt. eigenvalues --    3.87437   3.91031   3.98452   4.18616   4.23114
 Alpha virt. eigenvalues --    4.68624   4.82383   4.84872   4.89725   4.97377
 Alpha virt. eigenvalues --    5.23621   5.38986   5.45318   5.69169  23.73282
 Alpha virt. eigenvalues --   23.76830  23.81562  23.89945  49.78891  49.83066
 Alpha virt. eigenvalues --   49.84383
  Beta  occ. eigenvalues --  -19.17232 -19.15459 -19.15331 -10.24300 -10.23123
  Beta  occ. eigenvalues --  -10.21367 -10.18965  -1.11347  -1.00095  -0.90984
  Beta  occ. eigenvalues --   -0.81165  -0.68964  -0.66936  -0.59382  -0.53188
  Beta  occ. eigenvalues --   -0.51263  -0.48047  -0.46320  -0.44177  -0.43466
  Beta  occ. eigenvalues --   -0.42302  -0.40435  -0.38715  -0.37609  -0.35828
  Beta  occ. eigenvalues --   -0.28703  -0.28522  -0.27260
  Beta virt. eigenvalues --   -0.16170   0.02327   0.02872   0.05820   0.06602
  Beta virt. eigenvalues --    0.06884   0.09932   0.10716   0.12055   0.13144
  Beta virt. eigenvalues --    0.14142   0.15944   0.17765   0.19620   0.19938
  Beta virt. eigenvalues --    0.23840   0.30823   0.31432   0.33320   0.35287
  Beta virt. eigenvalues --    0.38994   0.40893   0.42448   0.45814   0.48427
  Beta virt. eigenvalues --    0.48889   0.50862   0.52913   0.54268   0.55000
  Beta virt. eigenvalues --    0.55761   0.56173   0.57838   0.59583   0.60185
  Beta virt. eigenvalues --    0.61889   0.62298   0.66632   0.75005   0.76485
  Beta virt. eigenvalues --    0.80773   0.83561   0.87984   0.89692   0.90583
  Beta virt. eigenvalues --    0.91661   0.94691   0.97675   0.99819   1.03292
  Beta virt. eigenvalues --    1.08050   1.12515   1.18416   1.20391   1.22716
  Beta virt. eigenvalues --    1.31343   1.36903   1.37524   1.40792   1.41573
  Beta virt. eigenvalues --    1.43164   1.44079   1.45587   1.47727   1.50901
  Beta virt. eigenvalues --    1.51990   1.52939   1.53375   1.56885   1.59149
  Beta virt. eigenvalues --    1.59573   1.62725   1.65364   1.67021   1.68024
  Beta virt. eigenvalues --    1.73490   1.75946   1.77302   1.81701   1.83178
  Beta virt. eigenvalues --    1.86637   1.96574   1.98123   2.03529   2.04635
  Beta virt. eigenvalues --    2.06047   2.11226   2.13714   2.17568   2.22424
  Beta virt. eigenvalues --    2.26302   2.33085   2.36226   2.36700   2.40441
  Beta virt. eigenvalues --    2.42099   2.43762   2.47119   2.47547   2.49712
  Beta virt. eigenvalues --    2.52654   2.55712   2.57296   2.58527   2.60377
  Beta virt. eigenvalues --    2.65695   2.70738   2.73360   2.77163   2.77588
  Beta virt. eigenvalues --    2.80279   2.82757   2.87367   2.90307   2.94564
  Beta virt. eigenvalues --    2.96714   3.03737   3.05843   3.13304   3.18242
  Beta virt. eigenvalues --    3.22562   3.25711   3.26362   3.30589   3.41310
  Beta virt. eigenvalues --    3.59955   3.75297   3.75775   3.77061   3.79590
  Beta virt. eigenvalues --    3.83806   3.88265   3.91162   3.99378   4.19408
  Beta virt. eigenvalues --    4.23296   4.68771   4.84890   4.88865   4.92307
  Beta virt. eigenvalues --    4.99731   5.23732   5.39153   5.46958   5.69253
  Beta virt. eigenvalues --   23.73293  23.77021  23.81604  23.89969  49.79253
  Beta virt. eigenvalues --   49.83840  49.85557
          Condensed to atoms (all electrons):
              1          2          3          4          5          6
     1  C    4.807080   0.396251   0.390816   0.318614  -0.044713  -0.045306
     2  H    0.396251   0.589562  -0.023009  -0.065451   0.009624   0.005037
     3  H    0.390816  -0.023009   0.568426  -0.046855  -0.006741  -0.002184
     4  C    0.318614  -0.065451  -0.046855   5.316230   0.389334   0.293468
     5  H   -0.044713   0.009624  -0.006741   0.389334   0.578887  -0.028190
     6  C   -0.045306   0.005037  -0.002184   0.293468  -0.028190   4.914256
     7  H   -0.004324  -0.001044   0.005139  -0.033054  -0.006484   0.402598
     8  H    0.006680  -0.000300  -0.000249  -0.024954  -0.007512   0.398622
     9  H   -0.006014   0.004563  -0.001154  -0.035633   0.008713   0.401370
    10  C   -0.057575  -0.011600   0.009024   0.280969  -0.047993  -0.050417
    11  H   -0.014393   0.005664   0.000345  -0.028802   0.011707  -0.004156
    12  H    0.007315  -0.000302  -0.000249  -0.033314  -0.010417  -0.001969
    13  O    0.001900   0.000223  -0.000059  -0.034398   0.003808   0.003160
    14  O    0.246309  -0.030983  -0.020795  -0.045474   0.005722   0.003600
    15  O   -0.060846   0.008065   0.006010  -0.012594  -0.000296  -0.000076
    16  H    0.004074  -0.000184  -0.001385   0.004295  -0.000257   0.000016
              7          8          9         10         11         12
     1  C   -0.004324   0.006680  -0.006014  -0.057575  -0.014393   0.007315
     2  H   -0.001044  -0.000300   0.004563  -0.011600   0.005664  -0.000302
     3  H    0.005139  -0.000249  -0.001154   0.009024   0.000345  -0.000249
     4  C   -0.033054  -0.024954  -0.035633   0.280969  -0.028802  -0.033314
     5  H   -0.006484  -0.007512   0.008713  -0.047993   0.011707  -0.010417
     6  C    0.402598   0.398622   0.401370  -0.050417  -0.004156  -0.001969
     7  H    0.561563  -0.024766  -0.028531   0.007546  -0.000602   0.000258
     8  H   -0.024766   0.560079  -0.029200  -0.006014  -0.001076   0.006758
     9  H   -0.028531  -0.029200   0.575494  -0.006832   0.005070  -0.002237
    10  C    0.007546  -0.006014  -0.006832   4.821019   0.380124   0.392197
    11  H   -0.000602  -0.001076   0.005070   0.380124   0.624874  -0.054851
    12  H    0.000258   0.006758  -0.002237   0.392197  -0.054851   0.621563
    13  O   -0.000167  -0.000075  -0.000055   0.269758  -0.042136  -0.035171
    14  O    0.000082  -0.000214   0.000005  -0.002022  -0.000857  -0.000207
    15  O    0.000012   0.000004  -0.000192   0.017501   0.009173   0.000089
    16  H    0.000014   0.000017   0.000033  -0.012283  -0.006303   0.002032
             13         14         15         16
     1  C    0.001900   0.246309  -0.060846   0.004074
     2  H    0.000223  -0.030983   0.008065  -0.000184
     3  H   -0.000059  -0.020795   0.006010  -0.001385
     4  C   -0.034398  -0.045474  -0.012594   0.004295
     5  H    0.003808   0.005722  -0.000296  -0.000257
     6  C    0.003160   0.003600  -0.000076   0.000016
     7  H   -0.000167   0.000082   0.000012   0.000014
     8  H   -0.000075  -0.000214   0.000004   0.000017
     9  H   -0.000055   0.000005  -0.000192   0.000033
    10  C    0.269758  -0.002022   0.017501  -0.012283
    11  H   -0.042136  -0.000857   0.009173  -0.006303
    12  H   -0.035171  -0.000207   0.000089   0.002032
    13  O    8.064590   0.004156  -0.022234   0.048898
    14  O    0.004156   8.028304   0.085208  -0.035682
    15  O   -0.022234   0.085208   7.964693   0.281844
    16  H    0.048898  -0.035682   0.281844   0.442576
 Mulliken atomic charges:
              1
     1  C    0.054132
     2  H    0.113883
     3  H    0.122921
     4  C   -0.242380
     5  H    0.144808
     6  C   -0.289828
     7  H    0.121759
     8  H    0.122202
     9  H    0.114599
    10  C    0.016598
    11  H    0.116218
    12  H    0.108506
    13  O   -0.262197
    14  O   -0.237153
    15  O   -0.276361
    16  H    0.272295
 Sum of Mulliken charges=   0.00000
 Atomic charges with hydrogens summed into heavy atoms:
              1
     1  C    0.290936
     2  H    0.000000
     3  H    0.000000
     4  C   -0.097572
     5  H    0.000000
     6  C    0.068732
     7  H    0.000000
     8  H    0.000000
     9  H    0.000000
    10  C    0.241322
    11  H    0.000000
    12  H    0.000000
    13  O   -0.262197
    14  O   -0.237153
    15  O   -0.004067
    16  H    0.000000
 Sum of Mulliken charges=   0.00000
          Atomic-Atomic Spin Densities.
              1          2          3          4          5          6
     1  C   -0.007337   0.000569   0.003938  -0.005521   0.000347  -0.000308
     2  H    0.000569  -0.000556   0.000318   0.000518  -0.000194  -0.000483
     3  H    0.003938   0.000318   0.007333  -0.002425  -0.000766  -0.002003
     4  C   -0.005521   0.000518  -0.002425   0.162116  -0.003017  -0.009948
     5  H    0.000347  -0.000194  -0.000766  -0.003017  -0.006331   0.002755
     6  C   -0.000308  -0.000483  -0.002003  -0.009948   0.002755   0.017194
     7  H    0.000815   0.000158   0.001168   0.000657  -0.000951  -0.003856
     8  H   -0.000101  -0.000012  -0.000066  -0.002288   0.000482   0.001877
     9  H    0.000140  -0.000080  -0.000086  -0.000872  -0.000021   0.000988
    10  C    0.004489   0.000119  -0.000033   0.033814  -0.000690  -0.003076
    11  H    0.001491  -0.000454  -0.000246  -0.016932   0.000291   0.003311
    12  H   -0.000077  -0.000032  -0.000054  -0.011280   0.001129   0.002003
    13  O    0.000752  -0.000117  -0.000390  -0.023733   0.003546   0.001500
    14  O    0.000020  -0.000178  -0.000759   0.000501  -0.000398  -0.000096
    15  O   -0.000207   0.000086   0.000103   0.000131  -0.000095  -0.000034
    16  H   -0.000136  -0.000010   0.000006   0.000090   0.000130  -0.000012
              7          8          9         10         11         12
     1  C    0.000815  -0.000101   0.000140   0.004489   0.001491  -0.000077
     2  H    0.000158  -0.000012  -0.000080   0.000119  -0.000454  -0.000032
     3  H    0.001168  -0.000066  -0.000086  -0.000033  -0.000246  -0.000054
     4  C    0.000657  -0.002288  -0.000872   0.033814  -0.016932  -0.011280
     5  H   -0.000951   0.000482  -0.000021  -0.000690   0.000291   0.001129
     6  C   -0.003856   0.001877   0.000988  -0.003076   0.003311   0.002003
     7  H    0.013196  -0.001264  -0.000602  -0.000154  -0.000308  -0.000263
     8  H   -0.001264   0.000633   0.000198   0.000245   0.000291   0.000338
     9  H   -0.000602   0.000198  -0.000576   0.000101   0.000177   0.000205
    10  C   -0.000154   0.000245   0.000101  -0.038303   0.007890   0.007036
    11  H   -0.000308   0.000291   0.000177   0.007890   0.034009   0.005287
    12  H   -0.000263   0.000338   0.000205   0.007036   0.005287   0.008291
    13  O   -0.000134   0.000102   0.000042  -0.055807  -0.002243  -0.000254
    14  O   -0.000006  -0.000001   0.000001   0.000292  -0.000116  -0.000031
    15  O    0.000005  -0.000001  -0.000004   0.000462  -0.000678   0.000006
    16  H   -0.000002  -0.000002   0.000005   0.000256   0.000771  -0.000164
             13         14         15         16
     1  C    0.000752   0.000020  -0.000207  -0.000136
     2  H   -0.000117  -0.000178   0.000086  -0.000010
     3  H   -0.000390  -0.000759   0.000103   0.000006
     4  C   -0.023733   0.000501   0.000131   0.000090
     5  H    0.003546  -0.000398  -0.000095   0.000130
     6  C    0.001500  -0.000096  -0.000034  -0.000012
     7  H   -0.000134  -0.000006   0.000005  -0.000002
     8  H    0.000102  -0.000001  -0.000001  -0.000002
     9  H    0.000042   0.000001  -0.000004   0.000005
    10  C   -0.055807   0.000292   0.000462   0.000256
    11  H   -0.002243  -0.000116  -0.000678   0.000771
    12  H   -0.000254  -0.000031   0.000006  -0.000164
    13  O    0.933679  -0.002491   0.000793  -0.004914
    14  O   -0.002491   0.015732   0.000041  -0.000272
    15  O    0.000793   0.000041  -0.003382   0.002167
    16  H   -0.004914  -0.000272   0.002167  -0.002109
 Mulliken atomic spin densities:
              1
     1  C   -0.001125
     2  H   -0.000346
     3  H    0.006038
     4  C    0.121812
     5  H   -0.003784
     6  C    0.009812
     7  H    0.008460
     8  H    0.000430
     9  H   -0.000386
    10  C   -0.043358
    11  H    0.032542
    12  H    0.012138
    13  O    0.850331
    14  O    0.012237
    15  O   -0.000606
    16  H   -0.004197
 Sum of Mulliken spin densities=   1.00000
 APT atomic charges:
              1
     1  C    0.362060
     2  H   -0.022207
     3  H   -0.018637
     4  C    0.200790
     5  H   -0.038464
     6  C    0.047573
     7  H   -0.010952
     8  H   -0.005932
     9  H   -0.007940
    10  C    0.055101
    11  H    0.011449
    12  H   -0.020784
    13  O   -0.225406
    14  O   -0.332246
    15  O   -0.312062
    16  H    0.317658
 Sum of APT charges=   0.00000
 APT Atomic charges with hydrogens summed into heavy atoms:
              1
     1  C    0.321216
     2  H    0.000000
     3  H    0.000000
     4  C    0.162326
     5  H    0.000000
     6  C    0.022749
     7  H    0.000000
     8  H    0.000000
     9  H    0.000000
    10  C    0.045766
    11  H    0.000000
    12  H    0.000000
    13  O   -0.225406
    14  O   -0.332246
    15  O    0.005595
    16  H    0.000000
 Sum of APT charges=   0.00000
 Electronic spatial extent (au):  <R**2>=  1374.8090
 Charge=     0.0000 electrons
 Dipole moment (field-independent basis, Debye):
    X=    -1.3824    Y=    -1.1849    Z=     3.7118  Tot=     4.1343
 Quadrupole moment (field-independent basis, Debye-Ang):
   XX=   -40.2109   YY=   -46.2858   ZZ=   -43.6832
   XY=    -2.2887   XZ=    -2.4799   YZ=     2.5472
 Traceless Quadrupole moment (field-independent basis, Debye-Ang):
   XX=     3.1824   YY=    -2.8926   ZZ=    -0.2899
   XY=    -2.2887   XZ=    -2.4799   YZ=     2.5472
 Octapole moment (field-independent basis, Debye-Ang**2):
  XXX=   109.3554  YYY=  -178.3886  ZZZ=   -57.2930  XYY=    34.4512
  XXY=   -48.2153  XXZ=   -19.8305  XZZ=    37.2855  YZZ=   -51.5533
  YYZ=   -25.9290  XYZ=    -3.2246
 Hexadecapole moment (field-independent basis, Debye-Ang**3):
 XXXX=  -331.9675 YYYY=  -821.3534 ZZZZ=  -635.5276 XXXY=   159.3701
 XXXZ=   106.1105 YYYX=   164.3247 YYYZ=   -74.1882 ZZZX=    97.5560
 ZZZY=   -31.6063 XXYY=  -166.0134 XXZZ=  -162.3377 YYZZ=  -216.9055
 XXYZ=   -11.7860 YYXZ=    35.8348 ZZXY=    49.3045
 N-N= 3.310951530127D+02 E-N=-1.561597429836D+03  KE= 3.821874225848D+02
  Exact polarizability:  51.699  -3.784  64.820  -1.274  -6.170  65.785
 Approx polarizability:  78.204  -4.321  93.050   0.896  -9.840  85.817
                          Isotropic Fermi Contact Couplings
        Atom                 a.u.       MegaHertz       Gauss      10(-4) cm-1
     1  C(13)             -0.00413      -4.63993      -1.65564      -1.54771
     2  H(1)              -0.00008      -0.34360      -0.12261      -0.11461
     3  H(1)               0.00334      14.92431       5.32537       4.97822
     4  C(13)              0.05053      56.80772      20.27041      18.94902
     5  H(1)              -0.00200      -8.95634      -3.19585      -2.98751
     6  C(13)              0.00151       1.69265       0.60398       0.56461
     7  H(1)               0.00338      15.10156       5.38861       5.03734
     8  H(1)               0.00015       0.65015       0.23199       0.21687
     9  H(1)              -0.00017      -0.73797      -0.26333      -0.24616
    10  C(13)             -0.03241     -36.43975     -13.00261     -12.15499
    11  H(1)               0.01492      66.70630      23.80247      22.25083
    12  H(1)               0.00637      28.48759      10.16508       9.50244
    13  O(17)              0.05379     -32.60640     -11.63477     -10.87632
    14  O(17)              0.00150      -0.90666      -0.32352      -0.30243
    15  O(17)              0.00008      -0.04572      -0.01631      -0.01525
    16  H(1)               0.00036       1.60605       0.57308       0.53572
 --------------------------------------------------------
       Center         ----  Spin Dipole Couplings  ----
                      3XX-RR        3YY-RR        3ZZ-RR
 --------------------------------------------------------
     1   Atom       -0.006835      0.009813     -0.002978
     2   Atom       -0.003220      0.005114     -0.001895
     3   Atom       -0.001978      0.003983     -0.002005
     4   Atom       -0.034802      0.131020     -0.096218
     5   Atom        0.011456     -0.001811     -0.009644
     6   Atom       -0.012877      0.009182      0.003695
     7   Atom       -0.001435      0.002440     -0.001005
     8   Atom       -0.004057     -0.001068      0.005125
     9   Atom       -0.000039      0.002134     -0.002094
    10   Atom        0.020733      0.010859     -0.031592
    11   Atom        0.006991      0.001219     -0.008210
    12   Atom       -0.005776     -0.009727      0.015503
    13   Atom        1.645712     -0.007431     -1.638281
    14   Atom       -0.030449      0.055063     -0.024614
    15   Atom       -0.005483     -0.006515      0.011998
    16   Atom       -0.014577     -0.008995      0.023571
 --------------------------------------------------------
                        XY            XZ            YZ
 --------------------------------------------------------
     1   Atom       -0.004490     -0.003171      0.005874
     2   Atom        0.001504      0.000933      0.003271
     3   Atom       -0.003085     -0.000365      0.000794
     4   Atom       -0.123846      0.019871     -0.040321
     5   Atom       -0.005585      0.011701     -0.008314
     6   Atom        0.005892     -0.005045     -0.020205
     7   Atom       -0.001862     -0.000423     -0.003442
     8   Atom       -0.000038     -0.001457     -0.003466
     9   Atom        0.003164     -0.001562     -0.003827
    10   Atom       -0.021572     -0.012734     -0.034095
    11   Atom        0.016569      0.000427      0.000901
    12   Atom        0.002512     -0.010625     -0.003350
    13   Atom       -2.375238      0.373981     -0.270190
    14   Atom        0.019083      0.006542      0.036284
    15   Atom        0.001826     -0.004731     -0.003778
    16   Atom       -0.000690      0.001880      0.015752
 --------------------------------------------------------


 ---------------------------------------------------------------------------------
              Anisotropic Spin Dipole Couplings in Principal Axis System
 ---------------------------------------------------------------------------------

       Atom             a.u.   MegaHertz   Gauss  10(-4) cm-1        Axes

              Baa    -0.0087    -1.169    -0.417    -0.390  0.9078  0.0902  0.4096
     1 C(13)  Bbb    -0.0048    -0.643    -0.230    -0.215 -0.3332 -0.4381  0.8349
              Bcc     0.0135     1.812     0.647     0.605 -0.2547  0.8944  0.3677
 
              Baa    -0.0037    -1.980    -0.706    -0.660  0.8476  0.0513 -0.5281
     2 H(1)   Bbb    -0.0030    -1.600    -0.571    -0.534  0.5016 -0.4018  0.7661
              Bcc     0.0067     3.580     1.277     1.194  0.1730  0.9143  0.3663
 
              Baa    -0.0033    -1.754    -0.626    -0.585  0.9212  0.3885  0.0216
     3 H(1)   Bbb    -0.0021    -1.125    -0.401    -0.375  0.0259 -0.1164  0.9929
              Bcc     0.0054     2.879     1.027     0.960 -0.3883  0.9141  0.1173
 
              Baa    -0.1037   -13.915    -4.965    -4.642  0.3464  0.3334  0.8768
     4 C(13)  Bbb    -0.1002   -13.442    -4.797    -4.484  0.8146  0.3566 -0.4574
              Bcc     0.2039    27.358     9.762     9.126 -0.4652  0.8727 -0.1481
 
              Baa    -0.0170    -9.081    -3.240    -3.029 -0.2882  0.3757  0.8808
     5 H(1)   Bbb    -0.0031    -1.630    -0.582    -0.544  0.4893  0.8485 -0.2018
              Bcc     0.0201    10.711     3.822     3.573  0.8231 -0.3728  0.4284
 
              Baa    -0.0144    -1.926    -0.687    -0.642  0.9661 -0.2576 -0.0184
     6 C(13)  Bbb    -0.0139    -1.870    -0.667    -0.624  0.1801  0.6209  0.7629
              Bcc     0.0283     3.796     1.355     1.266  0.1852  0.7404 -0.6462
 
              Baa    -0.0039    -2.092    -0.747    -0.698  0.5065  0.5203  0.6875
     7 H(1)   Bbb    -0.0010    -0.507    -0.181    -0.169  0.8341 -0.0937 -0.5436
              Bcc     0.0049     2.599     0.927     0.867 -0.2184  0.8488 -0.4815
 
              Baa    -0.0044    -2.364    -0.844    -0.789  0.9387  0.2526  0.2348
     8 H(1)   Bbb    -0.0024    -1.283    -0.458    -0.428 -0.3232  0.8818  0.3434
              Bcc     0.0068     3.647     1.301     1.217 -0.1203 -0.3982  0.9094
 
              Baa    -0.0044    -2.335    -0.833    -0.779 -0.0893  0.5367  0.8391
     9 H(1)   Bbb    -0.0020    -1.046    -0.373    -0.349  0.8707 -0.3669  0.3274
              Bcc     0.0063     3.381     1.206     1.128  0.4836  0.7598 -0.4345
 
              Baa    -0.0567    -7.609    -2.715    -2.538  0.2746  0.5016  0.8203
    10 C(13)  Bbb     0.0161     2.154     0.769     0.719  0.7150  0.4639 -0.5231
              Bcc     0.0407     5.455     1.947     1.820 -0.6429  0.7302 -0.2313
 
              Baa    -0.0128    -6.804    -2.428    -2.270 -0.6390  0.7638 -0.0915
    11 H(1)   Bbb    -0.0082    -4.375    -1.561    -1.459 -0.0826  0.0501  0.9953
              Bcc     0.0210    11.179     3.989     3.729  0.7648  0.6436  0.0311
 
              Baa    -0.0113    -6.005    -2.143    -2.003 -0.6732  0.7178 -0.1775
    12 H(1)   Bbb    -0.0092    -4.904    -1.750    -1.636  0.6324  0.6833  0.3648
              Bcc     0.0204    10.909     3.893     3.639 -0.3831 -0.1334  0.9140
 
              Baa    -1.6966   122.765    43.805    40.950  0.5493  0.8071  0.2165
    13 O(17)  Bbb    -1.6799   121.559    43.375    40.548 -0.1988 -0.1254  0.9720
              Bcc     3.3765  -244.324   -87.181   -81.498  0.8116 -0.5770  0.0916
 
              Baa    -0.0388     2.807     1.002     0.936  0.1696 -0.3852  0.9071
    14 O(17)  Bbb    -0.0342     2.478     0.884     0.826  0.9668 -0.1136 -0.2290
              Bcc     0.0730    -5.285    -1.886    -1.763  0.1912  0.9158  0.3531
 
              Baa    -0.0079     0.572     0.204     0.191 -0.5835  0.8120  0.0155
    15 O(17)  Bbb    -0.0061     0.443     0.158     0.148  0.7732  0.5496  0.3165
              Bcc     0.0140    -1.015    -0.362    -0.338 -0.2485 -0.1966  0.9485
 
              Baa    -0.0164    -8.745    -3.121    -2.917  0.6056  0.7302 -0.3163
    16 H(1)   Bbb    -0.0136    -7.258    -2.590    -2.421  0.7951 -0.5718  0.2021
              Bcc     0.0300    16.003     5.710     5.338  0.0333  0.3739  0.9269
 

 ---------------------------------------------------------------------------------

 Use density number 0.
 Entering OneElI...
 Calculate overlap and kinetic energy integrals
    NBasis = 187  MinDer = 2  MaxDer = 2
 Requested accuracy = 0.1000D-12
 PrsmSu:  NPrtUS=   1 ThrOK=F
 PRISM was handed   130759341 working-precision words and  2549 shell-pairs
 Entering OneElI...
 Calculate potential energy integrals
    NBasis = 187  MinDer = 2  MaxDer = 2
 Requested accuracy = 0.1000D-12
 PrsmSu:  NPrtUS=   8 ThrOK=T
 PRISM was handed    16300894 working-precision words and  2396 shell-pairs
 PRISM was handed    16300894 working-precision words and  2396 shell-pairs
 PRISM was handed    16300894 working-precision words and  2396 shell-pairs
 PRISM was handed    16300894 working-precision words and  2396 shell-pairs
 PRISM was handed    16300894 working-precision words and  2396 shell-pairs
 PRISM was handed    16300894 working-precision words and  2396 shell-pairs
 PRISM was handed    16300894 working-precision words and  2396 shell-pairs
 PRISM was handed    16300894 working-precision words and  2396 shell-pairs
 Polarizability after L701:
                1             2             3
      1  0.516994D+02
      2 -0.378440D+01  0.648204D+02
      3 -0.127363D+01 -0.616981D+01  0.657855D+02
 Dipole Derivatives after L701:
               1            2            3            4            5
      1 0.261866D+00 0.442127D-01-0.971169D-01-0.779307D-01-0.290370D-01
      2 0.157101D+00 0.227707D+00 0.411138D-01-0.119634D+00 0.181711D-01
      3-0.164408D+00 0.512988D-02 0.596607D+00 0.860109D-02-0.182311D-01
               6            7            8            9           10
      1-0.304425D-01 0.156148D-02 0.881831D-01-0.858799D-02 0.126055D+00
      2-0.220785D-01 0.853051D-01-0.591429D-01 0.300819D-01-0.261548D+00
      3-0.686084D-02-0.909206D-02 0.331218D-01 0.167064D-02 0.206984D+00
              11           12           13           14           15
      1-0.903770D-02 0.982685D-01-0.872564D-01-0.496315D-01-0.106848D-01
      2 0.412109D+00-0.107243D+00-0.165380D-01-0.382753D-01 0.320253D-02
      3-0.157707D+00 0.642043D-01-0.409753D-01-0.114885D-01 0.101409D-01
              16           17           18           19           20
      1 0.101771D+00 0.113489D-02 0.355287D-01-0.628288D-02 0.772990D-01
      2 0.943043D-01 0.132988D-01 0.773002D-02 0.738538D-01-0.728195D-01
      3-0.600756D-01 0.412997D-01 0.276486D-01 0.596553D-02 0.573611D-01
              21           22           23           24           25
      1 0.965489D-02 0.708573D-01-0.442121D-03 0.238573D-01-0.102438D+00
      2 0.338945D-01-0.156577D-01 0.792306D-02-0.527178D-01-0.813250D-01
      3 0.462479D-01 0.342211D-01-0.105680D+00-0.965774D-01-0.118149D-01
              26           27           28           29           30
      1-0.461587D-01-0.738320D-01 0.308316D+00 0.129273D+00-0.193838D+00
      2 0.425418D-01-0.178503D-01 0.656735D-01-0.328909D+00 0.369503D+00
      3 0.879645D-02 0.360769D-01-0.239104D+00 0.197440D+00 0.185898D+00
              31           32           33           34           35
      1-0.782484D-01-0.821468D-01-0.558333D-01 0.389375D-01 0.183541D-01
      2-0.697429D-01 0.828118D-01-0.599237D-02-0.165927D-01 0.375806D-01
      3-0.297887D-01-0.509252D-01 0.297824D-01 0.115374D+00-0.703117D-01
              36           37           38           39           40
      1 0.842190D-01-0.276318D+00-0.676861D-01 0.130447D+00-0.214948D+00
      2-0.987575D-01 0.125942D+00-0.917358D-01-0.198800D+00-0.757505D-01
      3-0.138872D+00 0.401146D-01-0.377450D-01-0.308164D+00 0.228418D+00
              41           42           43           44           45
      1-0.948028D-01 0.535668D-01-0.272168D+00 0.510236D-01 0.154780D+00
      2-0.257111D+00-0.401236D-01 0.538643D-01-0.302999D+00 0.795858D-01
      3-0.740209D-01-0.524680D+00 0.181007D-01 0.116265D+00-0.361020D+00
              46           47           48
      1 0.206226D+00-0.305380D-01-0.119986D+00
      2 0.744368D-03 0.308849D+00-0.215491D-01
      3-0.102520D+00 0.666956D-01 0.437897D+00
 Hessian after L701:
                1             2             3             4             5
      1  0.192715D+02
      2 -0.639940D+00  0.175638D+02
      3  0.269117D+01  0.120738D+01  0.127523D+02
      4 -0.235521D+01  0.119010D+01  0.784649D+00  0.222050D+01
      5  0.141938D+01 -0.419874D+01  0.423161D+00 -0.147252D+01  0.375500D+01
      6  0.782814D+00  0.348329D+00 -0.465364D+01 -0.771940D+00 -0.303339D+00
      7 -0.357479D+01 -0.140424D+01  0.419335D+00 -0.995256D-01  0.461090D-01
      8 -0.146387D+01 -0.280300D+01 -0.567680D+00  0.301300D-01  0.910315D-01
      9  0.408990D+00 -0.527008D+00 -0.454304D+01 -0.570903D-01  0.148153D-01
     10 -0.622681D+01 -0.499957D+00 -0.861718D+00  0.143847D+00 -0.142691D+00
     11 -0.468290D+00 -0.486447D+01  0.253226D+01 -0.791861D-01  0.155426D+00
     12 -0.880831D+00  0.267480D+01 -0.173753D+01 -0.171264D+00 -0.203891D+00
     13  0.173450D+00 -0.352242D-01 -0.748095D-02  0.413379D-01  0.763049D-01
     14 -0.275831D-01  0.342620D-01 -0.909042D-01  0.681571D-01  0.257493D-01
     15 -0.427151D-01 -0.142026D+00  0.180401D-01  0.787917D-01  0.735238D-01
     16 -0.719771D-01 -0.237596D-01 -0.438690D-01 -0.443473D-01  0.968861D-02
     17 -0.705976D-01 -0.796945D-01  0.168478D+00  0.182479D-01 -0.447217D-01
     18 -0.395612D-01  0.397509D-01  0.149802D+00  0.612892D-01  0.405555D-01
     19 -0.216517D-01 -0.180532D-01  0.309159D-01  0.612291D-02  0.235677D-02
     20 -0.290913D-02 -0.527645D-03 -0.286534D-01 -0.802721D-02 -0.330823D-02
     21  0.638520D-02 -0.106620D-01  0.130176D-01  0.479069D-02  0.200676D-02
     22 -0.339724D-01 -0.778425D-02 -0.473633D-01 -0.123252D-02  0.210964D-03
     23 -0.816763D-02 -0.467786D-01  0.380877D-01  0.443351D-02  0.144504D-02
     24 -0.530836D-01  0.294085D-01  0.176890D+00  0.861441D-02  0.518058D-02
     25  0.723572D-02  0.954430D-02 -0.214803D-01 -0.234035D-01 -0.745513D-02
     26 -0.671951D-02 -0.813674D-02  0.963734D-02 -0.185082D-02 -0.226982D-01
     27  0.963709D-02  0.103202D-01 -0.160223D-01 -0.123591D-01  0.868193D-02
     28  0.934184D-01 -0.658040D-01 -0.157793D-01  0.263484D-01  0.837820D-02
     29 -0.143522D+00  0.120099D+00  0.115966D-01  0.102108D-01 -0.810183D-01
     30 -0.473432D-01 -0.276749D-01  0.349202D-02  0.822894D-02 -0.582906D-01
     31 -0.623033D-01  0.855619D-01  0.383163D-02 -0.172294D-01 -0.505864D-01
     32  0.823509D-01 -0.374310D-01 -0.867895D-02 -0.246576D-01  0.387281D-01
     33  0.224665D-01 -0.133491D-01  0.327432D-01 -0.111309D-01  0.226917D-01
     34 -0.649707D-02 -0.725107D-01 -0.606037D-01 -0.312048D-02 -0.148281D-02
     35 -0.670966D-01  0.733679D-01  0.104811D+00  0.457481D-02  0.252927D-02
     36 -0.653447D-01  0.112997D+00  0.446737D-01  0.744953D-02  0.717311D-02
     37 -0.240193D+00 -0.150922D+00 -0.173280D-02 -0.185173D-01  0.152029D-01
     38 -0.158449D+00  0.436935D+00  0.231368D-01  0.506551D-01  0.737914D-01
     39  0.512537D-02  0.382050D-02 -0.255321D+00  0.559708D-02  0.157817D-01
     40 -0.682648D+01  0.150538D+01 -0.289366D+01  0.216835D+00  0.137826D+00
     41  0.150032D+01 -0.614376D+01 -0.369224D+01  0.199176D+00  0.253062D+00
     42 -0.285767D+01 -0.373726D+01 -0.219186D+01  0.882907D-01  0.523013D-01
     43 -0.782054D-01  0.138621D+00  0.229115D-01 -0.918043D-01 -0.409060D-01
     44  0.759621D-01 -0.135993D+00 -0.682452D-01 -0.856162D-03 -0.475518D-01
     45  0.676190D-01  0.576303D-01  0.258479D+00 -0.278852D-01 -0.108954D+00
     46 -0.475432D-01 -0.110178D-01  0.869393D-03 -0.600962D-03  0.176880D-03
     47 -0.208707D-01  0.900928D-01 -0.621467D-01  0.114108D-01  0.127735D-02
     48 -0.765712D-02 -0.264576D-01 -0.520515D-01  0.396737D-02  0.860222D-02
                6             7             8             9            10
      6  0.456447D+01
      7 -0.604957D-01  0.351930D+01
      8  0.101825D-01  0.168680D+01  0.234769D+01
      9  0.688404D-01 -0.496500D+00  0.716351D+00  0.454754D+01
     10 -0.201567D+00  0.640134D-01  0.125410D+00  0.930521D-01  0.175180D+02
     11 -0.153518D+00  0.121432D+00 -0.520518D-01 -0.123938D+00  0.115585D+01
     12 -0.590501D-01  0.717197D-01 -0.973751D-01  0.969033D-01  0.104311D+01
     13  0.776256D-01  0.156157D-01  0.506955D-02 -0.464473D-02 -0.231322D+01
     14  0.637733D-01 -0.417690D-02 -0.399053D-01 -0.424197D-01  0.103982D+01
     15  0.315022D-01 -0.205964D-02 -0.415230D-01 -0.749682D-02  0.813666D+00
     16  0.293335D-01  0.133795D-01 -0.328360D-01 -0.263878D-01 -0.506536D+01
     17  0.302921D-01 -0.354789D-01 -0.847155D-04  0.203788D-01  0.104100D+01
     18  0.946812D-01 -0.475683D-01  0.369896D-01 -0.922074D-02 -0.127651D+01
     19  0.432518D-02 -0.192536D-01  0.222224D-02 -0.162126D-01  0.796520D-01
     20 -0.488119D-02  0.111898D-01 -0.305513D-01 -0.101127D-01 -0.562008D-02
     21 -0.274258D-02 -0.342055D-01  0.116909D-01  0.433085D-01 -0.183696D-01
     22  0.200521D-03  0.253692D-03 -0.227832D-02 -0.676874D-03  0.164841D-01
     23  0.341161D-02 -0.483221D-02  0.397866D-02  0.128092D-02 -0.133675D-01
     24  0.458414D-02 -0.795368D-02  0.950982D-02  0.262116D-03  0.228644D-01
     25 -0.356174D-01  0.857859D-02 -0.870803D-02  0.253499D-02  0.686914D-01
     26 -0.380969D-02  0.235479D-02 -0.221143D-02 -0.133344D-03 -0.437529D-01
     27  0.471513D-01  0.236584D-02 -0.230367D-03 -0.351078D-02  0.772704D-01
     28  0.656929D-02  0.275337D-01 -0.130038D+00 -0.247594D-01 -0.378700D+01
     29 -0.616851D-01 -0.134335D+00  0.151081D+00  0.375828D-01 -0.251018D+01
     30 -0.144014D-01 -0.368845D-01  0.601226D-01 -0.477666D-01  0.405182D+00
     31 -0.204886D-01  0.122998D-01 -0.159976D-01  0.112297D-02 -0.278483D-01
     32  0.260312D-01 -0.524854D-02  0.187551D-02  0.996000D-03  0.337761D-01
     33 -0.175320D-01  0.253374D-02 -0.284428D-02 -0.323832D-02 -0.399952D-01
     34 -0.100052D-02  0.114317D-02 -0.153159D-02  0.134679D-02  0.125604D+00
     35  0.281340D-02 -0.177249D-02  0.135581D-02 -0.288328D-02  0.108251D-01
     36  0.355813D-02 -0.529117D-02  0.700785D-02 -0.182905D-02 -0.216191D-01
     37  0.437273D-02 -0.698409D-02 -0.201696D-01  0.266468D-02 -0.261331D+00
     38  0.248636D-01 -0.350609D-01  0.592880D-01 -0.745119D-02 -0.308202D-01
     39 -0.223148D-01  0.107926D-02 -0.199181D-02 -0.170719D-01  0.134011D+00
     40  0.152040D+00  0.355166D-01 -0.775744D-01  0.396577D-01 -0.130335D+00
     41  0.549693D-01 -0.147613D+00  0.202260D+00  0.235522D-01 -0.159159D+00
     42 -0.490938D-01  0.100481D+00 -0.219632D-02 -0.167602D+00 -0.106283D+00
     43  0.340226D-01  0.199484D-02 -0.102695D+00  0.805523D-01 -0.167765D+00
     44 -0.450762D-01 -0.950312D-01  0.738886D-01 -0.105704D+00  0.118725D-02
     45  0.828699D-02  0.100106D+00 -0.153286D+00  0.505664D-01 -0.696772D-01
     46 -0.194197D-03  0.928611D-03  0.606535D-02 -0.364984D-02 -0.366824D-01
     47  0.764353D-02 -0.101303D-03 -0.464358D-02  0.469263D-02 -0.231147D-02
     48 -0.429173D-02 -0.666239D-02  0.152715D-01 -0.664710D-02  0.658691D-02
               11            12            13            14            15
     11  0.145676D+02
     12  0.267216D+00  0.135805D+02
     13  0.111996D+01  0.644251D+00  0.200388D+01
     14 -0.445083D+01  0.259127D+00 -0.121914D+01  0.434550D+01
     15  0.353567D+00 -0.472517D+01 -0.983406D+00 -0.287837D+00  0.440709D+01
     16  0.103882D+01 -0.128041D+01  0.626708D-01 -0.325540D-01  0.750479D-01
     17 -0.400817D+01 -0.220713D+01 -0.278756D-01  0.283339D-01  0.571256D-01
     18 -0.222234D+01 -0.280153D+01  0.666437D-01  0.525831D-01  0.295727D-01
     19 -0.355423D-01  0.163487D-01  0.275346D-02 -0.236738D-01  0.742814D-02
     20  0.411281D-01 -0.892083D-02 -0.117861D-01 -0.267336D-01  0.243077D-01
     21  0.513279D-01  0.400340D-01  0.991279D-02  0.256338D-01  0.443403D-02
     22  0.129160D-02  0.179528D-01 -0.916561D-02 -0.114019D-01  0.320656D-01
     23  0.442196D-01  0.837698D-01 -0.207669D-01  0.108247D-01  0.149120D-01
     24  0.156352D-01  0.674681D-01  0.261789D-01  0.115053D-01 -0.207326D-01
     25 -0.798666D-02  0.520968D-02  0.103074D+00  0.800802D-01 -0.169429D-01
     26  0.583788D-01  0.839100D-02  0.844488D-01  0.171137D-01 -0.917377D-02
     27  0.435004D-01  0.695895D-01 -0.301812D-01 -0.169637D-01 -0.314688D-01
     28 -0.252531D+01  0.457977D+00 -0.772418D-01  0.135438D+00 -0.602424D-01
     29 -0.163220D+01 -0.768312D+00  0.113799D+00  0.118045D+00  0.299880D-01
     30 -0.655937D+00 -0.523696D+01 -0.213491D-01  0.260574D-01  0.159655D+00
     31 -0.541378D-01 -0.718502D-01  0.176555D+00 -0.227322D-01  0.847884D-01
     32  0.894736D-01  0.286686D-01 -0.253481D-01 -0.466411D-01 -0.941633D-02
     33 -0.203461D-01  0.340839D-01  0.765336D-01 -0.607875D-02 -0.175386D-01
     34  0.193779D-01  0.166857D-01 -0.589177D-01  0.534541D-01  0.172988D-01
     35 -0.674129D-01 -0.772717D-01  0.535671D-01 -0.702229D-03 -0.109724D-01
     36 -0.296855D-01  0.691883D-01  0.170799D-01 -0.185711D-01  0.256032D-01
     37 -0.963259D-01  0.153130D+00 -0.458758D-01 -0.326092D-01 -0.835602D-03
     38  0.407343D+00 -0.225937D+00 -0.116472D+00  0.768608D-01 -0.715406D-01
     39 -0.307977D+00 -0.604734D-01  0.260866D-01 -0.280143D-01 -0.699991D-01
     40 -0.188684D+00  0.439221D-01 -0.710366D-01 -0.499198D-02 -0.268572D-01
     41 -0.164757D+00  0.459208D+00  0.364089D-02 -0.710408D-01  0.186007D-01
     42  0.459735D+00  0.420807D+00  0.497825D-01  0.423993D-01  0.157021D+00
     43  0.296433D-02 -0.760063D-01 -0.376123D-02  0.136189D-02  0.233600D-01
     44 -0.134302D+00 -0.102197D+00  0.789670D-02 -0.174987D-01  0.612760D-02
     45 -0.165391D+00  0.190403D+00  0.544348D-01  0.976651D-02  0.430371D-01
     46 -0.423557D-02  0.100554D-01 -0.125048D-03  0.557306D-03  0.611697D-03
     47  0.106430D-01 -0.901401D-01 -0.807325D-02 -0.333788D-02 -0.566339D-02
     48 -0.441128D-01  0.517397D-01 -0.146739D-02 -0.576808D-04 -0.355041D-02
               16            17            18            19            20
     16  0.146507D+02
     17 -0.482515D+00  0.136367D+02
     18  0.743089D+00  0.148800D+01  0.124870D+02
     19 -0.323066D+01 -0.121182D+01  0.231808D+00  0.326703D+01
     20 -0.129593D+01 -0.234143D+01 -0.318619D+00  0.130216D+01  0.211603D+01
     21  0.351371D+00 -0.461959D+00 -0.405068D+01 -0.333803D+00  0.561561D+00
     22 -0.407497D+01 -0.877586D-01 -0.138762D+00  0.434217D-01  0.457815D-01
     23 -0.690864D-01 -0.343968D+01  0.107541D+01  0.224916D-01 -0.141772D-01
     24 -0.127454D+00  0.126494D+01 -0.207434D+01  0.144861D-01 -0.343392D-01
     25 -0.181265D+01  0.865532D+00  0.588677D+00 -0.703006D-01  0.349670D-01
     26  0.968138D+00 -0.386624D+01  0.248211D+00  0.617230D-01  0.800613D-01
     27  0.377113D+00  0.147421D+00 -0.414357D+01 -0.234416D-01  0.198444D-02
     28 -0.496160D-01 -0.836118D-01  0.286420D-01 -0.267604D-01 -0.599110D-01
     29 -0.145413D+00  0.119563D+00 -0.253194D-01 -0.693892D-01  0.131940D+00
     30  0.821291D-01 -0.116987D+00 -0.504062D-01  0.365551D-01 -0.911082D-01
     31  0.145480D-01 -0.978746D-02  0.229511D-01  0.436002D-02 -0.549954D-02
     32 -0.967069D-03 -0.354537D-01  0.594858D-02  0.233071D-02 -0.383496D-02
     33  0.306033D-01 -0.884064D-02  0.115933D-01  0.234290D-02 -0.258418D-02
     34 -0.378594D-01 -0.584122D-02 -0.754078D-02  0.920921D-03 -0.853513D-02
     35 -0.902942D-03  0.617648D-01  0.860942D-02 -0.850612D-02  0.153337D-01
     36 -0.173863D-01  0.402757D-01 -0.352699D-01 -0.428848D-02  0.753926D-02
     37 -0.168513D+00  0.463027D-01 -0.338147D-01 -0.891189D-02 -0.143841D-02
     38  0.208461D-01  0.183146D+00 -0.244191D+00 -0.152203D-01  0.295420D-01
     39 -0.206648D-01 -0.270783D+00  0.138755D-01  0.906441D-02 -0.243275D-01
     40 -0.902804D-01  0.407169D-01 -0.176397D+00 -0.173173D-01  0.627038D-02
     41  0.464974D-01 -0.138831D+00 -0.119962D+00 -0.486937D-02  0.371900D-02
     42 -0.173726D+00 -0.934832D-01  0.266118D+00  0.114958D-01 -0.446412D-01
     43 -0.872968D-01  0.324021D-02 -0.217212D-01 -0.872385D-02 -0.407761D-03
     44  0.108162D-02 -0.748179D-01 -0.479622D-01 -0.252213D-02 -0.263615D-02
     45  0.893893D-03 -0.513398D-01  0.114778D+00  0.140806D-01 -0.274761D-01
     46 -0.775873D-02  0.248204D-03 -0.122206D-02 -0.688582D-03 -0.297220D-03
     47 -0.110470D-02 -0.388597D-03 -0.176728D-01 -0.368628D-02  0.544139D-02
     48  0.316378D-03 -0.638907D-02 -0.244948D-02 -0.110561D-02  0.270737D-03
               21            22            23            24            25
     21  0.379465D+01
     22  0.357619D-01  0.408701D+01
     23 -0.527555D-01  0.141198D+00  0.344093D+01
     24  0.509834D-01  0.182278D+00 -0.111763D+01  0.166055D+01
     25 -0.502488D-01  0.378920D-01 -0.373328D-01 -0.627798D-01  0.169431D+01
     26  0.164056D-01 -0.665565D-01  0.304167D-01 -0.704386D-01 -0.100368D+01
     27  0.695087D-01 -0.803254D-01 -0.521023D-01  0.105812D-01 -0.315834D+00
     28  0.319056D-01 -0.121889D-01  0.145068D-02 -0.679687D-02 -0.102500D-02
     29 -0.907769D-01 -0.245966D-02 -0.233146D-01 -0.118203D-01  0.462887D-02
     30 -0.629914D-02  0.560834D-02  0.142462D-01  0.265396D-01 -0.348587D-02
     31  0.942923D-03  0.726033D-04  0.480620D-02  0.727603D-02 -0.290431D-01
     32  0.253898D-02  0.132743D-02 -0.104694D-02  0.475478D-02 -0.893646D-03
     33  0.154597D-03 -0.965908D-03  0.563097D-02  0.423910D-02 -0.537153D-02
     34  0.179086D-02 -0.216180D-01 -0.166812D-01  0.197901D-01  0.786537D-03
     35 -0.321621D-02 -0.159743D-01  0.223137D-01 -0.543421D-01  0.504244D-02
     36 -0.430619D-02  0.683619D-02 -0.253865D-01 -0.137342D-01  0.810867D-02
     37  0.172403D-03 -0.171139D-01  0.815891D-03 -0.807317D-02  0.591355D-03
     38 -0.164609D-01  0.326039D-02 -0.117232D-01 -0.459065D-01  0.391384D-01
     39  0.185299D-03 -0.376724D-02 -0.101667D-01  0.434591D-01 -0.213042D-01
     40 -0.762793D-02 -0.722116D-02 -0.381504D-02 -0.102161D-01  0.147127D-01
     41 -0.229342D-01  0.876210D-03 -0.979647D-02 -0.274309D-02  0.163682D-01
     42  0.313575D-01 -0.710230D-02  0.153489D-01  0.315581D-01 -0.441470D-01
     43  0.112300D-02 -0.701366D-02 -0.119224D-02 -0.487486D-02  0.789273D-03
     44 -0.912326D-02 -0.170687D-03 -0.517528D-02  0.342902D-02  0.416103D-02
     45  0.164866D-01 -0.182531D-02  0.696992D-02  0.325565D-01 -0.282757D-01
     46  0.976622D-04 -0.636375D-03  0.459385D-04 -0.255969D-03 -0.236353D-03
     47 -0.327762D-02  0.437847D-03 -0.243703D-02 -0.714610D-02  0.659529D-02
     48 -0.956648D-04  0.842075D-04 -0.103130D-02 -0.868306D-03  0.958241D-03
               26            27            28            29            30
     26  0.367948D+01
     27 -0.100290D+00  0.400264D+01
     28 -0.886991D-02  0.133000D-01  0.177573D+02
     29  0.546818D-02  0.188506D-01 -0.127541D+01  0.143477D+02
     30 -0.263242D-02 -0.214203D-01  0.246961D+01  0.292751D+01  0.165327D+02
     31 -0.205047D-01  0.116549D-01 -0.224953D+01  0.125943D+01  0.127282D+01
     32  0.257520D-01 -0.367048D-01  0.997833D+00 -0.414644D+01  0.494917D+00
     33 -0.449591D-01  0.879350D-02  0.107878D+01  0.529416D+00 -0.416495D+01
     34 -0.210483D-02 -0.443651D-03 -0.431515D+01 -0.296859D+00 -0.843715D+00
     35 -0.111376D-01  0.461004D-02 -0.290000D+00 -0.421097D+01  0.100882D+01
     36  0.723135D-02  0.367344D-02 -0.739625D+00  0.879814D+00 -0.185604D+01
     37  0.178527D-01 -0.470175D-02 -0.697390D+01  0.339612D+01 -0.292768D+01
     38  0.271730D-01 -0.116426D-01  0.350658D+01 -0.453189D+01 -0.413659D+01
     39 -0.229554D-01 -0.984908D-02 -0.291965D+01 -0.397405D+01 -0.606716D+01
     40  0.120472D-01 -0.170280D-01 -0.515843D-01 -0.158755D+00 -0.254866D+00
     41 -0.870628D-02 -0.902869D-02 -0.162524D+00 -0.103237D+00  0.213349D+00
     42 -0.181318D-01  0.838207D-02 -0.234106D+00  0.196263D+00  0.999518D-01
     43  0.684539D-02 -0.641481D-02 -0.363766D+00 -0.444295D-01 -0.138924D+00
     44 -0.799295D-02 -0.626895D-02 -0.509730D-01 -0.274248D+00  0.380599D+00
     45 -0.171000D-01  0.511867D-02 -0.996344D-01  0.306329D+00  0.666335D+00
     46  0.630361D-03 -0.611041D-03  0.317565D-02 -0.343043D-02 -0.588893D-02
     47  0.328674D-02 -0.213695D-02  0.276998D-02  0.944155D-02 -0.364020D-01
     48 -0.252561D-03  0.398714D-03  0.138040D-01 -0.538360D-02 -0.232474D-01
               31            32            33            34            35
     31  0.187041D+01
     32 -0.927109D+00  0.395009D+01
     33 -0.124202D+01 -0.540958D+00  0.420724D+01
     34  0.158457D+00 -0.868935D-01 -0.175086D+00  0.427430D+01
     35 -0.123141D+00  0.105111D+00 -0.239778D+00  0.637417D+00  0.407009D+01
     36 -0.224913D+00 -0.222457D+00 -0.202123D+00  0.971699D+00 -0.106875D+01
     37  0.899937D-01 -0.279123D-01  0.326164D+00 -0.102376D+00 -0.186483D+00
     38 -0.581363D-01  0.151708D+00  0.291106D+00 -0.198371D+00 -0.453571D-01
     39  0.321475D+00  0.233019D+00  0.878883D-01  0.111995D+00  0.275329D+00
     40  0.623542D-01 -0.824103D-02 -0.184660D-01 -0.317509D-02 -0.115074D-01
     41 -0.267515D-01 -0.250049D-01  0.179796D-02 -0.975363D-02 -0.194235D-02
     42 -0.533612D-01 -0.575487D-03 -0.220193D-01 -0.226773D-01  0.234091D-01
     43  0.607881D-02 -0.396944D-02 -0.766730D-01 -0.967877D-02 -0.436965D-02
     44 -0.353686D-01 -0.840385D-01  0.198397D-01 -0.946277D-02 -0.241497D-02
     45 -0.153788D+00  0.115034D-01  0.636329D-01 -0.173824D-01  0.238297D-01
     46 -0.917344D-02 -0.637740D-02  0.302867D-01 -0.282210D-02 -0.167295D-02
     47 -0.431176D-04  0.171544D-01  0.925607D-02 -0.222575D-03 -0.119267D-01
     48  0.395643D-01  0.104137D-01 -0.229655D-01 -0.121566D-01  0.498135D-02
               36            37            38            39            40
     36  0.144402D+01
     37  0.121481D+00  0.873320D+01
     38  0.246099D+00 -0.256393D+01  0.295582D+01
     39  0.394535D+00  0.261439D+01  0.298759D+01  0.594707D+01
     40 -0.260966D-01 -0.251557D+00 -0.428650D+00 -0.232046D+00  0.851332D+01
     41  0.247326D-01 -0.405354D+00  0.450767D+00  0.503592D+00  0.158030D+01
     42  0.334977D-01 -0.244216D+00  0.564364D+00 -0.136818D+00  0.458003D+00
     43 -0.162180D-01 -0.324367D+00 -0.612800D-02 -0.148140D-01 -0.134532D+01
     44  0.362711D-01  0.223380D-01  0.136252D-01  0.423466D+00 -0.257899D+01
     45  0.545432D-01  0.256705D-01  0.290857D+00  0.545480D-01  0.321867D+01
     46 -0.118717D-01 -0.404141D+00 -0.924606D-02 -0.165787D-01 -0.484380D-01
     47 -0.428966D-02 -0.134874D-01 -0.277031D+00  0.197675D+00  0.178659D+00
     48  0.400119D-01 -0.269929D-01  0.331710D+00  0.974466D-01 -0.249032D+00
               41            42            43            44            45
     41  0.905069D+01
     42  0.452184D+01  0.400928D+01
     43 -0.265190D+01  0.319919D+01  0.913159D+01
     44 -0.346858D+01 -0.218207D+01  0.312309D+01  0.668534D+01
     45 -0.229443D+01 -0.258674D+01 -0.303479D+01 -0.860573D-01  0.678788D+01
     46  0.220743D+00 -0.163954D+00 -0.665275D+01 -0.462349D+00 -0.482097D-01
     47  0.175159D+00  0.202690D+00 -0.420132D+00 -0.251761D+01  0.219715D+01
     48  0.319695D+00  0.961704D-01  0.292768D-01  0.178297D+01 -0.575991D+01
               46            47            48
     46  0.720749D+01
     47  0.270159D+00  0.250488D+01
     48  0.210515D+00 -0.239023D+01  0.559031D+01
 ReadGW:  IGet=0 IStart=         114 Next=        7220 LGW=        7106.
 ICntrl=12127.
 Symmetry not used in FoFDir.
 MinBra= 0 MaxBra= 2 Meth= 1.
 IRaf=       0 NMat=   1 IRICut=       1 DoRegI=T DoRafI=F ISym2E= 0 JSym2E=0.
 PrsmSu:  NPrtUS=   8 ThrOK=T
 PRISM was handed    16287132 working-precision words and  2466 shell-pairs
 PRISM was handed    16287132 working-precision words and  2466 shell-pairs
 PRISM was handed    16287132 working-precision words and  2466 shell-pairs
 PRISM was handed    16287132 working-precision words and  2466 shell-pairs
 PRISM was handed    16287132 working-precision words and  2466 shell-pairs
 PRISM was handed    16287132 working-precision words and  2466 shell-pairs
 PRISM was handed    16287132 working-precision words and  2466 shell-pairs
 PRISM was handed    16287132 working-precision words and  2466 shell-pairs
 Pruned (  75, 302) grid will be used in CalDFT.
 CkSvGd:  ISavGI=        -1 IRadAn=       4 IRASav=       4 ISavGd=        -1.
 CalDSu:  NPrtUS=   8 ThrOK=T
 IPart= 0 IRanGd=          0 ScrnBf=T ScrnGd=T RCrit=4.00D+00 DoMicB=T.
 IPart= 2 IRanGd=          0 ScrnBf=T ScrnGd=T RCrit=4.00D+00 DoMicB=T.
 IPart= 4 IRanGd=          0 ScrnBf=T ScrnGd=T RCrit=4.00D+00 DoMicB=T.
 IPart= 6 IRanGd=          0 ScrnBf=T ScrnGd=T RCrit=4.00D+00 DoMicB=T.
 CutRad = 1000.00    CtRdIn =    0.00    XCrit =  15.00   ICut = 0
 IPart= 3 IRanGd=          0 ScrnBf=T ScrnGd=T RCrit=4.00D+00 DoMicB=T.
 CutRad = 1000.00    CtRdIn =    0.00    XCrit =  15.00   ICut = 0
 CutRad = 1000.00    CtRdIn =    0.00    XCrit =  15.00   ICut = 0
 IPart= 5 IRanGd=          0 ScrnBf=T ScrnGd=T RCrit=4.00D+00 DoMicB=T.
 IPart= 7 IRanGd=          0 ScrnBf=T ScrnGd=T RCrit=4.00D+00 DoMicB=T.
 CutRad = 1000.00    CtRdIn =    0.00    XCrit =  15.00   ICut = 0
 CutRad = 1000.00    CtRdIn =    0.00    XCrit =  15.00   ICut = 0
 IPart= 1 IRanGd=          0 ScrnBf=T ScrnGd=T RCrit=4.00D+00 DoMicB=T.
 CutRad = 1000.00    CtRdIn =    0.00    XCrit =  15.00   ICut = 0
 CutRad = 1000.00    CtRdIn =    0.00    XCrit =  15.00   ICut = 0
 CutRad = 1000.00    CtRdIn =    0.00    XCrit =  15.00   ICut = 0
 IPart= 1        14059 of        16634 points in      36 batches and      113 microbatches, Max-NSigAt=      16 Max-NSgAt2=      16
 IPart= 6        13776 of        15758 points in      33 batches and       97 microbatches, Max-NSigAt=      16 Max-NSgAt2=      16
 IPart= 2        15213 of        17178 points in      33 batches and       91 microbatches, Max-NSigAt=      16 Max-NSgAt2=      16
 IPart= 3        14127 of        16206 points in      33 batches and      102 microbatches, Max-NSigAt=      16 Max-NSgAt2=      16
 IPart= 0        13754 of        15482 points in      32 batches and       92 microbatches, Max-NSigAt=      16 Max-NSgAt2=      16
 IPart= 5        13173 of        15370 points in      32 batches and       99 microbatches, Max-NSigAt=      16 Max-NSgAt2=      16
 IPart= 4        14085 of        15722 points in      31 batches and       86 microbatches, Max-NSigAt=      16 Max-NSgAt2=      16
 IPart= 7        13747 of        15586 points in      33 batches and       93 microbatches, Max-NSigAt=      16 Max-NSgAt2=      16
 Polarizability after L703:
                1             2             3
      1  0.516994D+02
      2 -0.378440D+01  0.648204D+02
      3 -0.127363D+01 -0.616981D+01  0.657855D+02
 Dipole Derivatives after L703:
               1            2            3            4            5
      1 0.261866D+00 0.442127D-01-0.971169D-01-0.779307D-01-0.290370D-01
      2 0.157101D+00 0.227707D+00 0.411138D-01-0.119634D+00 0.181711D-01
      3-0.164408D+00 0.512988D-02 0.596607D+00 0.860109D-02-0.182311D-01
               6            7            8            9           10
      1-0.304425D-01 0.156148D-02 0.881831D-01-0.858799D-02 0.126055D+00
      2-0.220785D-01 0.853051D-01-0.591429D-01 0.300819D-01-0.261548D+00
      3-0.686084D-02-0.909206D-02 0.331218D-01 0.167064D-02 0.206984D+00
              11           12           13           14           15
      1-0.903770D-02 0.982685D-01-0.872564D-01-0.496315D-01-0.106848D-01
      2 0.412109D+00-0.107243D+00-0.165380D-01-0.382753D-01 0.320253D-02
      3-0.157707D+00 0.642043D-01-0.409753D-01-0.114885D-01 0.101409D-01
              16           17           18           19           20
      1 0.101771D+00 0.113489D-02 0.355287D-01-0.628288D-02 0.772990D-01
      2 0.943043D-01 0.132988D-01 0.773002D-02 0.738538D-01-0.728195D-01
      3-0.600756D-01 0.412997D-01 0.276486D-01 0.596553D-02 0.573611D-01
              21           22           23           24           25
      1 0.965489D-02 0.708573D-01-0.442121D-03 0.238573D-01-0.102438D+00
      2 0.338945D-01-0.156577D-01 0.792306D-02-0.527178D-01-0.813250D-01
      3 0.462479D-01 0.342211D-01-0.105680D+00-0.965774D-01-0.118149D-01
              26           27           28           29           30
      1-0.461587D-01-0.738320D-01 0.308316D+00 0.129273D+00-0.193838D+00
      2 0.425418D-01-0.178503D-01 0.656735D-01-0.328909D+00 0.369503D+00
      3 0.879645D-02 0.360769D-01-0.239104D+00 0.197440D+00 0.185898D+00
              31           32           33           34           35
      1-0.782484D-01-0.821468D-01-0.558333D-01 0.389375D-01 0.183541D-01
      2-0.697429D-01 0.828118D-01-0.599237D-02-0.165927D-01 0.375806D-01
      3-0.297887D-01-0.509252D-01 0.297824D-01 0.115374D+00-0.703117D-01
              36           37           38           39           40
      1 0.842190D-01-0.276318D+00-0.676861D-01 0.130447D+00-0.214948D+00
      2-0.987575D-01 0.125942D+00-0.917358D-01-0.198800D+00-0.757505D-01
      3-0.138872D+00 0.401146D-01-0.377450D-01-0.308164D+00 0.228418D+00
              41           42           43           44           45
      1-0.948028D-01 0.535668D-01-0.272168D+00 0.510236D-01 0.154780D+00
      2-0.257111D+00-0.401236D-01 0.538643D-01-0.302999D+00 0.795858D-01
      3-0.740209D-01-0.524680D+00 0.181007D-01 0.116265D+00-0.361020D+00
              46           47           48
      1 0.206226D+00-0.305380D-01-0.119986D+00
      2 0.744368D-03 0.308849D+00-0.215491D-01
      3-0.102520D+00 0.666956D-01 0.437897D+00
 Hessian after L703:
                1             2             3             4             5
      1  0.609247D+00
      2 -0.233440D-01  0.508550D+00
      3  0.639968D-01 -0.593850D-02  0.438869D+00
      4 -0.235966D+00 -0.854118D-01 -0.684246D-01  0.259215D+00
      5 -0.791341D-01 -0.867385D-01 -0.335204D-01  0.975063D-01  0.939091D-01
      6 -0.754256D-01 -0.343700D-01 -0.733218D-01  0.683012D-01  0.330940D-01
      7 -0.163315D+00  0.122110D+00 -0.348172D-01 -0.149662D-01  0.195990D-01
      8  0.118184D+00 -0.178784D+00  0.341402D-01 -0.729531D-02  0.112198D-01
      9 -0.283979D-01  0.315849D-01 -0.527616D-01 -0.582244D-02  0.587466D-02
     10 -0.780722D-01 -0.295087D-02 -0.861906D-03  0.316504D-02 -0.169393D-01
     11 -0.179797D-02 -0.115196D+00 -0.535346D-01  0.293009D-02 -0.836514D-02
     12 -0.269806D-02 -0.495561D-01 -0.122784D+00  0.166167D-02 -0.912124D-02
     13  0.292364D-02  0.161005D-02  0.231160D-02  0.967278D-03  0.221026D-03
     14 -0.174387D-01 -0.880977D-02 -0.658896D-02  0.697520D-03 -0.129779D-02
     15 -0.261389D-01 -0.128847D-01 -0.101750D-01  0.125310D-02 -0.311263D-02
     16 -0.194645D-02 -0.136903D-02  0.487497D-02  0.484526D-03 -0.145773D-03
     17  0.296826D-02  0.129919D-01 -0.475717D-02  0.270307D-03  0.141446D-03
     18  0.116820D-01  0.156640D-01 -0.262552D-01 -0.309036D-03  0.625326D-03
     19 -0.188870D-04  0.102793D-04  0.752035D-03 -0.997615D-04  0.142822D-03
     20  0.825544D-03 -0.106435D-03 -0.118572D-02 -0.783969D-04  0.537715D-04
     21 -0.939611D-03  0.120775D-02  0.229581D-03 -0.815750D-04 -0.838468D-04
     22 -0.686551D-03 -0.226105D-02  0.644240D-03  0.233034D-03  0.279802D-03
     23 -0.272452D-03 -0.284627D-02  0.646242D-03  0.180659D-03  0.611189D-04
     24  0.104843D-02  0.504576D-02 -0.346699D-03 -0.187616D-03  0.829843D-04
     25 -0.233082D-03 -0.481946D-03 -0.140040D-02  0.314153D-03  0.436006D-03
     26  0.811862D-03  0.430915D-04 -0.812161D-03  0.991444D-04  0.507791D-03
     27  0.146195D-02  0.827231D-03  0.149584D-02 -0.545730D-03 -0.210589D-03
     28 -0.739964D-02  0.926801D-02 -0.984911D-03  0.121096D-02 -0.213867D-02
     29  0.185459D-01 -0.257584D-01  0.559174D-02 -0.886513D-04  0.718982D-03
     30  0.927851D-02 -0.165485D-01 -0.222924D-02  0.808450D-03  0.538202D-03
     31  0.123180D-03 -0.191043D-02 -0.656099D-03  0.190138D-03  0.881973D-03
     32  0.543822D-03  0.242498D-02 -0.118701D-03 -0.634895D-03 -0.209065D-03
     33  0.287733D-02 -0.539346D-03  0.187943D-02 -0.162479D-04  0.933127D-04
     34 -0.772577D-03  0.144855D-02 -0.889221D-03  0.349370D-04  0.237741D-03
     35  0.331333D-02 -0.260715D-02  0.237967D-02 -0.485897D-04  0.262584D-03
     36  0.351591D-03  0.743929D-03  0.883510D-03 -0.683508D-04  0.158622D-03
     37  0.253750D-03  0.811208D-03 -0.448821D-03  0.312978D-04  0.185290D-03
     38 -0.326363D-02  0.463261D-02 -0.357501D-02  0.202279D-03  0.218260D-03
     39  0.409416D-02 -0.271151D-02  0.203307D-02 -0.434602D-03  0.117699D-03
     40 -0.130840D+00 -0.198525D-01  0.384594D-01 -0.187070D-01 -0.197101D-01
     41 -0.450691D-01 -0.823297D-01  0.481350D-01 -0.116834D-01 -0.128691D-01
     42  0.718886D-01  0.432883D-01 -0.136845D+00  0.488262D-02  0.834054D-02
     43  0.771777D-02  0.133099D-02 -0.272742D-02  0.413046D-02 -0.135948D-02
     44  0.257413D-01 -0.205212D-01  0.145752D-01  0.266554D-02  0.246750D-02
     45 -0.285248D-01  0.207707D-01 -0.254762D-01 -0.143316D-02 -0.276211D-02
     46 -0.101542D-02  0.992623D-03  0.171579D-03 -0.237833D-03 -0.624170D-04
     47 -0.613628D-03 -0.494549D-02  0.456303D-02  0.689252D-03 -0.808133D-04
     48 -0.455457D-02  0.341600D-02  0.480412D-02  0.416301D-03 -0.114595D-03
                6             7             8             9            10
      6  0.845759D-01
      7 -0.440726D-02  0.166750D+00
      8 -0.281123D-02 -0.132389D+00  0.198649D+00
      9 -0.974759D-03  0.337687D-01 -0.444466D-01  0.722009D-01
     10 -0.232193D-01 -0.211572D-02  0.148445D-01  0.157299D-01  0.523684D+00
     11 -0.112435D-01  0.217481D-02 -0.155961D-01 -0.180384D-01  0.856828D-01
     12 -0.886679D-02 -0.223464D-02  0.494289D-03  0.284017D-02  0.192185D-01
     13  0.145019D-02  0.852624D-03 -0.512174D-03 -0.432893D-03 -0.251248D+00
     14 -0.291349D-02 -0.105351D-03  0.300247D-03  0.322328D-03 -0.867789D-01
     15 -0.405118D-02  0.567166D-03  0.586399D-03  0.102791D-02 -0.603998D-01
     16 -0.998152D-03 -0.117755D-03 -0.372057D-03  0.270477D-03 -0.894070D-01
     17 -0.448286D-03  0.514113D-03  0.204779D-03 -0.782933D-03 -0.257711D-01
     18  0.148408D-02 -0.289992D-03  0.114129D-02  0.952739D-03  0.278420D-01
     19 -0.145114D-04  0.252271D-03 -0.980471D-04  0.671038D-04  0.682224D-02
     20  0.329734D-04 -0.279143D-03  0.750168D-03  0.356416D-03  0.103576D-01
     21 -0.493989D-05  0.527298D-03 -0.291941D-03 -0.651780D-03 -0.142953D-01
     22  0.283844D-03  0.688267D-04 -0.350644D-03 -0.254821D-03 -0.222124D-02
     23  0.131728D-03 -0.323852D-03  0.176627D-03  0.128094D-03 -0.895166D-04
     24  0.273729D-03  0.145498D-03 -0.121507D-03  0.250162D-03  0.105174D-02
     25  0.816400D-03 -0.110586D-04 -0.859660D-04 -0.552060D-04 -0.116012D-01
     26  0.333861D-03  0.862030D-04  0.399528D-04  0.316423D-04 -0.180693D-01
     27 -0.304175D-03 -0.303878D-04 -0.195493D-04 -0.411704D-04  0.242272D-01
     28 -0.776625D-03  0.183306D-03 -0.199357D-03  0.163865D-02 -0.774832D-01
     29  0.542157D-03 -0.663705D-03 -0.131293D-02 -0.443012D-02 -0.485856D-02
     30  0.824299D-03  0.134250D-02 -0.182972D-02 -0.164594D-02  0.219974D-01
     31  0.744984D-03  0.527474D-03  0.549531D-04 -0.108348D-03 -0.184996D-01
     32 -0.236162D-03 -0.159440D-03  0.342311D-03  0.526415D-03  0.249547D-01
     33  0.286791D-03  0.137924D-03 -0.682522D-04 -0.603376D-03 -0.992145D-02
     34  0.119789D-03  0.978053D-04  0.444374D-03  0.280178D-03 -0.801138D-02
     35  0.286547D-03  0.544463D-03 -0.800538D-03 -0.127170D-02  0.667869D-02
     36  0.890788D-04  0.369064D-04 -0.419772D-04  0.313973D-05 -0.332286D-02
     37  0.319176D-03  0.331084D-03  0.188560D-04  0.213592D-03  0.817204D-02
     38  0.271819D-03  0.383268D-03  0.644250D-03  0.145029D-02  0.816764D-02
     39 -0.180263D-03 -0.174554D-03 -0.727094D-03 -0.863491D-03 -0.148316D-01
     40  0.312613D-01  0.913392D-02  0.104223D-01 -0.178294D-01 -0.535779D-02
     41  0.197284D-01 -0.854030D-02 -0.140475D-01  0.213409D-01  0.634853D-02
     42 -0.232246D-02  0.380573D-02  0.138562D-01 -0.144555D-01  0.187928D-01
     43  0.204268D-02  0.192714D-02 -0.298739D-02  0.127767D-02  0.270770D-03
     44 -0.231593D-02 -0.278294D-02 -0.173891D-02  0.782846D-02  0.389740D-03
     45  0.273772D-02  0.120245D-02 -0.319687D-03 -0.309716D-02 -0.182251D-03
     46 -0.498125D-03  0.401461D-03  0.321817D-03 -0.345352D-03  0.190334D-02
     47 -0.829307D-04 -0.167649D-03 -0.476163D-04 -0.474330D-03 -0.196663D-02
     48 -0.245254D-03  0.419843D-03  0.459180D-03 -0.218024D-02 -0.182522D-02
               11            12            13            14            15
     11  0.427191D+00
     12  0.264877D-01  0.444419D+00
     13 -0.884194D-01 -0.616562D-01  0.273182D+00
     14 -0.807933D-01 -0.281317D-01  0.912962D-01  0.953143D-01
     15 -0.273432D-01 -0.660224D-01  0.649884D-01  0.279443D-01  0.741664D-01
     16 -0.257599D-01  0.267354D-01 -0.982893D-02 -0.159214D-01  0.248227D-01
     17 -0.104437D+00  0.378377D-01 -0.421511D-02 -0.698585D-02  0.104111D-01
     18  0.383175D-01 -0.131122D+00 -0.226987D-02 -0.345552D-02  0.564448D-02
     19 -0.972695D-02  0.159160D-02  0.641603D-03  0.133394D-03 -0.691511D-03
     20 -0.150622D-01  0.349722D-02 -0.271212D-03  0.226643D-03 -0.480386D-03
     21  0.188549D-01 -0.556158D-02  0.195995D-04 -0.548683D-03  0.904721D-03
     22  0.761539D-02  0.108084D-01  0.218205D-03  0.541430D-03 -0.155009D-03
     23  0.100177D-01  0.186697D-01  0.444558D-03  0.776396D-03 -0.797234D-03
     24 -0.129331D-01 -0.213272D-01  0.111331D-03  0.763340D-04  0.110196D-02
     25 -0.377670D-02 -0.161507D-02  0.786133D-03 -0.103898D-02  0.206164D-02
     26 -0.862018D-02 -0.371151D-02 -0.116522D-02 -0.116484D-02  0.346154D-02
     27  0.869162D-02  0.591211D-02  0.187277D-02  0.264232D-02 -0.371465D-02
     28  0.395518D-01 -0.152874D-02 -0.181084D-01  0.228895D-01 -0.600171D-02
     29 -0.387884D-01 -0.265511D-02  0.130593D-02  0.576654D-03  0.107590D-02
     30 -0.192507D-01 -0.403770D-01 -0.804641D-02  0.100292D-01 -0.313105D-02
     31 -0.117714D-02 -0.941953D-02 -0.121862D-02  0.256046D-02 -0.671992D-03
     32 -0.973558D-05  0.111714D-01  0.229651D-02 -0.320034D-02  0.811086D-03
     33 -0.438389D-02 -0.513241D-02 -0.291396D-03  0.130576D-02  0.453591D-03
     34  0.107579D-01  0.965902D-02  0.509465D-03 -0.958289D-03  0.557609D-03
     35 -0.151714D-01 -0.202642D-01 -0.175711D-03  0.101585D-02  0.107073D-03
     36  0.252558D-02 -0.126371D-03  0.484334D-03 -0.299011D-03  0.365252D-03
     37 -0.139113D-01 -0.717871D-02 -0.712632D-03  0.292908D-02 -0.481346D-03
     38 -0.492852D-01  0.218331D-01 -0.298748D-02  0.313091D-02 -0.115924D-02
     39  0.249484D-01 -0.155688D-01  0.213641D-02 -0.137924D-02  0.669784D-03
     40 -0.563229D-02  0.142852D-01  0.119326D-02  0.873047D-03  0.249956D-03
     41  0.134355D-01 -0.364984D-02  0.782467D-03  0.948565D-03  0.103071D-02
     42  0.221051D-01 -0.388530D-01 -0.834291D-03  0.103710D-02  0.294464D-02
     43  0.126124D-02  0.226609D-03  0.342921D-04  0.474073D-04  0.270159D-03
     44 -0.256927D-02 -0.284639D-02 -0.223047D-03  0.209373D-03  0.407796D-03
     45 -0.399053D-03  0.181338D-02 -0.431258D-04  0.109927D-03 -0.105309D-03
     46  0.227703D-03  0.214451D-02 -0.192484D-03  0.273587D-03 -0.230553D-03
     47  0.325058D-02 -0.549568D-04  0.126148D-04 -0.247046D-03 -0.586152D-04
     48  0.519565D-02  0.757559D-03  0.199537D-03 -0.150660D-03 -0.791597D-04
               16            17            18            19            20
     16  0.548305D+00
     17 -0.241722D-01  0.528049D+00
     18  0.275083D-01  0.523236D-01  0.510389D+00
     19 -0.139882D+00  0.122959D+00 -0.235626D-01  0.149155D+00
     20  0.123097D+00 -0.207751D+00  0.300719D-01 -0.134821D+00  0.226263D+00
     21 -0.235061D-01  0.301605D-01 -0.512444D-01  0.237312D-01 -0.357434D-01
     22 -0.470203D-01  0.500435D-02  0.850229D-02 -0.102342D-02  0.995599D-02
     23  0.548423D-02 -0.120536D+00 -0.120988D+00 -0.543869D-04 -0.131773D-01
     24  0.871077D-02 -0.119072D+00 -0.236318D+00  0.176252D-03  0.274502D-02
     25 -0.264107D+00 -0.779070D-01 -0.526666D-01 -0.170350D-01 -0.662918D-02
     26 -0.773049D-01 -0.756116D-01 -0.197157D-01  0.237967D-01  0.992268D-02
     27 -0.536528D-01 -0.195880D-01 -0.610512D-01 -0.355003D-02 -0.171444D-02
     28  0.261404D-02 -0.456823D-02  0.137692D-02  0.961460D-04 -0.223431D-02
     29  0.180352D-01 -0.263416D-01  0.850518D-02 -0.317702D-02 -0.212066D-02
     30 -0.166040D-01  0.202644D-01 -0.678899D-02  0.207199D-02  0.175387D-02
     31 -0.160217D-03 -0.567794D-03  0.587621D-03  0.277214D-03  0.255875D-03
     32 -0.348776D-03  0.147573D-02 -0.607406D-03 -0.261289D-05  0.227898D-03
     33  0.607010D-03 -0.886047D-03 -0.319837D-03  0.183851D-03  0.145600D-03
     34  0.110844D-02 -0.197710D-03  0.123982D-02  0.196265D-04 -0.205308D-03
     35 -0.261986D-03  0.662352D-03 -0.168464D-02 -0.652408D-04  0.475492D-03
     36 -0.794145D-03  0.177901D-02  0.420832D-03  0.869318D-04  0.256846D-03
     37 -0.119342D-02  0.304573D-02 -0.954918D-03  0.699422D-03  0.652543D-03
     38 -0.113440D-02 -0.113506D-02  0.215285D-02  0.873954D-03 -0.616918D-04
     39  0.121800D-02  0.975772D-03 -0.500283D-03 -0.332698D-03  0.587289D-03
     40  0.104284D-02  0.335703D-02  0.156042D-02  0.268695D-03 -0.424497D-03
     41 -0.523238D-03 -0.378719D-03 -0.209202D-02  0.981531D-04  0.181548D-03
     42 -0.392382D-03 -0.711373D-02 -0.491243D-02 -0.275693D-03  0.249315D-03
     43  0.389123D-03 -0.436008D-03 -0.197275D-03 -0.782136D-04 -0.167340D-03
     44 -0.455062D-04  0.708691D-03  0.261318D-03  0.673195D-04  0.398606D-03
[...]
   Z10        2.25946   0.00000   0.00000  -0.00023  -0.00003   2.25944
   X11       -4.81546   0.00000   0.00000   0.00075   0.00080  -4.81466
   Y11        3.59035   0.00000   0.00000   0.00004   0.00027   3.59062
   Z11        1.31010  -0.00002   0.00000  -0.00134  -0.00103   1.30907
   X12       -3.57944  -0.00001   0.00000  -0.00083  -0.00046  -3.57990
   Y12        5.09240   0.00001   0.00000  -0.00048  -0.00043   5.09197
   Z12        4.12927  -0.00001   0.00000  -0.00035  -0.00008   4.12918
   X13       -1.86898   0.00000   0.00000   0.00082   0.00100  -1.86797
   Y13        6.04443   0.00000   0.00000   0.00027   0.00030   6.04473
   Z13        0.80506  -0.00002   0.00000   0.00072   0.00089   0.80595
   X14        0.16911   0.00002   0.00000  -0.00050  -0.00083   0.16828
   Y14        1.64943  -0.00001   0.00000  -0.00016  -0.00019   1.64924
   Z14       -1.77995   0.00001   0.00000  -0.00047  -0.00060  -1.78055
   X15       -1.81407   0.00002   0.00000  -0.00097  -0.00132  -1.81538
   Y15        2.86129  -0.00002   0.00000   0.00020   0.00035   2.86164
   Z15       -3.23323  -0.00001   0.00000   0.00040   0.00047  -3.23276
   X16       -1.85682   0.00001   0.00000   0.00014  -0.00003  -1.85685
   Y16        4.50835  -0.00002   0.00000   0.00035   0.00048   4.50883
   Z16       -2.39905  -0.00001   0.00000   0.00010   0.00022  -2.39883
         Item               Value     Threshold  Converged?
 Maximum Force            0.000023     0.000450     YES
 RMS     Force            0.000012     0.000300     YES
 Maximum Displacement     0.001317     0.001800     YES
 RMS     Displacement     0.000546     0.001200     YES
 Predicted change in Energy=-3.727414D-08
 Optimization completed.
    -- Stationary point found.
 GradGradGradGradGradGradGradGradGradGradGradGradGradGradGradGradGradGrad


 Test job not archived.
 1\1\GINC-NODE10\Freq\UB3LYP\CBSB7\C4H9O3(2)\SHAMEL\18-Jun-2013\0\\# fr
 eq nosymm b3lyp/cbsb7 iop(7/33=1)\\Title Card Required\\0,2\C,-0.50178
 ,0.198682,0.156088\H,-1.448409,-0.250778,-0.163071\H,0.205129,-0.60735
 3,0.384847\C,-0.687967,1.046858,1.421487\H,0.284546,1.457046,1.708337\
 C,-1.244548,0.193815,2.566406\H,-0.600192,-0.672723,2.738289\H,-1.2956
 45,0.759997,3.498419\H,-2.247981,-0.176543,2.336158\C,-1.647019,2.2859
 2,1.195656\H,-2.548232,1.899932,0.693276\H,-1.894156,2.69478,2.185114\
 O,-0.98902,3.198576,0.426019\O,0.089487,0.872841,-0.941909\O,-0.959963
 ,1.514127,-1.710949\H,-0.982587,2.385714,-1.26952\\Version=AM64L-G03Re
 vD.01\HF=-383.4544206\S2=0.753712\S2-1=0.\S2A=0.75001\RMSD=3.527e-09\R
 MSF=1.155e-05\ZeroPoint=0.1320548\Thermal=0.140109\Dipole=-0.5438635,-
 0.4661685,1.4603373\DipoleDeriv=0.261866,0.1571014,-0.1644084,0.044212
 7,0.2277072,0.0051299,-0.0971169,0.0411138,0.596607,-0.0779307,-0.1196
 338,0.0086011,-0.029037,0.0181711,-0.0182311,-0.0304425,-0.0220785,-0.
 0068608,0.0015615,0.0853051,-0.0090921,0.0881831,-0.0591429,0.0331218,
 -0.008588,0.0300819,0.0016706,0.1260553,-0.2615482,0.2069844,-0.009037
 7,0.4121091,-0.1577067,0.0982685,-0.1072426,0.0642043,-0.0872564,-0.01
 6538,-0.0409753,-0.0496315,-0.0382753,-0.0114885,-0.0106848,0.0032025,
 0.0101409,0.1017706,0.0943043,-0.0600756,0.0011349,0.0132988,0.0412997
 ,0.0355287,0.00773,0.0276486,-0.0062829,0.0738538,0.0059655,0.077299,-
 0.0728195,0.0573611,0.0096549,0.0338945,0.0462479,0.0708573,-0.0156577
 ,0.0342211,-0.0004421,0.0079231,-0.10568,0.0238573,-0.0527178,-0.09657
 74,-0.1024376,-0.081325,-0.0118149,-0.0461587,0.0425418,0.0087965,-0.0
 73832,-0.0178503,0.0360769,0.3083158,0.0656735,-0.2391039,0.1292733,-0
 .3289092,0.1974398,-0.1938385,0.3695033,0.1858979,-0.0782484,-0.069742
 9,-0.0297887,-0.0821468,0.0828118,-0.0509252,-0.0558333,-0.0059924,0.0
 297824,0.0389375,-0.0165927,0.1153736,0.0183541,0.0375806,-0.0703117,0
 .084219,-0.0987575,-0.1388716,-0.2763179,0.1259419,0.0401146,-0.067686
 1,-0.0917358,-0.037745,0.1304468,-0.1988001,-0.3081643,-0.2149483,-0.0
 757505,0.2284181,-0.0948028,-0.2571108,-0.0740209,0.0535668,-0.0401236
 ,-0.5246799,-0.2721683,0.0538643,0.0181007,0.0510236,-0.3029989,0.1162
 65,0.1547796,0.0795858,-0.3610195,0.2062264,0.0007444,-0.1025202,-0.03
 0538,0.3088491,0.0666956,-0.1199857,-0.0215491,0.4378971\Polar=51.6993
 946,-3.7844049,64.8204434,-1.2736268,-6.1698125,65.7854804\PG=C01 [X(C
 4H9O3)]\NImag=0\\0.60924674,-0.02334403,0.50855031,0.06399682,-0.00593
 850,0.43886910,-0.23596559,-0.08541183,-0.06842459,0.25921454,-0.07913
 413,-0.08673845,-0.03352037,0.09750626,0.09390906,-0.07542560,-0.03436
 998,-0.07332178,0.06830122,0.03309404,0.08457590,-0.16331497,0.1221099
 5,-0.03481722,-0.01496617,0.01959901,-0.00440726,0.16674976,0.11818359
 ,-0.17878358,0.03414020,-0.00729531,0.01121984,-0.00281123,-0.13238943
 ,0.19864899,-0.02839789,0.03158495,-0.05276164,-0.00582244,0.00587466,
 -0.00097476,0.03376873,-0.04444658,0.07220090,-0.07807222,-0.00295087,
 -0.00086191,0.00316504,-0.01693934,-0.02321927,-0.00211572,0.01484452,
 0.01572994,0.52368366,-0.00179797,-0.11519646,-0.05353455,0.00293009,-
 0.00836514,-0.01124351,0.00217481,-0.01559611,-0.01803845,0.08568282,0
 .42719106,-0.00269806,-0.04955605,-0.12278429,0.00166167,-0.00912124,-
 0.00886679,-0.00223464,0.00049429,0.00284017,0.01921850,0.02648766,0.4
 4441898,0.00292364,0.00161005,0.00231160,0.00096728,0.00022103,0.00145
 019,0.00085262,-0.00051217,-0.00043289,-0.25124784,-0.08841939,-0.0616
 5616,0.27318237,-0.01743865,-0.00880977,-0.00658896,0.00069752,-0.0012
 9779,-0.00291349,-0.00010535,0.00030025,0.00032233,-0.08677892,-0.0807
 9334,-0.02813175,0.09129619,0.09531434,-0.02613887,-0.01288468,-0.0101
 7498,0.00125310,-0.00311263,-0.00405118,0.00056717,0.00058640,0.001027
 91,-0.06039977,-0.02734317,-0.06602241,0.06498839,0.02794433,0.0741664
 1,-0.00194645,-0.00136903,0.00487497,0.00048453,-0.00014577,-0.0009981
 5,-0.00011776,-0.00037206,0.00027048,-0.08940698,-0.02575988,0.0267353
 9,-0.00982893,-0.01592145,0.02482273,0.54830469,0.00296826,0.01299186,
 -0.00475717,0.00027031,0.00014145,-0.00044829,0.00051411,0.00020478,-0
 .00078293,-0.02577106,-0.10443741,0.03783770,-0.00421511,-0.00698585,0
 .01041112,-0.02417215,0.52804904,0.01168205,0.01566401,-0.02625525,-0.
 00030904,0.00062533,0.00148408,-0.00028999,0.00114129,0.00095274,0.027
 84204,0.03831754,-0.13112231,-0.00226987,-0.00345552,0.00564448,0.0275
 0831,0.05232361,0.51038917,-0.00001889,0.00001028,0.00075203,-0.000099
 76,0.00014282,-0.00001451,0.00025227,-0.00009805,0.00006710,0.00682224
 ,-0.00972695,0.00159160,0.00064160,0.00013339,-0.00069151,-0.13988232,
 0.12295915,-0.02356258,0.14915464,0.00082554,-0.00010644,-0.00118572,-
 0.00007840,0.00005377,0.00003297,-0.00027914,0.00075017,0.00035642,0.0
 1035762,-0.01506220,0.00349722,-0.00027121,0.00022664,-0.00048039,0.12
 309725,-0.20775072,0.03007195,-0.13482102,0.22626264,-0.00093961,0.001
 20775,0.00022958,-0.00008157,-0.00008385,-0.00000494,0.00052730,-0.000
 29194,-0.00065178,-0.01429531,0.01885491,-0.00556158,0.00001960,-0.000
 54868,0.00090472,-0.02350610,0.03016045,-0.05124435,0.02373122,-0.0357
 4338,0.05516733,-0.00068655,-0.00226105,0.00064424,0.00023303,0.000279
 80,0.00028384,0.00006883,-0.00035064,-0.00025482,-0.00222124,0.0076153
 9,0.01080843,0.00021820,0.00054143,-0.00015501,-0.04702026,0.00500435,
 0.00850229,-0.00102342,0.00995599,0.01733835,0.04735434,-0.00027245,-0
 .00284627,0.00064624,0.00018066,0.00006112,0.00013173,-0.00032385,0.00
 017663,0.00012809,-0.00008952,0.01001774,0.01866968,0.00044456,0.00077
 640,-0.00079723,0.00548423,-0.12053620,-0.12098804,-0.00005439,-0.0131
 7731,-0.02142873,-0.00516483,0.13027512,0.00104843,0.00504576,-0.00034
 670,-0.00018762,0.00008298,0.00027373,0.00014550,-0.00012151,0.0002501
 6,0.00105174,-0.01293309,-0.02132722,0.00011133,0.00007633,0.00110196,
 0.00871077,-0.11907184,-0.23631792,0.00017625,0.00274502,0.00518603,-0
 .01170897,0.12859881,0.25761628,-0.00023308,-0.00048195,-0.00140040,0.
 00031415,0.00043601,0.00081640,-0.00001106,-0.00008597,-0.00005521,-0.
 01160116,-0.00377670,-0.00161507,0.00078613,-0.00103898,0.00206164,-0.
 26410663,-0.07790701,-0.05266655,-0.01703501,-0.00662918,-0.00429424,0
 .00249431,0.00111825,0.00003926,0.28752766,0.00081186,0.00004309,-0.00
 081216,0.00009914,0.00050779,0.00033386,0.00008620,0.00003995,0.000031
 64,-0.01806932,-0.00862018,-0.00371151,-0.00116522,-0.00116484,0.00346
 154,-0.07730495,-0.07561162,-0.01971568,0.02379673,0.00992268,0.005819
 47,-0.01608867,-0.00590686,-0.00317470,0.08810762,0.07972253,0.0014619
 5,0.00082723,0.00149584,-0.00054573,-0.00021059,-0.00030417,-0.0000303
 9,-0.00001955,-0.00004117,0.02422723,0.00869162,0.00591211,0.00187277,
 0.00264232,-0.00371465,-0.05365283,-0.01958804,-0.06105116,-0.00355003
 ,-0.00171444,-0.00197135,-0.02586250,-0.00768485,-0.00541193,0.0566511
 8,0.01841954,0.06414740,-0.00739964,0.00926801,-0.00098491,0.00121096,
 -0.00213867,-0.00077663,0.00018331,-0.00019936,0.00163865,-0.07748316,
 0.03955177,-0.00152874,-0.01810838,0.02288954,-0.00600171,0.00261404,-
 0.00456823,0.00137692,0.00009615,-0.00223431,0.00150461,0.00027306,-0.
 00052501,0.00054001,0.00046119,-0.00124822,0.00092534,0.45375865,0.018
 54590,-0.02575836,0.00559174,-0.00008865,0.00071898,0.00054216,-0.0006
 6370,-0.00131293,-0.00443012,-0.00485856,-0.03878839,-0.00265511,0.001
 30593,0.00057665,0.00107590,0.01803515,-0.02634163,0.00850518,-0.00317
 702,-0.00212066,0.00289917,-0.00010601,0.00144665,-0.00154115,-0.00004
 508,0.00106292,-0.00083398,0.07584407,0.32740067,0.00927851,-0.0165485
 2,-0.00222924,0.00080845,0.00053820,0.00082430,0.00134250,-0.00182972,
 -0.00164594,0.02199742,-0.01925072,-0.04037695,-0.00804641,0.01002921,
 -0.00313105,-0.01660396,0.02026443,-0.00678899,0.00207199,0.00175387,-
 0.00443551,0.00003939,0.00089433,-0.00138341,0.00005994,-0.00101459,0.
 00129068,-0.03706026,0.08440475,0.51323246,0.00012318,-0.00191043,-0.0
 0065610,0.00019014,0.00088197,0.00074498,0.00052747,0.00005495,-0.0001
 0835,-0.01849959,-0.00117714,-0.00941953,-0.00121862,0.00256046,-0.000
 67199,-0.00016022,-0.00056779,0.00058762,0.00027721,0.00025587,0.00008
 400,0.00011187,0.00003704,0.00005742,0.00059887,0.00035734,-0.00036384
 ,-0.19906197,-0.06540956,-0.09444254,0.22347185,0.00054382,0.00242498,
 -0.00011870,-0.00063489,-0.00020907,-0.00023616,-0.00015944,0.00034231
 ,0.00052641,0.02495466,-0.00000974,0.01117139,0.00229651,-0.00320034,0
 .00081109,-0.00034878,0.00147573,-0.00060741,-0.00000261,0.00022790,-0
 .00039101,0.00006122,-0.00015808,0.00004150,-0.00041851,-0.00017478,0.
 00004013,-0.06189335,-0.05484292,-0.05012003,0.07683471,0.08224064,0.0
 0287733,-0.00053935,0.00187943,-0.00001625,0.00009331,0.00028679,0.000
 13792,-0.00006825,-0.00060338,-0.00992145,-0.00438389,-0.00513241,-0.0
 0029140,0.00130576,0.00045359,0.00060701,-0.00088605,-0.00031984,0.000
 18385,0.00014560,0.00047785,-0.00023409,0.00004307,0.00030567,0.000197
 04,0.00057593,-0.00014072,-0.08116706,-0.03960648,-0.10627686,0.098015
 23,0.03967469,0.11098008,-0.00077258,0.00144855,-0.00088922,0.00003494
 ,0.00023774,0.00011979,0.00009781,0.00044437,0.00028018,-0.00801138,0.
 01075785,0.00965902,0.00050946,-0.00095829,0.00055761,0.00110844,-0.00
 019771,0.00123982,0.00001963,-0.00020531,0.00015183,0.00010499,0.00006
 410,-0.00047479,-0.00003759,0.00012920,-0.00036911,-0.05590400,0.01462
 497,0.05317165,0.00840236,-0.00969833,-0.02564023,0.05993876,0.0033133
 3,-0.00260715,0.00237967,-0.00004859,0.00026258,0.00028655,0.00054446,
 -0.00080054,-0.00127170,0.00667869,-0.01517144,-0.02026417,-0.00017571
 ,0.00101585,0.00010707,-0.00026199,0.00066235,-0.00168464,-0.00006524,
 0.00047549,0.00012225,0.00019740,-0.00030441,0.00112433,-0.00010556,-0
 .00014138,-0.00000827,0.01527131,-0.08167124,-0.09502758,0.00336437,-0
 .00260222,-0.00771535,-0.01658043,0.09647442,0.00035159,0.00074393,0.0
 0088351,-0.00006835,0.00015862,0.00008908,0.00003691,-0.00004198,0.000
 00314,-0.00332286,0.00252558,-0.00012637,0.00048433,-0.00029901,0.0003
 6525,-0.00079414,0.00177901,0.00042083,0.00008693,0.00025685,0.0004676
 9,-0.00030405,0.00008244,0.00076989,0.00006328,-0.00012641,-0.00005856
 ,0.03732301,-0.09911564,-0.23117032,0.00299337,-0.00739067,-0.01198690
 ,-0.05408190,0.08811139,0.26811243,0.00025375,0.00081121,-0.00044882,0
 .00003130,0.00018529,0.00031918,0.00033108,0.00001886,0.00021359,0.008
 17204,-0.01391134,-0.00717871,-0.00071263,0.00292908,-0.00048135,-0.00
 119342,0.00304573,-0.00095492,0.00069942,0.00065254,-0.00053572,-0.000
 22525,-0.00004019,-0.00029138,0.00043967,0.00032662,-0.00016215,-0.098
 58284,-0.05069526,0.06996503,-0.01422566,-0.03132348,0.01383300,-0.007
 30298,-0.01196787,0.01674754,0.11308601,-0.00326363,0.00463261,-0.0035
 7501,0.00020228,0.00021826,0.00027182,0.00038327,0.00064425,0.00145029
 ,0.00816764,-0.04928518,0.02183306,-0.00298748,0.00313091,-0.00115924,
 -0.00113440,-0.00113506,0.00215285,0.00087395,-0.00006169,0.00005112,0
 .00021614,-0.00028534,-0.00010410,0.00063451,0.00035489,-0.00026773,-0
 .09096905,-0.10620014,0.05770056,-0.01573009,-0.02468875,0.01205863,0.
 00225799,0.00445023,0.01367606,0.10150977,0.17933477,0.00409416,-0.002
 71151,0.00203307,-0.00043460,0.00011770,-0.00018026,-0.00017455,-0.000
 72709,-0.00086349,-0.01483161,0.02494838,-0.01556883,0.00213641,-0.001
 37924,0.00066978,0.00121800,0.00097577,-0.00050028,-0.00033270,0.00058
 729,0.00076718,-0.00036317,-0.00005850,0.00130606,-0.00014361,-0.00025
 004,-0.00008240,0.08149529,0.04848130,-0.11581118,0.00427232,0.0063939
 4,0.00977694,0.01686326,0.03403108,-0.02868770,-0.09169499,-0.09808491
 ,0.15774050,-0.13083969,-0.01985249,0.03845935,-0.01870700,-0.01971013
 ,0.03126127,0.00913392,0.01042227,-0.01782939,-0.00535779,-0.00563229,
 0.01428517,0.00119326,0.00087305,0.00024996,0.00104284,0.00335703,0.00
 156042,0.00026870,-0.00042450,0.00016006,0.00013853,-0.00088812,0.0010
 1384,0.00039691,0.00017601,-0.00058067,0.00197929,0.00007993,0.0034846
 6,0.00022502,-0.00011831,-0.00109697,-0.00126703,-0.00031491,-0.000422
 70,0.00058978,-0.00194027,-0.00310628,0.30133365,-0.04506913,-0.082329
 71,0.04813504,-0.01168337,-0.01286909,0.01972839,-0.00854030,-0.014047
 48,0.02134086,0.00634853,0.01343547,-0.00364984,0.00078247,0.00094856,
 0.00103071,-0.00052324,-0.00037872,-0.00209202,0.00009815,0.00018155,-
 0.00059654,0.00021147,0.00028248,-0.00068323,0.00026359,-0.00004846,-0
 .00024764,-0.00246834,0.00285456,0.00047159,0.00045855,-0.00062033,-0.
 00021476,0.00058479,0.00032895,-0.00020970,-0.00095972,0.00062526,0.00
 340310,-0.02976739,0.17902490,0.07188861,0.04328829,-0.13684455,0.0048
 8262,0.00834054,-0.00232246,0.00380573,0.01385618,-0.01445546,0.018792
 77,0.02210508,-0.03885304,-0.00083429,0.00103710,0.00294464,-0.0003923
 8,-0.00711373,-0.00491243,-0.00027569,0.00024931,0.00017670,0.00098128
 ,0.00183953,-0.00183206,0.00034904,0.00010349,-0.00006625,0.00153804,0
 .00199778,0.00774682,0.00101514,-0.00006289,-0.00149505,-0.00143051,0.
 00008923,-0.00050954,-0.00041241,-0.00023924,0.00039248,-0.01626778,-0
 .13947612,0.27045417,0.00771777,0.00133099,-0.00272742,0.00413046,-0.0
 0135948,0.00204268,0.00192714,-0.00298739,0.00127767,0.00027077,0.0012
 6124,0.00022661,0.00003429,0.00004741,0.00027016,0.00038912,-0.0004360
 1,-0.00019728,-0.00007821,-0.00016734,0.00020604,0.00008100,0.00002143
 ,-0.00018279,-0.00000211,0.00008572,-0.00006301,-0.00181891,-0.0017438
 8,-0.00294831,0.00076713,0.00036343,0.00016168,0.00099176,0.00031785,0
 .00037071,0.00255619,0.00160883,0.00098004,-0.14512769,0.05191053,-0.0
 8707179,0.15444201,0.02574132,-0.02052118,0.01457523,0.00266554,0.0024
 6750,-0.00231593,-0.00278294,-0.00173891,0.00782846,0.00038974,-0.0025
 6927,-0.00284639,-0.00022305,0.00020937,0.00040780,-0.00004551,0.00070
 869,0.00026132,0.00006732,0.00039861,-0.00031204,-0.00018329,0.0000285
 8,0.00027325,0.00001470,-0.00003485,-0.00010213,0.00032191,0.00208427,
 0.00424343,0.00150322,-0.00009380,-0.00106055,-0.00128890,0.00065593,-
 0.00106730,0.00054613,-0.00733576,-0.01524099,0.05873452,-0.07514414,0
 .06001614,-0.06801748,0.46266926,-0.02852485,0.02077067,-0.02547625,-0
 .00143316,-0.00276211,0.00273772,0.00120245,-0.00031969,-0.00309716,-0
 .00018225,-0.00039905,0.00181338,-0.00004313,0.00010993,-0.00010531,0.
 00030686,0.00019808,0.00026012,-0.00000542,-0.00006923,0.00014825,0.00
 019700,-0.00020352,0.00007552,0.00004617,-0.00001376,-0.00007633,0.000
 31886,-0.00174858,0.00027355,-0.00050209,0.00014375,0.00000247,-0.0004
 4977,0.00011317,-0.00061311,0.00025188,-0.00999986,-0.01511350,-0.0421
 1343,0.02409684,-0.08014928,0.09754949,0.13366446,0.24105040,-0.001015
 42,0.00099262,0.00017158,-0.00023783,-0.00006242,-0.00049813,0.0004014
 6,0.00032182,-0.00034535,0.00190334,0.00022770,0.00214451,-0.00019248,
 0.00027359,-0.00023055,-0.00028070,-0.00028387,-0.00004924,-0.00009425
 ,-0.00003442,-0.00007046,0.00009855,0.00000810,-0.00004902,0.00000775,
 -0.00010008,0.00004180,-0.00221774,-0.00164822,-0.00311808,-0.00152905
 ,-0.00045663,0.00235440,0.00208741,-0.00016711,0.00053634,-0.00391645,
 0.00017054,0.00002205,-0.01500270,0.03835341,0.00343163,-0.02628072,-0
 .01744325,-0.02661862,0.04626885,-0.00061363,-0.00494549,0.00456303,0.
 00068925,-0.00008081,-0.00008293,-0.00016765,-0.00004762,-0.00047433,-
 0.00196663,0.00325058,-0.00005496,0.00001261,-0.00024705,-0.00005862,0
 .00074255,-0.00105670,-0.00051976,-0.00013651,-0.00022042,0.00028105,0
 .00007129,0.00014976,-0.00035838,-0.00008575,0.00004910,0.00005636,0.0
 0309793,0.00089154,0.00349079,-0.00151346,-0.00011154,0.00057769,-0.00
 162061,-0.00102743,0.00091685,-0.00112738,-0.00439926,-0.00048628,0.00
 500561,-0.01224381,-0.00603071,0.01776416,-0.36178431,-0.16358112,-0.0
 2015179,0.38182343,-0.00455457,0.00341600,0.00480412,0.00041630,-0.000
 11459,-0.00024525,0.00041984,0.00045918,-0.00218024,-0.00182522,0.0051
 9565,0.00075756,0.00019954,-0.00015066,-0.00007916,0.00089304,-0.00130
 214,-0.00063890,-0.00022855,-0.00050334,0.00034419,0.00008778,0.000126
 94,-0.00026606,-0.00010889,0.00007339,0.00007267,0.00085858,-0.0035669
 1,-0.01011834,-0.00160565,0.00012395,0.00179234,0.00129237,-0.00039302
 ,0.00204066,0.00083024,0.00423570,0.00412162,-0.00905750,0.02896333,-0
 .00027469,-0.00989448,-0.19832476,-0.12173047,0.02227715,0.16176130,0.
 12159997\\-0.00000409,0.00000621,-0.00001291,-0.00000357,0.00000984,-0
 .00000574,-0.00000503,0.00000900,-0.00002297,0.00000445,-0.00000042,-0
 .00000193,0.00000054,-0.00000595,-0.00000651,0.00001036,-0.00001356,-0
 .00000296,0.00001009,-0.00000966,-0.00001735,0.00001923,-0.00002239,-0
 .00000399,0.00001359,-0.00000931,0.00000052,0.00000396,-0.00000402,0.0
 0000350,-0.00000294,-0.00000108,0.00001770,0.00001104,-0.00001157,0.00
 001451,-0.00000384,0.00000420,0.00001682,-0.00001830,0.00001298,-0.000
 00501,-0.00002322,0.00001696,0.00001313,-0.00001228,0.00001877,0.00001
 316\\\@


 THE ENLIGHTENED ONE, BECAUSE HE SAW MANKIND DROWNING  
 IN THE GREAT SEA OF BIRTH, DEATH, AND SORROW, LONGED TO SAVE 
 THEM, FOR THIS HE WAS MOVED TO PITY.                         
 BECAUSE HE SAW MEN OF THE WORLD STRAYING IN FALSE PATHS, AND 
 NONE TO GUIDE THEM, FOR THIS HE WAS MOVED TO PITY.           
                     ..................                       
 BECAUSE HE SAW THE MEN OF THE WORLD PLOUGHING THEIR FIELDS,  
 SOWING THE SEED, TRAFFICKING, HUCKSTERING, BUYING, SELLING,  
 AND AT THE END WINNOWING NOTHING BUT BITTERNESS,             
 FOR THIS HE WAS MOVED TO PITY......                   
                   BUDAH'S PITY - UPSAKA SILA SUTRA           
 Job cpu time:  0 days  1 hours 29 minutes 29.0 seconds.
 File lengths (MBytes):  RWF=    125 Int=      0 D2E=      0 Chk=      8 Scr=      1
 Normal termination of Gaussian 03 at Tue Jun 18 11:49:53 2013.
