 Entering Gaussian System, Link 0=g03
 Input=H2O-freq.com
 Output=H2O-freq.log
 Initial command:
 /home/g03/l1.exe /scratch/mrharper/Gau-1067.inp -scrdir=/scratch/mrharper/
 Entering Link 1 = /home/g03/l1.exe PID=      1069.
  
 Copyright (c) 1988,1990,1992,1993,1995,1998,2003,2004, Gaussian, Inc.
                  All Rights Reserved.
  
 This is the Gaussian(R) 03 program.  It is based on the
 the Gaussian(R) 98 system (copyright 1998, Gaussian, Inc.),
 the Gaussian(R) 94 system (copyright 1995, Gaussian, Inc.),
 the Gaussian 92(TM) system (copyright 1992, Gaussian, Inc.),
 the Gaussian 90(TM) system (copyright 1990, Gaussian, Inc.),
 the Gaussian 88(TM) system (copyright 1988, Gaussian, Inc.),
 the Gaussian 86(TM) system (copyright 1986, Carnegie Mellon
 University), and the Gaussian 82(TM) system (copyright 1983,
 Carnegie Mellon University). Gaussian is a federally registered
 trademark of Gaussian, Inc.
  
 This software contains proprietary and confidential information,
 including trade secrets, belonging to Gaussian, Inc.
  
 This software is provided under written license and may be
 used, copied, transmitted, or stored only in accord with that
 written license.
  
 The following legend is applicable only to US Government
 contracts under FAR:
  
                    RESTRICTED RIGHTS LEGEND
  
 Use, reproduction and disclosure by the US Government is
 subject to restrictions as set forth in subparagraphs (a)
 and (c) of the Commercial Computer Software - Restricted
 Rights clause in FAR 52.227-19.
  
 Gaussian, Inc.
 340 Quinnipiac St., Bldg. 40, Wallingford CT 06492
  
  
 ---------------------------------------------------------------
 Warning -- This program may not be used in any manner that
 competes with the business of Gaussian, Inc. or will provide
 assistance to any competitor of Gaussian, Inc.  The licensee
 of this program is prohibited from giving any competitor of
 Gaussian, Inc. access to this program.  By using this program,
 the user acknowledges that Gaussian, Inc. is engaged in the
 business of creating and licensing software in the field of
 computational chemistry and represents and warrants to the
 licensee that it is not a competitor of Gaussian, Inc. and that
 it will not use this program in any manner prohibited above.
 ---------------------------------------------------------------
  

 Cite this work as:
 Gaussian 03, Revision D.01,
 M. J. Frisch, G. W. Trucks, H. B. Schlegel, G. E. Scuseria, 
 M. A. Robb, J. R. Cheeseman, J. A. Montgomery, Jr., T. Vreven, 
 K. N. Kudin, J. C. Burant, J. M. Millam, S. S. Iyengar, J. Tomasi, 
 V. Barone, B. Mennucci, M. Cossi, G. Scalmani, N. Rega, 
 G. A. Petersson, H. Nakatsuji, M. Hada, M. Ehara, K. Toyota, 
 R. Fukuda, J. Hasegawa, M. Ishida, T. Nakajima, Y. Honda, O. Kitao, 
 H. Nakai, M. Klene, X. Li, J. E. Knox, H. P. Hratchian, J. B. Cross, 
 V. Bakken, C. Adamo, J. Jaramillo, R. Gomperts, R. E. Stratmann, 
 O. Yazyev, A. J. Austin, R. Cammi, C. Pomelli, J. W. Ochterski, 
 P. Y. Ayala, K. Morokuma, G. A. Voth, P. Salvador, J. J. Dannenberg, 
 V. G. Zakrzewski, S. Dapprich, A. D. Daniels, M. C. Strain, 
 O. Farkas, D. K. Malick, A. D. Rabuck, K. Raghavachari, 
 J. B. Foresman, J. V. Ortiz, Q. Cui, A. G. Baboul, S. Clifford, 
 J. Cioslowski, B. B. Stefanov, G. Liu, A. Liashenko, P. Piskorz, 
 I. Komaromi, R. L. Martin, D. J. Fox, T. Keith, M. A. Al-Laham, 
 C. Y. Peng, A. Nanayakkara, M. Challacombe, P. M. W. Gill, 
 B. Johnson, W. Chen, M. W. Wong, C. Gonzalez, and J. A. Pople, 
 Gaussian, Inc., Wallingford CT, 2004.
 
 ******************************************
 Gaussian 03:  AM64L-G03RevD.01 13-Oct-2005
                20-Nov-2009 
 ******************************************
 %chk=H2O-freq.chk
 %mem=1000mb
 %nproc=4
 Will use up to    4 processors via shared memory.
 -------------------------------------
 # freq b3lyp/cbsb7 nosymm iop(7/33=1)
 -------------------------------------
 1/10=4,30=1,38=1/1,3;
 2/15=1,17=6,18=5,40=1/2;
 3/5=4,6=6,7=700,11=2,16=1,25=1,30=1,74=-5/1,2,3;
 4//1;
 5/5=2,38=5/2;
 8/6=4,10=90,11=11/1;
 11/6=1,8=1,9=11,15=111,16=1,31=1/1,2,10;
 10/6=1,31=1/2;
 6/7=2,8=2,9=2,10=2,18=1,28=1/1;
 7/8=1,10=1,25=1,30=1,33=1/1,2,3,16;
 1/10=4,30=1/3;
 99//99;
 --------
 H2O freq
 --------
 Symbolic Z-matrix:
 Charge =  0 Multiplicity = 1
 O
 H                    1    B1
 H                    1    B2       2    A1
       Variables:
  B1                    0.96199                  
  B2                    0.96199                  
  A1                  103.80949                  
 

 GradGradGradGradGradGradGradGradGradGradGradGradGradGradGradGradGradGrad
 Berny optimization.
 Initialization pass.
                       ----------------------------
                       !    Initial Parameters    !
                       ! (Angstroms and Degrees)  !
 ----------------------                            ----------------------
 !      Name          Value   Derivative information (Atomic Units)     !
 ------------------------------------------------------------------------
 !       B1          0.962    calculate D2E/DX2 analytically            !
 !       B2          0.962    calculate D2E/DX2 analytically            !
 !       A1        103.8095   calculate D2E/DX2 analytically            !
 ------------------------------------------------------------------------
 Trust Radius=3.00D-01 FncErr=1.00D-07 GrdErr=1.00D-07
 Number of steps in this run=   2 maximum allowed number of steps=   2.
 GradGradGradGradGradGradGradGradGradGradGradGradGradGradGradGradGradGrad

                          Input orientation:                          
 ---------------------------------------------------------------------
 Center     Atomic     Atomic              Coordinates (Angstroms)
 Number     Number      Type              X           Y           Z
 ---------------------------------------------------------------------
    1          8             0        0.000000    0.000000    0.000000
    2          1             0        0.000000    0.000000    0.961989
    3          1             0        0.934182    0.000000   -0.229621
 ---------------------------------------------------------------------
                    Distance matrix (angstroms):
                    1          2          3
     1  O    0.000000
     2  H    0.961989   0.000000
     3  H    0.961989   1.514144   0.000000
 Symmetry turned off by external request.
 Stoichiometry    H2O
 Framework group  C2V[C2(O),SGV(H2)]
 Deg. of freedom     2
 Full point group                 C2V
 Rotational constants (GHZ):    801.4532756    437.4492628    282.9884787
 Standard basis: CBSB7 (5D, 7F)
 Integral buffers will be    131072 words long.
 Raffenetti 2 integral format.
 Two-electron integral symmetry is turned off.
    30 basis functions,    48 primitive gaussians,    31 cartesian basis functions
     5 alpha electrons        5 beta electrons
       nuclear repulsion energy         9.1508742146 Hartrees.
 NAtoms=    3 NActive=    3 NUniq=    3 SFac= 7.50D-01 NAtFMM=   80 NAOKFM=F Big=F
 One-electron integrals computed using PRISM.
 NBasis=    30 RedAO= T  NBF=    30
 NBsUse=    30 1.00D-06 NBFU=    30
 Harris functional with IExCor=  402 diagonalized for initial guess.
 ExpMin= 1.03D-01 ExpMax= 8.59D+03 ExpMxC= 1.30D+03 IAcc=1 IRadAn=         1 AccDes= 1.00D-06
 HarFok:  IExCor= 402 AccDes= 1.00D-06 IRadAn=         1 IDoV=1
 ScaDFX=  1.000000  1.000000  1.000000  1.000000
 Requested convergence on RMS density matrix=1.00D-08 within 128 cycles.
 Requested convergence on MAX density matrix=1.00D-06.
 Requested convergence on             energy=1.00D-06.
 No special actions if energy rises.
 Keep R1 integrals in memory in canonical form, NReq=     1847397.
 Integral accuracy reduced to 1.0D-05 until final iterations.
 Initial convergence to 1.0D-05 achieved.  Increase integral accuracy.
 SCF Done:  E(RB+HF-LYP) =  -76.4474482880     A.U. after    9 cycles
             Convg  =    0.3985D-08             -V/T =  2.0017
             S**2   =   0.0000
 Range of M.O.s used for correlation:     1    30
 NBasis=    30 NAE=     5 NBE=     5 NFC=     0 NFV=     0
 NROrb=     30 NOA=     5 NOB=     5 NVA=    25 NVB=    25
 Symmetrizing basis deriv contribution to polar:
 IMax=3 JMax=2 DiffMx= 0.00D+00
 G2DrvN: will do    4 centers at a time, making    1 passes doing MaxLOS=2.
 FoFDir/FoFCou used for L=0 through L=2.
 DoAtom=TTT
          Differentiating once with respect to electric field.
                with respect to dipole field.
          Differentiating once with respect to nuclear coordinates.
          Store integrals in memory, NReq=      944213.
          There are  12 degrees of freedom in the 1st order CPHF.
     9 vectors were produced by pass  0.
 AX will form   9 AO Fock derivatives at one time.
     9 vectors were produced by pass  1.
     9 vectors were produced by pass  2.
     9 vectors were produced by pass  3.
     9 vectors were produced by pass  4.
     4 vectors were produced by pass  5.
     1 vectors were produced by pass  6.
 Inv2:  IOpt= 1 Iter= 1 AM= 6.89D-16 Conv= 1.00D-12.
 Inverted reduced A of dimension   50 with in-core refinement.
 Isotropic polarizability for W=    0.000000        5.92 Bohr**3.
 End of Minotr Frequency-dependent properties file   721 does not exist.

 **********************************************************************

            Population analysis using the SCF density.

 **********************************************************************

 Alpha  occ. eigenvalues --  -19.10268  -1.00264  -0.52157  -0.37650  -0.29942
 Alpha virt. eigenvalues --    0.02862   0.10392   0.37821   0.42394   0.75996
 Alpha virt. eigenvalues --    0.76423   0.86214   1.06656   1.23972   1.26839
 Alpha virt. eigenvalues --    1.45893   1.65879   1.92086   2.05066   2.28827
 Alpha virt. eigenvalues --    2.47957   3.11246   3.15456   3.31973   3.58940
 Alpha virt. eigenvalues --    3.82248   4.76465   5.18703   5.60558  49.84217
          Condensed to atoms (all electrons):
              1          2          3
     1  O    7.852833   0.310336   0.310336
     2  H    0.310336   0.490220  -0.037309
     3  H    0.310336  -0.037309   0.490221
 Mulliken atomic charges:
              1
     1  O   -0.473506
     2  H    0.236753
     3  H    0.236753
 Sum of Mulliken charges=   0.00000
 Atomic charges with hydrogens summed into heavy atoms:
              1
     1  O    0.000000
     2  H    0.000000
     3  H    0.000000
 Sum of Mulliken charges=   0.00000
 APT atomic charges:
              1
     1  O   -0.488935
     2  H    0.244470
     3  H    0.244466
 Sum of APT charges=   0.00000
 APT Atomic charges with hydrogens summed into heavy atoms:
              1
     1  O    0.000000
     2  H    0.000000
     3  H    0.000000
 Sum of APT charges=   0.00000
 Electronic spatial extent (au):  <R**2>=    19.3202
 Charge=     0.0000 electrons
 Dipole moment (field-independent basis, Debye):
    X=     1.6291    Y=     0.0000    Z=     1.2772  Tot=     2.0701
 Quadrupole moment (field-independent basis, Debye-Ang):
   XX=    -5.0959   YY=    -7.2001   ZZ=    -4.8002
   XY=     0.0000   XZ=    -0.6015   YZ=     0.0000
 Traceless Quadrupole moment (field-independent basis, Debye-Ang):
   XX=     0.6028   YY=    -1.5014   ZZ=     0.8985
   XY=     0.0000   XZ=    -0.6015   YZ=     0.0000
 Octapole moment (field-independent basis, Debye-Ang**2):
  XXX=     0.1981  YYY=     0.0000  ZZZ=     0.5950  XYY=    -0.4264
  XXY=     0.0000  XXZ=    -0.7087  XZZ=    -0.3432  YZZ=     0.0000
  YYZ=    -0.3343  XYZ=     0.0000
 Hexadecapole moment (field-independent basis, Debye-Ang**3):
 XXXX=    -5.5070 YYYY=    -5.3102 ZZZZ=    -5.4717 XXXY=     0.0000
 XXXZ=    -0.2270 YYYX=     0.0000 YYYZ=     0.0000 ZZZX=     0.1552
 ZZZY=     0.0000 XXYY=    -2.0937 XXZZ=    -2.3167 YYZZ=    -2.1305
 XXYZ=     0.0000 YYXZ=     0.0747 ZZXY=     0.0000
 N-N= 9.150874214615D+00 E-N=-1.994716559102D+02  KE= 7.631965046302D+01
  Exact polarizability:   6.634   0.000   4.055  -0.875   0.000   7.064
 Approx polarizability:   8.150   0.000   4.314  -1.088   0.000   8.685
 Use density number 0.
 Entering OneElI...
 Calculate overlap and kinetic energy integrals
    NBasis =  31  MinDer = 2  MaxDer = 2
 Requested accuracy = 0.1000D-12
 PrsmSu:  NPrtUS=   1 ThrOK=F
 PRISM was handed   131057125 working-precision words and    91 shell-pairs
 Entering OneElI...
 Calculate potential energy integrals
    NBasis =  31  MinDer = 2  MaxDer = 2
 Requested accuracy = 0.1000D-12
 PrsmSu:  NPrtUS=   4 ThrOK=T
 PRISM was handed    32762456 working-precision words and    91 shell-pairs
 PRISM was handed    32762456 working-precision words and    91 shell-pairs
 PRISM was handed    32762456 working-precision words and    91 shell-pairs
 PRISM was handed    32762456 working-precision words and    91 shell-pairs
 Polarizability after L701:
                1             2             3
      1  0.663373D+01
      2  0.000000D+00  0.405515D+01
      3 -0.874676D+00  0.000000D+00  0.706374D+01
 Dipole Derivatives after L701:
               1            2            3            4            5
      1-0.356433D+00 0.000000D+00 0.566140D-01 0.267254D+00 0.000000D+00
      2 0.000000D+00-0.726106D+00 0.000000D+00 0.000000D+00 0.363063D+00
      3 0.566155D-01 0.000000D+00-0.384267D+00-0.751067D-01 0.000000D+00
               6            7            8            9
      1-0.252732D-01 0.891787D-01 0.000000D+00-0.313408D-01
      2 0.000000D+00 0.000000D+00 0.363043D+00 0.000000D+00
      3 0.103092D+00 0.184912D-01 0.000000D+00 0.281176D+00
 Hessian after L701:
                1             2             3             4             5
      1  0.349529D+01
      2  0.000000D+00  0.657042D+01
      3  0.926437D+00  0.000000D+00  0.303986D+01
      4 -0.326086D+01  0.000000D+00 -0.140911D+00  0.324400D+01
      5  0.000000D+00 -0.328521D+01  0.000000D+00  0.000000D+00  0.326304D+01
      6 -0.416415D-01  0.000000D+00 -0.671696D-02  0.630376D-01  0.000000D+00
      7 -0.234440D+00  0.000000D+00 -0.785526D+00  0.168507D-01  0.000000D+00
      8  0.000000D+00 -0.328521D+01  0.000000D+00  0.000000D+00  0.221693D-01
      9 -0.884795D+00  0.000000D+00 -0.303314D+01  0.778730D-01  0.000000D+00
                6             7             8             9
      6  0.374597D-02
      7 -0.213961D-01  0.217589D+00
      8  0.000000D+00  0.000000D+00  0.326304D+01
      9  0.297099D-02  0.806922D+00  0.000000D+00  0.303017D+01
 ReadGW:  IGet=0 IStart=          36 Next=        1350 LGW=        1314.
 ICntrl=12127.
 Symmetry not used in FoFDir.
 MinBra= 0 MaxBra= 2 Meth= 1.
 IRaf=       0 NMat=   1 IRICut=       1 DoRegI=T DoRafI=F ISym2E= 0 JSym2E=0.
 PrsmSu:  NPrtUS=   4 ThrOK=T
 PRISM was handed    32761568 working-precision words and    91 shell-pairs
 PRISM was handed    32761568 working-precision words and    91 shell-pairs
 PRISM was handed    32761568 working-precision words and    91 shell-pairs
 PRISM was handed    32761568 working-precision words and    91 shell-pairs
 Pruned (  75, 302) grid will be used in CalDFT.
 CkSvGd:  ISavGI=        -1 IRadAn=       4 IRASav=       4 ISavGd=        -1.
 CalDSu:  NPrtUS=   4 ThrOK=T
 IPart= 0 IRanGd=          0 ScrnBf=T ScrnGd=T RCrit=4.00D+00 DoMicB=T.
 IPart= 1 IRanGd=          0 ScrnBf=T ScrnGd=T RCrit=4.00D+00 DoMicB=T.
 CutRad = 1000.00    CtRdIn =    0.00    XCrit =  15.00   ICut = 0
 IPart= 3 IRanGd=          0 ScrnBf=T ScrnGd=T RCrit=4.00D+00 DoMicB=T.
 CutRad = 1000.00    CtRdIn =    0.00    XCrit =  15.00   ICut = 0
 CutRad = 1000.00    CtRdIn =    0.00    XCrit =  15.00   ICut = 0
 IPart= 2 IRanGd=          0 ScrnBf=T ScrnGd=T RCrit=4.00D+00 DoMicB=T.
 CutRad = 1000.00    CtRdIn =    0.00    XCrit =  15.00   ICut = 0
 IPart= 2         6204 of         6570 points in      16 batches and       56 microbatches, Max-NSigAt=       3 Max-NSgAt2=       3
 IPart= 1         5351 of         5566 points in      11 batches and       56 microbatches, Max-NSigAt=       3 Max-NSgAt2=       3
 IPart= 3         6013 of         6288 points in      13 batches and       44 microbatches, Max-NSigAt=       3 Max-NSgAt2=       3
 IPart= 0         5097 of         5228 points in       9 batches and       24 microbatches, Max-NSigAt=       3 Max-NSgAt2=       3
 Polarizability after L703:
                1             2             3
      1  0.663373D+01
      2  0.000000D+00  0.405515D+01
      3 -0.874676D+00  0.000000D+00  0.706374D+01
 Dipole Derivatives after L703:
               1            2            3            4            5
      1-0.356433D+00 0.000000D+00 0.566140D-01 0.267254D+00 0.000000D+00
      2 0.000000D+00-0.726106D+00 0.000000D+00 0.000000D+00 0.363063D+00
      3 0.566155D-01 0.000000D+00-0.384267D+00-0.751067D-01 0.000000D+00
               6            7            8            9
      1-0.252732D-01 0.891787D-01 0.000000D+00-0.313408D-01
      2 0.000000D+00 0.000000D+00 0.363043D+00 0.000000D+00
      3 0.103092D+00 0.184912D-01 0.000000D+00 0.281176D+00
 Hessian after L703:
                1             2             3             4             5
      1  0.537905D+00
      2  0.000000D+00 -0.361023D-04
      3 -0.102584D+00  0.000000D+00  0.588434D+00
      4 -0.435767D-01  0.000000D+00 -0.342141D-01  0.485782D-01
      5  0.000000D+00 -0.189216D-04  0.000000D+00  0.000000D+00  0.723962D-05
      6  0.260202D-01  0.000000D+00 -0.519654D+00 -0.170733D-01  0.000000D+00
      7 -0.494328D+00  0.000000D+00  0.136798D+00 -0.500153D-02  0.000000D+00
      8  0.000000D+00  0.550239D-04  0.000000D+00  0.000000D+00  0.116820D-04
      9  0.765635D-01  0.000000D+00 -0.687793D-01  0.512875D-01  0.000000D+00
                6             7             8             9
      6  0.535063D+00
      7 -0.894689D-02  0.499330D+00
      8  0.000000D+00  0.000000D+00 -0.667059D-04
      9 -0.154082D-01 -0.127851D+00  0.000000D+00  0.841875D-01
 FrcOut:
 IF    =    49 IFX   =    58 IFXYZ =    67
 IFFX  =    76 IFFFX =   121 IFLen =     9
 IFFLen=    45 IFFFLn=     0 IEDerv=   121
 LEDerv=   485 IFroze=   610 ICStrt=  2509
 DipoleDeriv   =-3.56432997D-01-1.62930089D-10 5.66154809D-02
                -1.06241143D-11-7.26105761D-01 5.74210632D-11
                 5.66139998D-02-1.57173900D-10-3.84267447D-01
                 2.67254339D-01 2.91248123D-11-7.51066731D-02
                 3.77570331D-11 3.63062645D-01-6.29629782D-11
                -2.52732355D-02 1.32048483D-10 1.03091534D-01
                 8.91786589D-02 1.34585608D-10 1.84911922D-02
                -2.55546076D-11 3.63043117D-01-1.03794992D-11
                -3.13407643D-02 2.35475027D-11 2.81175913D-01
 Full mass-weighted force constant matrix:
 Low frequencies ---  -43.2965  -31.8887    0.0015    0.0022    0.0026   15.9929
 Low frequencies --- 1638.4678 3809.9312 3906.9015
 Dipole derivatives wrt mode   1: -5.99737D+00 -2.31011D-09 -4.70201D+00
 Vibrational polarizability contributions from mode   1       0.3605613       0.0000000       0.2216278
 Vibrational hyperpolarizability contributions from mode   1       0.0000000       0.0000000       0.0000000
 Dipole derivatives wrt mode   2: -1.49573D+00 -5.75735D-09 -1.15860D+00
 Vibrational polarizability contributions from mode   2       0.0041477       0.0000000       0.0024887
 Vibrational hyperpolarizability contributions from mode   2       0.0000000       0.0000000       0.0000000
 Dipole derivatives wrt mode   3:  3.08045D+00 -2.08834D-10 -3.93592D+00
 Vibrational polarizability contributions from mode   3       0.0167300       0.0000000       0.0273124
 Vibrational hyperpolarizability contributions from mode   3       0.0000000       0.0000000       0.0000000
 Diagonal vibrational polarizability:
        0.3814391       0.0000000       0.2514289
 Harmonic frequencies (cm**-1), IR intensities (KM/Mole), Raman scattering
 activities (A**4/AMU), depolarization ratios for plane and unpolarized
 incident light, reduced masses (AMU), force constants (mDyne/A),
 and normal coordinates:
                           1         2         3
                          B2        B2        B2
       Frequencies ---  1638.4678 3809.9312 3906.9015
    Reduced masses ---     1.0823    1.0455    1.0812
   Force constants ---     1.7119    8.9418    9.7232
    IR Intensities ---    58.0774    3.5796   24.9806
 Coord Atom Element:
   1     1     8          0.05547   0.03957  -0.04307
   2     1     8          0.00000   0.00000   0.00000
   3     1     8          0.04349   0.03083   0.05512
   1     2     1         -0.70531   0.04665   0.00011
   2     2     1          0.00000   0.00000   0.00000
   3     2     1         -0.00689  -0.70317  -0.70693
   1     3     1         -0.17503  -0.67463   0.68350
   2     3     1          0.00000   0.00000   0.00000
   3     3     1         -0.68329   0.21387  -0.16789
 Harmonic frequencies (cm**-1), IR intensities (KM/Mole), Raman scattering
 activities (A**4/AMU), depolarization ratios for plane and unpolarized
 incident light, reduced masses (AMU), force constants (mDyne/A),
 and normal coordinates:
                     1                      2                      3
                    B2                     B2                     B2
 Frequencies --  1638.4678              3809.9312              3906.9015
 Red. masses --     1.0823                 1.0455                 1.0812
 Frc consts  --     1.7119                 8.9418                 9.7232
 IR Inten    --    58.0774                 3.5796                24.9806
 Atom AN      X      Y      Z        X      Y      Z        X      Y      Z
   1   8     0.06   0.00   0.04     0.04   0.00   0.03    -0.04   0.00   0.06
   2   1    -0.71   0.00  -0.01     0.05   0.00  -0.70     0.00   0.00  -0.71
   3   1    -0.18   0.00  -0.68    -0.67   0.00   0.21     0.68   0.00  -0.17

 -------------------
 - Thermochemistry -
 -------------------
 Temperature   298.150 Kelvin.  Pressure   1.00000 Atm.
 Atom  1 has atomic number  8 and mass  15.99491
 Atom  2 has atomic number  1 and mass   1.00783
 Atom  3 has atomic number  1 and mass   1.00783
 Molecular mass:    18.01056 amu.
 Principal axes and moments of inertia in atomic units:
                           1         2         3
     EIGENVALUES --     2.25184   4.12560   6.37744
           X           -0.61697   0.78699   0.00000
           Y            0.00000   0.00000   1.00000
           Z            0.78699   0.61697   0.00000
 This molecule is an asymmetric top.
 Rotational symmetry number  2.
 Rotational temperatures (Kelvin)     38.46365    20.99423    13.58129
 Rotational constants (GHZ):         801.45328   437.44926   282.98848
 Zero-point vibrational energy      55957.1 (Joules/Mol)
                                   13.37407 (Kcal/Mol)
 Vibrational temperatures:   2357.39  5481.63  5621.15
          (Kelvin)
 
 Zero-point correction=                           0.021313 (Hartree/Particle)
 Thermal correction to Energy=                    0.024148
 Thermal correction to Enthalpy=                  0.025092
 Thermal correction to Gibbs Free Energy=         0.003666
 Sum of electronic and zero-point Energies=            -76.426135
 Sum of electronic and thermal Energies=               -76.423300
 Sum of electronic and thermal Enthalpies=             -76.422356
 Sum of electronic and thermal Free Energies=          -76.443782
 
                     E (Thermal)             CV                S
                      KCal/Mol        Cal/Mol-Kelvin    Cal/Mol-Kelvin
 Total                   15.153              6.007             45.096
 Electronic               0.000              0.000              0.000
 Translational            0.889              2.981             34.608
 Rotational               0.889              2.981             10.481
 Vibrational             13.376              0.046              0.007
                       Q            Log10(Q)             Ln(Q)
 Total Bot       0.205971D-01         -1.686195         -3.882607
 Total V=0       0.130936D+09          8.117058         18.690216
 Vib (Bot)       0.157365D-09         -9.803093        -22.572455
 Vib (V=0)       0.100037D+01          0.000160          0.000368
 Electronic      0.100000D+01          0.000000          0.000000
 Translational   0.300432D+07          6.477746         14.915562
 Rotational      0.435664D+02          1.639151          3.774286
 -------------------------------------------------------------------
 Center     Atomic                   Forces (Hartrees/Bohr)
 Number     Number              X              Y              Z
 -------------------------------------------------------------------
    1          8           0.000011942    0.000000000    0.000010440
    2          1          -0.000003618    0.000000000   -0.000010762
    3          1          -0.000008324    0.000000000    0.000000322
 -------------------------------------------------------------------
 Cartesian Forces:  Max     0.000011942 RMS     0.000007071
 From PutF, contents of force:
   1   -0.1076217428D-04
   2   -0.8160464903D-05
   3    0.3044204773D-05
 ------------------------------------------------------------------------
           Internal Coordinate Forces (Hartree/Bohr or radian)
 Cent Atom N1     Length/X     N2     Alpha/Y      N3      Beta/Z       J
 ------------------------------------------------------------------------
   1  O 
   2  H     1  -0.000011(   1)
   3  H     1  -0.000008(   2)  2   0.000003(   3)
 ------------------------------------------------------------------------
 Internal  Forces:  Max     0.000010762 RMS     0.000007993
 Force constants in Cartesian coordinates: 
                1             2             3             4             5
      1  0.537905D+00
      2  0.000000D+00 -0.361023D-04
      3 -0.102584D+00  0.000000D+00  0.588434D+00
      4 -0.435767D-01  0.000000D+00 -0.342141D-01  0.485782D-01
      5  0.000000D+00 -0.189216D-04  0.000000D+00  0.000000D+00  0.723962D-05
      6  0.260202D-01  0.000000D+00 -0.519654D+00 -0.170733D-01  0.000000D+00
      7 -0.494328D+00  0.000000D+00  0.136798D+00 -0.500153D-02  0.000000D+00
      8  0.000000D+00  0.550239D-04  0.000000D+00  0.000000D+00  0.116820D-04
      9  0.765635D-01  0.000000D+00 -0.687793D-01  0.512875D-01  0.000000D+00
                6             7             8             9
      6  0.535063D+00
      7 -0.894689D-02  0.499330D+00
      8  0.000000D+00  0.000000D+00 -0.667059D-04
      9 -0.154082D-01 -0.127851D+00  0.000000D+00  0.841875D-01
 FCInt: Cartesian first derivatives: 
               1            2            3
      1 0.119423D-04-0.361804D-05-0.832430D-05
      2 0.000000D+00 0.000000D+00 0.000000D+00
      3 0.104405D-04-0.107622D-04 0.000000D+00
 FCInt: Cartesian force constants: 
                1             2             3             4             5
      1  0.537905D+00
      2  0.000000D+00 -0.361023D-04
      3 -0.102584D+00  0.000000D+00  0.588434D+00
      4 -0.435767D-01  0.000000D+00 -0.342141D-01  0.485782D-01
      5  0.000000D+00 -0.189216D-04  0.000000D+00  0.000000D+00  0.723962D-05
      6  0.260202D-01  0.000000D+00 -0.519654D+00 -0.170733D-01  0.000000D+00
      7 -0.494328D+00  0.000000D+00  0.136798D+00 -0.500153D-02  0.000000D+00
      8  0.000000D+00  0.550239D-04  0.000000D+00  0.000000D+00  0.116820D-04
      9  0.765635D-01  0.000000D+00 -0.687793D-01  0.512875D-01  0.000000D+00
                6             7             8             9
      6  0.535063D+00
      7 -0.894689D-02  0.499330D+00
      8  0.000000D+00  0.000000D+00 -0.667059D-04
      9 -0.154082D-01 -0.127851D+00  0.000000D+00  0.841875D-01
 Internal force constants: 
                1             2             3
      1  0.535063D+00
      2 -0.501042D-02  0.534947D+00
      3  0.310832D-01  0.310017D-01  0.160496D+00
 Frcnst in PutFF: 
                1             2             3
      1  0.535063D+00
      2 -0.501042D-02  0.534947D+00
      3  0.310832D-01  0.310017D-01  0.160496D+00
 Force constants in internal coordinates: 
                1             2             3
      1  0.535063D+00
      2 -0.501042D-02  0.534947D+00
      3  0.310832D-01  0.310017D-01  0.160496D+00
 Final forces over variables, Energy=-7.64474483D+01:
 -1.07621743D-05-8.16046490D-06 3.04420477D-06

 GradGradGradGradGradGradGradGradGradGradGradGradGradGradGradGradGradGrad
 Berny optimization.
 Search for a local minimum.
 Step number   1 out of a maximum of   2
 All quantities printed in internal units (Hartrees-Bohrs-Radians)
 Second derivative matrix not updated -- analytic derivatives used.
 The second derivative matrix:
                          B1        B2        A1
           B1           0.53506
           B2          -0.00501   0.53495
           A1           0.03108   0.03100   0.16050
     Eigenvalues ---    0.15535   0.53514   0.54002
 Angle between quadratic step and forces=  31.06 degrees.
 Linear search not attempted -- first point.
 Variable       Old X    -DE/DX   Delta X   Delta X   Delta X     New X
                                 (Linear)    (Quad)   (Total)
    B1        1.81790  -0.00001   0.00000  -0.00002  -0.00002   1.81787
    B2        1.81790  -0.00001   0.00000  -0.00002  -0.00002   1.81788
    A1        1.81182   0.00000   0.00000   0.00003   0.00003   1.81184
         Item               Value     Threshold  Converged?
 Maximum Force            0.000011     0.000450     YES
 RMS     Force            0.000008     0.000300     YES
 Maximum Displacement     0.000026     0.001800     YES
 RMS     Displacement     0.000022     0.001200     YES
 Predicted change in Energy=-2.269989D-10
 Optimization completed.
    -- Stationary point found.
                       ----------------------------
                       !   Optimized Parameters   !
                       ! (Angstroms and Degrees)  !
 ----------------------                            ----------------------
 !      Name          Value   Derivative information (Atomic Units)     !
 ------------------------------------------------------------------------
 !       B1          0.962    -DE/DX =    0.0                           !
 !       B2          0.962    -DE/DX =    0.0                           !
 !       A1        103.8095   -DE/DX =    0.0                           !
 ------------------------------------------------------------------------
 GradGradGradGradGradGradGradGradGradGradGradGradGradGradGradGradGradGrad


 Test job not archived.
 1\1\GINC-NODE59\Freq\RB3LYP\CBSB7\H2O1\MRHARPER\20-Nov-2009\1\\# freq 
 b3lyp/cbsb7 nosymm iop(7/33=1)\\H2O freq\\0,1\O\H,1,B1\H,1,B2,2,A1\\B1
 =0.96198899\B2=0.96198899\A1=103.80949343\\Version=AM64L-G03RevD.01\HF
 =-76.4474483\RMSD=3.985e-09\RMSF=7.071e-06\ZeroPoint=0.0213129\Thermal
 =0.0241483\Dipole=0.6409468,0.,0.5024804\DipoleDeriv=-0.356433,0.,0.05
 66155,0.,-0.7261058,0.,0.056614,0.,-0.3842674,0.2672543,0.,-0.0751067,
 0.,0.3630626,0.,-0.0252732,0.,0.1030915,0.0891787,0.,0.0184912,0.,0.36
 30431,0.,-0.0313408,0.,0.2811759\Polar=6.633734,0.,4.0551463,-0.874676
 1,0.,7.0637359\PG=C02V [C2(O1),SGV(H2)]\NImag=0\\0.53790481,0.,-0.0000
 3610,-0.10258369,0.,0.58843377,-0.04357665,0.,-0.03421414,0.04857819,0
 .,-0.00001892,0.,0.,0.00000724,0.02602024,0.,-0.51965447,-0.01707335,0
 .,0.53506270,-0.49432815,0.,0.13679783,-0.00500153,0.,-0.00894689,0.49
 932969,0.,0.00005502,0.,0.,0.00001168,0.,0.,-0.00006671,0.07656346,0.,
 -0.06877930,0.05128748,0.,-0.01540824,-0.12785094,0.,0.08418754\\-0.00
 001194,0.,-0.00001044,0.00000362,0.,0.00001076,0.00000832,0.,-0.000000
 32\\\@


 TELEVISION IS CALLED A MEDIUM BECAUSE IT ISN'T
 RARE, AND IT ISN'T WELL DONE.
 Job cpu time:  0 days  0 hours  0 minutes 34.9 seconds.
 File lengths (MBytes):  RWF=     13 Int=      0 D2E=      0 Chk=     10 Scr=      1
 Normal termination of Gaussian 03 at Fri Nov 20 16:10:58 2009.
