 Entering Gaussian System, Link 0=g03
 Input=CCCOO.gjf
 Output=CCCOO.log
 Initial command:
 /opt/g03/l1.exe /scratch/goldmanm/Gau-15167.inp -scrdir=/scratch/goldmanm/
 Entering Link 1 = /opt/g03/l1.exe PID=     15169.
  
 Copyright (c) 1988,1990,1992,1993,1995,1998,2003,2004, Gaussian, Inc.
                  All Rights Reserved.
  
 This is the Gaussian(R) 03 program.  It is based on the
 the Gaussian(R) 98 system (copyright 1998, Gaussian, Inc.),
 the Gaussian(R) 94 system (copyright 1995, Gaussian, Inc.),
 the Gaussian 92(TM) system (copyright 1992, Gaussian, Inc.),
 the Gaussian 90(TM) system (copyright 1990, Gaussian, Inc.),
 the Gaussian 88(TM) system (copyright 1988, Gaussian, Inc.),
 the Gaussian 86(TM) system (copyright 1986, Carnegie Mellon
 University), and the Gaussian 82(TM) system (copyright 1983,
 Carnegie Mellon University). Gaussian is a federally registered
 trademark of Gaussian, Inc.
  
 This software contains proprietary and confidential information,
 including trade secrets, belonging to Gaussian, Inc.
  
 This software is provided under written license and may be
 used, copied, transmitted, or stored only in accord with that
 written license.
  
 The following legend is applicable only to US Government
 contracts under FAR:
  
                    RESTRICTED RIGHTS LEGEND
  
 Use, reproduction and disclosure by the US Government is
 subject to restrictions as set forth in subparagraphs (a)
 and (c) of the Commercial Computer Software - Restricted
 Rights clause in FAR 52.227-19.
  
 Gaussian, Inc.
 340 Quinnipiac St., Bldg. 40, Wallingford CT 06492
  
  
 ---------------------------------------------------------------
 Warning -- This program may not be used in any manner that
 competes with the business of Gaussian, Inc. or will provide
 assistance to any competitor of Gaussian, Inc.  The licensee
 of this program is prohibited from giving any competitor of
 Gaussian, Inc. access to this program.  By using this program,
 the user acknowledges that Gaussian, Inc. is engaged in the
 business of creating and licensing software in the field of
 computational chemistry and represents and warrants to the
 licensee that it is not a competitor of Gaussian, Inc. and that
 it will not use this program in any manner prohibited above.
 ---------------------------------------------------------------
  

 Cite this work as:
 Gaussian 03, Revision D.01,
 M. J. Frisch, G. W. Trucks, H. B. Schlegel, G. E. Scuseria, 
 M. A. Robb, J. R. Cheeseman, J. A. Montgomery, Jr., T. Vreven, 
 K. N. Kudin, J. C. Burant, J. M. Millam, S. S. Iyengar, J. Tomasi, 
 V. Barone, B. Mennucci, M. Cossi, G. Scalmani, N. Rega, 
 G. A. Petersson, H. Nakatsuji, M. Hada, M. Ehara, K. Toyota, 
 R. Fukuda, J. Hasegawa, M. Ishida, T. Nakajima, Y. Honda, O. Kitao, 
 H. Nakai, M. Klene, X. Li, J. E. Knox, H. P. Hratchian, J. B. Cross, 
 V. Bakken, C. Adamo, J. Jaramillo, R. Gomperts, R. E. Stratmann, 
 O. Yazyev, A. J. Austin, R. Cammi, C. Pomelli, J. W. Ochterski, 
 P. Y. Ayala, K. Morokuma, G. A. Voth, P. Salvador, J. J. Dannenberg, 
 V. G. Zakrzewski, S. Dapprich, A. D. Daniels, M. C. Strain, 
 O. Farkas, D. K. Malick, A. D. Rabuck, K. Raghavachari, 
 J. B. Foresman, J. V. Ortiz, Q. Cui, A. G. Baboul, S. Clifford, 
 J. Cioslowski, B. B. Stefanov, G. Liu, A. Liashenko, P. Piskorz, 
 I. Komaromi, R. L. Martin, D. J. Fox, T. Keith, M. A. Al-Laham, 
 C. Y. Peng, A. Nanayakkara, M. Challacombe, P. M. W. Gill, 
 B. Johnson, W. Chen, M. W. Wong, C. Gonzalez, and J. A. Pople, 
 Gaussian, Inc., Wallingford CT, 2004.
 
 ******************************************
 Gaussian 03:  AM64L-G03RevD.01 13-Oct-2005
                19-May-2019 
 ******************************************
 %chk=input.chk
 %mem=1500mb
 %nproc=8
 Will use up to    8 processors via shared memory.
 -------------------------------------
 # freq nosymm b3lyp/cbsb7 iop(7/33=1)
 -------------------------------------
 1/10=4,30=1,38=1/1,3;
 2/15=1,17=6,18=5,40=1/2;
 3/5=4,6=6,7=700,11=2,16=1,25=1,30=1,74=-5/1,2,3;
 4//1;
 5/5=2,38=5/2;
 8/6=4,10=90,11=11/1;
 11/6=1,8=1,9=11,15=111,16=1,31=1/1,2,10;
 10/6=1,31=1/2;
 6/7=2,8=2,9=2,10=2,18=1,28=1/1;
 7/8=1,10=1,25=1,30=1,33=1/1,2,3,16;
 1/10=4,30=1/3;
 99//99;
 -------
 NBO NRT
 -------
 Symbolic Z-matrix:
 Charge =  0 Multiplicity = 2
 C                    -4.13433  -0.26753   0.63705 
 C                    -3.14934   0.70025   0.08168 
 H                    -2.54292   1.29178   0.75785 
 C                    -2.81562   0.70112  -1.36658 
 O                    -2.49745  -0.60146  -1.89399 
 O                    -1.26824  -1.04126  -1.24344 
 H                    -4.54176   0.07216   1.59301 
 H                    -3.67134  -1.25041   0.81142 
 H                    -4.96515  -0.44086  -0.0557 
 H                    -2.00441   1.39951  -1.5979 
 H                    -3.68933   0.96253  -1.98234 
 H                    -0.699    -1.13206  -2.01921 
 

 GradGradGradGradGradGradGradGradGradGradGradGradGradGradGradGradGradGrad
 Berny optimization.
 Initialization pass.
 Trust Radius=3.00D-01 FncErr=1.00D-07 GrdErr=1.00D-07
 Number of steps in this run=   2 maximum allowed number of steps=   2.
 GradGradGradGradGradGradGradGradGradGradGradGradGradGradGradGradGradGrad

                          Input orientation:                          
 ---------------------------------------------------------------------
 Center     Atomic     Atomic              Coordinates (Angstroms)
 Number     Number      Type              X           Y           Z
 ---------------------------------------------------------------------
    1          6             0       -4.134330   -0.267530    0.637050
    2          6             0       -3.149340    0.700250    0.081680
    3          1             0       -2.542920    1.291780    0.757850
    4          6             0       -2.815620    0.701120   -1.366580
    5          8             0       -2.497450   -0.601460   -1.893990
    6          8             0       -1.268240   -1.041260   -1.243440
    7          1             0       -4.541760    0.072160    1.593010
    8          1             0       -3.671340   -1.250410    0.811420
    9          1             0       -4.965150   -0.440860   -0.055700
   10          1             0       -2.004410    1.399510   -1.597900
   11          1             0       -3.689330    0.962530   -1.982340
   12          1             0       -0.699000   -1.132060   -2.019210
 ---------------------------------------------------------------------
                    Distance matrix (angstroms):
                    1          2          3          4          5
     1  C    0.000000
     2  C    1.488368   0.000000
     3  H    2.231284   1.083909   0.000000
     4  C    2.586854   1.486212   2.221812   0.000000
     5  O    3.032664   2.454115   3.258632   1.440871   0.000000
     6  O    3.514167   2.885713   3.327619   2.333546   1.458628
     7  H    1.093274   2.148825   2.486026   3.483436   4.097821
     8  H    1.100372   2.147109   2.781893   3.047033   3.019668
     9  H    1.095540   2.148993   3.087248   2.764598   3.081338
    10  H    3.508644   2.149609   2.418916   1.095134   2.081980
    11  H    2.927845   2.149548   2.988529   1.100393   1.968362
    12  H    4.427711   3.711504   4.121541   2.875162   1.879265
                    6          7          8          9         10
     6  O    0.000000
     7  H    4.472257   0.000000
     8  H    3.168767   1.765702   0.000000
     9  H    3.929167   1.777834   1.755338   0.000000
    10  H    2.573897   4.287413   3.950387   3.811997   0.000000
    11  H    3.228440   3.781868   3.564060   2.703546   1.782611
    12  H    0.966487   5.409721   4.106249   4.746911   2.879313
                   11         12
    11  H    0.000000
    12  H    3.651129   0.000000
 Symmetry turned off by external request.
 Stoichiometry    C3H7O2(2)
 Framework group  C1[X(C3H7O2)]
 Deg. of freedom    30
 Full point group                 C1
 Rotational constants (GHZ):      8.9552936      3.2486095      2.9196457
 Standard basis: CBSB7 (5D, 7F)
 Integral buffers will be    131072 words long.
 Raffenetti 2 integral format.
 Two-electron integral symmetry is turned off.
   132 basis functions,   216 primitive gaussians,   137 cartesian basis functions
    21 alpha electrons       20 beta electrons
       nuclear repulsion energy       182.2348246947 Hartrees.
 NAtoms=   12 NActive=   12 NUniq=   12 SFac= 7.50D-01 NAtFMM=   80 NAOKFM=F Big=F
 One-electron integrals computed using PRISM.
 NBasis=   132 RedAO= T  NBF=   132
 NBsUse=   132 1.00D-06 NBFU=   132
 Harris functional with IExCor=  402 diagonalized for initial guess.
 ExpMin= 1.03D-01 ExpMax= 8.59D+03 ExpMxC= 1.30D+03 IAcc=1 IRadAn=         1 AccDes= 1.00D-06
 HarFok:  IExCor= 402 AccDes= 1.00D-06 IRadAn=         1 IDoV=1
 ScaDFX=  1.000000  1.000000  1.000000  1.000000
 <S**2> of initial guess= 0.7500
 Requested convergence on RMS density matrix=1.00D-08 within 128 cycles.
 Requested convergence on MAX density matrix=1.00D-06.
 Requested convergence on             energy=1.00D-06.
 No special actions if energy rises.
 Keep R1 and R2 integrals in memory in canonical form, NReq=    91688449.
 Integral accuracy reduced to 1.0D-05 until final iterations.
 Initial convergence to 1.0D-05 achieved.  Increase integral accuracy.
 SCF Done:  E(UB+HF-LYP) =  -268.897574622     A.U. after   15 cycles
             Convg  =    0.9335D-08             -V/T =  2.0033
             S**2   =   0.7540
 Annihilation of the first spin contaminant:
 S**2 before annihilation     0.7540,   after     0.7500
 Range of M.O.s used for correlation:     1   132
 NBasis=   132 NAE=    21 NBE=    20 NFC=     0 NFV=     0
 NROrb=    132 NOA=    21 NOB=    20 NVA=   111 NVB=   112
 Symmetrizing basis deriv contribution to polar:
 IMax=3 JMax=2 DiffMx= 0.00D+00
 G2DrvN: will do   13 centers at a time, making    1 passes doing MaxLOS=2.
 FoFDir/FoFCou used for L=0 through L=2.
 DoAtom=TTTTTTTTTTTT
          Differentiating once with respect to electric field.
                with respect to dipole field.
          Differentiating once with respect to nuclear coordinates.
          Store integrals in memory, NReq=    90192357.
          There are  39 degrees of freedom in the 1st order CPHF.
    36 vectors were produced by pass  0.
 AX will form  36 AO Fock derivatives at one time.
    36 vectors were produced by pass  1.
    36 vectors were produced by pass  2.
    36 vectors were produced by pass  3.
    36 vectors were produced by pass  4.
    36 vectors were produced by pass  5.
    21 vectors were produced by pass  6.
     3 vectors were produced by pass  7.
     2 vectors were produced by pass  8.
 Inv2:  IOpt= 1 Iter= 1 AM= 2.44D-15 Conv= 1.00D-12.
 Inverted reduced A of dimension  242 with in-core refinement.
 Isotropic polarizability for W=    0.000000       43.77 Bohr**3.
 End of Minotr Frequency-dependent properties file   721 does not exist.

 **********************************************************************

            Population analysis using the SCF density.

 **********************************************************************

 Alpha  occ. eigenvalues --  -19.17108 -19.16342 -10.22209 -10.18000 -10.16312
 Alpha  occ. eigenvalues --   -1.11242  -0.91284  -0.77673  -0.68393  -0.58470
 Alpha  occ. eigenvalues --   -0.51251  -0.48854  -0.46996  -0.43350  -0.41294
 Alpha  occ. eigenvalues --   -0.39538  -0.37399  -0.35326  -0.30996  -0.26449
 Alpha  occ. eigenvalues --   -0.20270
 Alpha virt. eigenvalues --    0.01619   0.04534   0.06932   0.07490   0.08471
 Alpha virt. eigenvalues --    0.12654   0.12995   0.13102   0.17036   0.23190
 Alpha virt. eigenvalues --    0.27201   0.30480   0.31397   0.35391   0.38821
 Alpha virt. eigenvalues --    0.40309   0.42291   0.44064   0.47448   0.51175
 Alpha virt. eigenvalues --    0.55239   0.56287   0.58293   0.58629   0.60759
 Alpha virt. eigenvalues --    0.61172   0.62678   0.66501   0.72417   0.77187
 Alpha virt. eigenvalues --    0.79607   0.83991   0.89269   0.92254   0.95060
 Alpha virt. eigenvalues --    0.99803   1.04499   1.07093   1.18127   1.24029
 Alpha virt. eigenvalues --    1.32415   1.34782   1.38338   1.40754   1.41104
 Alpha virt. eigenvalues --    1.45779   1.48504   1.50089   1.50475   1.52849
 Alpha virt. eigenvalues --    1.56217   1.57674   1.64569   1.66218   1.68594
 Alpha virt. eigenvalues --    1.73018   1.76959   1.78981   1.87934   1.89966
 Alpha virt. eigenvalues --    1.93743   1.96881   2.00622   2.05457   2.17169
 Alpha virt. eigenvalues --    2.21479   2.25806   2.31008   2.34625   2.39103
 Alpha virt. eigenvalues --    2.40878   2.42845   2.43787   2.48773   2.50085
 Alpha virt. eigenvalues --    2.53452   2.57546   2.62731   2.65660   2.67219
 Alpha virt. eigenvalues --    2.70328   2.71180   2.80674   2.81330   2.86063
 Alpha virt. eigenvalues --    2.87443   3.04638   3.10621   3.13832   3.22742
 Alpha virt. eigenvalues --    3.30587   3.34008   3.59493   3.74237   3.77737
 Alpha virt. eigenvalues --    3.81219   3.85997   3.91294   3.99982   4.25078
 Alpha virt. eigenvalues --    4.68348   4.78558   4.89821   5.20055   5.41738
 Alpha virt. eigenvalues --    5.62120  23.75934  23.84142  23.93684  49.77026
 Alpha virt. eigenvalues --   49.80644
  Beta  occ. eigenvalues --  -19.16941 -19.16338 -10.22296 -10.16617 -10.16391
  Beta  occ. eigenvalues --   -1.11037  -0.91012  -0.75841  -0.68064  -0.56961
  Beta  occ. eigenvalues --   -0.50793  -0.48564  -0.46241  -0.42880  -0.40144
  Beta  occ. eigenvalues --   -0.38938  -0.37166  -0.34927  -0.30634  -0.26253
  Beta virt. eigenvalues --   -0.05991   0.01775   0.04775   0.07022   0.07878
  Beta virt. eigenvalues --    0.08558   0.13006   0.13219   0.13385   0.17842
  Beta virt. eigenvalues --    0.24172   0.27739   0.30860   0.31851   0.35991
  Beta virt. eigenvalues --    0.39738   0.40814   0.43607   0.45044   0.50466
  Beta virt. eigenvalues --    0.52528   0.55672   0.56945   0.58459   0.58780
  Beta virt. eigenvalues --    0.61155   0.61690   0.63356   0.67751   0.72825
  Beta virt. eigenvalues --    0.77567   0.79861   0.84218   0.89536   0.92524
  Beta virt. eigenvalues --    0.95730   1.01242   1.04973   1.08184   1.18539
  Beta virt. eigenvalues --    1.24293   1.32666   1.35114   1.38894   1.41796
  Beta virt. eigenvalues --    1.42147   1.46293   1.49220   1.50658   1.51055
  Beta virt. eigenvalues --    1.53199   1.57945   1.58223   1.65305   1.66944
  Beta virt. eigenvalues --    1.69016   1.73399   1.78243   1.79769   1.89519
  Beta virt. eigenvalues --    1.91966   1.93805   1.97724   2.01479   2.06101
  Beta virt. eigenvalues --    2.18010   2.21962   2.26370   2.31829   2.34811
  Beta virt. eigenvalues --    2.39834   2.41163   2.43499   2.44261   2.49098
  Beta virt. eigenvalues --    2.50758   2.53785   2.58044   2.63121   2.66131
  Beta virt. eigenvalues --    2.67565   2.70829   2.72970   2.81219   2.82491
  Beta virt. eigenvalues --    2.86843   2.90288   3.05150   3.10723   3.14315
  Beta virt. eigenvalues --    3.22973   3.30890   3.34671   3.59587   3.74337
  Beta virt. eigenvalues --    3.78247   3.81300   3.86169   3.91582   4.01472
  Beta virt. eigenvalues --    4.26442   4.68438   4.78578   4.90012   5.20315
  Beta virt. eigenvalues --    5.41872   5.62243  23.76437  23.85128  23.93606
  Beta virt. eigenvalues --   49.77051  49.80795
          Condensed to atoms (all electrons):
              1          2          3          4          5          6
     1  C    4.837262   0.318647  -0.038761  -0.058679   0.016248  -0.003270
     2  C    0.318647   5.396778   0.405248   0.371257  -0.084487   0.005343
     3  H   -0.038761   0.405248   0.554567  -0.036577   0.001858   0.001300
     4  C   -0.058679   0.371257  -0.036577   4.730661   0.241883  -0.068447
     5  O    0.016248  -0.084487   0.001858   0.241883   8.090855   0.069421
     6  O   -0.003270   0.005343   0.001300  -0.068447   0.069421   7.966768
     7  H    0.403466  -0.035675  -0.007787   0.006572   0.000192  -0.000064
     8  H    0.396243  -0.039697   0.001006  -0.004248   0.001540   0.003659
     9  H    0.404458  -0.044725   0.006492  -0.003645   0.000464  -0.000082
    10  H    0.010211  -0.064430  -0.008905   0.401045  -0.031052   0.006443
    11  H   -0.006066  -0.046891   0.005965   0.390269  -0.028453   0.006496
    12  H    0.000298  -0.000290  -0.000198   0.002394  -0.026629   0.283646
              7          8          9         10         11         12
     1  C    0.403466   0.396243   0.404458   0.010211  -0.006066   0.000298
     2  C   -0.035675  -0.039697  -0.044725  -0.064430  -0.046891  -0.000290
     3  H   -0.007787   0.001006   0.006492  -0.008905   0.005965  -0.000198
     4  C    0.006572  -0.004248  -0.003645   0.401045   0.390269   0.002394
     5  O    0.000192   0.001540   0.000464  -0.031052  -0.028453  -0.026629
     6  O   -0.000064   0.003659  -0.000082   0.006443   0.006496   0.283646
     7  H    0.581511  -0.030933  -0.028065  -0.000246   0.000047   0.000009
     8  H   -0.030933   0.571390  -0.033194  -0.000191  -0.001010  -0.000258
     9  H   -0.028065  -0.033194   0.585220   0.000277   0.004521   0.000018
    10  H   -0.000246  -0.000191   0.000277   0.608093  -0.026965   0.003395
    11  H    0.000047  -0.001010   0.004521  -0.026965   0.584399  -0.000950
    12  H    0.000009  -0.000258   0.000018   0.003395  -0.000950   0.473581
 Mulliken atomic charges:
              1
     1  C   -0.280057
     2  C   -0.181078
     3  H    0.115793
     4  C    0.027515
     5  O   -0.251838
     6  O   -0.271213
     7  H    0.110974
     8  H    0.135694
     9  H    0.108262
    10  H    0.102324
    11  H    0.118639
    12  H    0.264985
 Sum of Mulliken charges=   0.00000
 Atomic charges with hydrogens summed into heavy atoms:
              1
     1  C    0.074872
     2  C   -0.065285
     3  H    0.000000
     4  C    0.248478
     5  O   -0.251838
     6  O   -0.006228
     7  H    0.000000
     8  H    0.000000
     9  H    0.000000
    10  H    0.000000
    11  H    0.000000
    12  H    0.000000
 Sum of Mulliken charges=   0.00000
          Atomic-Atomic Spin Densities.
              1          2          3          4          5          6
     1  C   -0.056836  -0.051266   0.001002  -0.001618   0.002414  -0.000130
     2  C   -0.051266   1.152659   0.004798  -0.001507  -0.027586   0.001316
     3  H    0.001002   0.004798  -0.052443  -0.000986  -0.000360  -0.000015
     4  C   -0.001618  -0.001507  -0.000986  -0.040912  -0.016147   0.001200
     5  O    0.002414  -0.027586  -0.000360  -0.016147   0.089425  -0.003112
     6  O   -0.000130   0.001316  -0.000015   0.001200  -0.003112   0.002183
     7  H    0.006286  -0.007355   0.001001   0.000181  -0.000186   0.000004
     8  H    0.018750  -0.030736  -0.001053  -0.001875   0.003216  -0.000051
     9  H    0.005426  -0.012315   0.000042   0.002621  -0.001815   0.000048
    10  H    0.000044  -0.002148   0.000520   0.001905   0.002416  -0.000163
    11  H    0.000664  -0.020917   0.000214   0.014234  -0.011277   0.000337
    12  H   -0.000035   0.000511   0.000022   0.000098   0.000049  -0.000307
              7          8          9         10         11         12
     1  C    0.006286   0.018750   0.005426   0.000044   0.000664  -0.000035
     2  C   -0.007355  -0.030736  -0.012315  -0.002148  -0.020917   0.000511
     3  H    0.001001  -0.001053   0.000042   0.000520   0.000214   0.000022
     4  C    0.000181  -0.001875   0.002621   0.001905   0.014234   0.000098
     5  O   -0.000186   0.003216  -0.001815   0.002416  -0.011277   0.000049
     6  O    0.000004  -0.000051   0.000048  -0.000163   0.000337  -0.000307
     7  H    0.015818  -0.009416   0.004807  -0.000044   0.000411   0.000003
     8  H   -0.009416   0.094902  -0.015096   0.000217  -0.001710  -0.000091
     9  H    0.004807  -0.015096   0.032297  -0.000150   0.003277   0.000017
    10  H   -0.000044   0.000217  -0.000150   0.001706  -0.003075  -0.000103
    11  H    0.000411  -0.001710   0.003277  -0.003075   0.049904   0.000127
    12  H    0.000003  -0.000091   0.000017  -0.000103   0.000127   0.000226
 Mulliken atomic spin densities:
              1
     1  C   -0.075298
     2  C    1.005455
     3  H   -0.047259
     4  C   -0.042807
     5  O    0.037039
     6  O    0.001312
     7  H    0.011511
     8  H    0.057058
     9  H    0.019159
    10  H    0.001125
    11  H    0.032188
    12  H    0.000517
 Sum of Mulliken spin densities=   1.00000
 APT atomic charges:
              1
     1  C    0.041769
     2  C   -0.030051
     3  H   -0.000823
     4  C    0.480215
     5  O   -0.315952
     6  O   -0.316977
     7  H   -0.012758
     8  H   -0.002439
     9  H   -0.011758
    10  H   -0.054859
    11  H   -0.029180
    12  H    0.252813
 Sum of APT charges=   0.00000
 APT Atomic charges with hydrogens summed into heavy atoms:
              1
     1  C    0.014813
     2  C   -0.030873
     3  H    0.000000
     4  C    0.396176
     5  O   -0.315952
     6  O   -0.064164
     7  H    0.000000
     8  H    0.000000
     9  H    0.000000
    10  H    0.000000
    11  H    0.000000
    12  H    0.000000
 Sum of APT charges=   0.00000
 Electronic spatial extent (au):  <R**2>=  1675.5478
 Charge=     0.0000 electrons
 Dipole moment (field-independent basis, Debye):
    X=     0.4904    Y=     1.0980    Z=    -0.4480  Tot=     1.2833
 Quadrupole moment (field-independent basis, Debye-Ang):
   XX=   -30.2593   YY=   -31.7812   ZZ=   -28.7036
   XY=    -3.6431   XZ=    -2.2957   YZ=    -0.7635
 Traceless Quadrupole moment (field-independent basis, Debye-Ang):
   XX=    -0.0112   YY=    -1.5332   ZZ=     1.5444
   XY=    -3.6431   XZ=    -2.2957   YZ=    -0.7635
 Octapole moment (field-independent basis, Debye-Ang**2):
  XXX=   256.5206  YYY=     6.2859  ZZZ=    59.9320  XYY=    93.3344
  XXY=     9.1908  XXZ=    25.5322  XZZ=    91.1023  YZZ=     2.2506
  YYZ=    20.3796  XYZ=     7.4787
 Hexadecapole moment (field-independent basis, Debye-Ang**3):
 XXXX= -1693.7289 YYYY=  -145.7217 ZZZZ=  -314.6483 XXXY=    -3.7448
 XXXZ=  -109.4118 YYYX=     8.1897 YYYZ=   -16.6522 ZZZX=  -125.6678
 ZZZY=   -12.0074 XXYY=  -330.3993 XXZZ=  -346.3184 YYZZ=   -72.1501
 XXYZ=   -28.4755 YYXZ=   -40.7524 ZZXY=   -12.7246
 N-N= 1.822348246947D+02 E-N=-9.952586304345D+02  KE= 2.680178736784D+02
  Exact polarizability:  45.938  -1.884  41.183  -4.330  -0.291  44.182
 Approx polarizability:  61.438  -3.586  55.547   1.031  -0.006  57.672
                          Isotropic Fermi Contact Couplings
        Atom                 a.u.       MegaHertz       Gauss      10(-4) cm-1
     1  C(13)             -0.02928     -32.91166     -11.74370     -10.97815
     2  C(13)              0.07000      78.69898      28.08175      26.25115
     3  H(1)              -0.01277     -57.09420     -20.37263     -19.04457
     4  C(13)             -0.02177     -24.46939      -8.73129      -8.16211
     5  O(17)              0.05379     -32.60441     -11.63406     -10.87566
     6  O(17)              0.00300      -1.81572      -0.64789      -0.60566
     7  H(1)               0.00653      29.18415      10.41363       9.73479
     8  H(1)               0.02982     133.30242      47.56562      44.46490
     9  H(1)               0.00865      38.64962      13.79114      12.89213
    10  H(1)               0.00084       3.74237       1.33537       1.24832
    11  H(1)               0.01613      72.12140      25.73471      24.05711
    12  H(1)              -0.00007      -0.32161      -0.11476      -0.10728
 --------------------------------------------------------
       Center         ----  Spin Dipole Couplings  ----
                      3XX-RR        3YY-RR        3ZZ-RR
 --------------------------------------------------------
     1   Atom        0.004347      0.010023     -0.014370
     2   Atom        0.239070      0.308157     -0.547227
     3   Atom        0.000917      0.011587     -0.012504
     4   Atom       -0.013862     -0.007360      0.021222
     5   Atom       -0.118072      0.024554      0.093518
     6   Atom        0.006380     -0.002422     -0.003957
     7   Atom        0.001108     -0.005553      0.004445
     8   Atom       -0.004182      0.010784     -0.006602
     9   Atom        0.007125      0.000409     -0.007534
    10   Atom       -0.001119     -0.007031      0.008149
    11   Atom       -0.009228     -0.007446      0.016674
    12   Atom        0.002041     -0.002048      0.000008
 --------------------------------------------------------
                        XY            XZ            YZ
 --------------------------------------------------------
     1   Atom        0.002812     -0.007706     -0.008819
     2   Atom       -0.836983      0.121760     -0.124358
     3   Atom        0.009738      0.054086      0.046471
     4   Atom        0.006141     -0.002315      0.002582
     5   Atom       -0.033756     -0.020515      0.166362
     6   Atom       -0.010416     -0.002510      0.004361
     7   Atom        0.005184     -0.010274     -0.006407
     8   Atom        0.005299     -0.003019     -0.007885
     9   Atom        0.011529      0.000289      0.000976
    10   Atom        0.002186     -0.012740     -0.006393
    11   Atom       -0.003242      0.002985     -0.000917
    12   Atom       -0.002988     -0.002947      0.002097
 --------------------------------------------------------


 ---------------------------------------------------------------------------------
              Anisotropic Spin Dipole Couplings in Principal Axis System
 ---------------------------------------------------------------------------------

       Atom             a.u.   MegaHertz   Gauss  10(-4) cm-1        Axes

              Baa    -0.0191    -2.559    -0.913    -0.854  0.2745  0.2545  0.9273
     1 C(13)  Bbb     0.0036     0.484     0.173     0.161  0.8473 -0.5199 -0.1082
              Bcc     0.0155     2.075     0.741     0.692  0.4546  0.8154 -0.3584
 
              Baa    -0.5665   -76.023   -27.127   -25.359 -0.4765 -0.3407  0.8105
     2 C(13)  Bbb    -0.5628   -75.528   -26.950   -25.193  0.5464  0.6074  0.5766
              Bcc     1.1294   151.551    54.077    50.552 -0.6888  0.7176 -0.1032
 
              Baa    -0.0716   -38.208   -13.634   -12.745 -0.5236 -0.3679  0.7684
     3 H(1)   Bbb    -0.0027    -1.417    -0.506    -0.473 -0.6585  0.7471 -0.0910
              Bcc     0.0743    39.626    14.139    13.218  0.5406  0.5536  0.6335
 
              Baa    -0.0178    -2.394    -0.854    -0.799  0.8505 -0.5192  0.0847
     4 C(13)  Bbb    -0.0037    -0.497    -0.177    -0.166  0.5235  0.8511 -0.0395
              Bcc     0.0215     2.891     1.032     0.964 -0.0516  0.0780  0.9956
 
              Baa    -0.1307     9.460     3.375     3.155  0.8293  0.4824 -0.2820
     5 O(17)  Bbb    -0.1022     7.392     2.638     2.466 -0.5487  0.6077 -0.5742
              Bcc     0.2329   -16.851    -6.013    -5.621 -0.1056  0.6309  0.7686
 
              Baa    -0.0103     0.742     0.265     0.248  0.4487  0.8085 -0.3809
     6 O(17)  Bbb    -0.0041     0.300     0.107     0.100  0.4061  0.1952  0.8927
              Bcc     0.0144    -1.042    -0.372    -0.348  0.7961 -0.5552 -0.2407
 
              Baa    -0.0087    -4.639    -1.655    -1.547 -0.0905  0.9212  0.3784
     7 H(1)   Bbb    -0.0076    -4.054    -1.447    -1.352  0.7918 -0.1638  0.5883
              Bcc     0.0163     8.693     3.102     2.900 -0.6040 -0.3529  0.7146
 
              Baa    -0.0098    -5.253    -1.874    -1.752  0.2145  0.3002  0.9294
     8 H(1)   Bbb    -0.0058    -3.104    -1.107    -1.035  0.9323 -0.3466 -0.1033
              Bcc     0.0157     8.357     2.982     2.788  0.2912  0.8887 -0.3542
 
              Baa    -0.0086    -4.587    -1.637    -1.530 -0.5040  0.7001 -0.5058
     9 H(1)   Bbb    -0.0072    -3.845    -1.372    -1.283 -0.3282  0.3864  0.8619
              Bcc     0.0158     8.432     3.009     2.813  0.7989  0.6005  0.0350
 
              Baa    -0.0113    -6.031    -2.152    -2.012  0.6014  0.5538  0.5758
    10 H(1)   Bbb    -0.0074    -3.954    -1.411    -1.319 -0.5862  0.7956 -0.1530
              Bcc     0.0187     9.986     3.563     3.331 -0.5429 -0.2455  0.8031
 
              Baa    -0.0118    -6.306    -2.250    -2.103  0.8081  0.5853 -0.0658
    11 H(1)   Bbb    -0.0053    -2.808    -1.002    -0.937 -0.5769  0.8091  0.1123
              Bcc     0.0171     9.114     3.252     3.040  0.1190 -0.0528  0.9915
 
              Baa    -0.0037    -1.995    -0.712    -0.666  0.3509  0.9073 -0.2316
    12 H(1)   Bbb    -0.0021    -1.117    -0.398    -0.372  0.5742 -0.0131  0.8186
              Bcc     0.0058     3.112     1.110     1.038  0.7397 -0.4203 -0.5255
 

 ---------------------------------------------------------------------------------

 Use density number 0.
 Entering OneElI...
 Calculate overlap and kinetic energy integrals
    NBasis = 137  MinDer = 2  MaxDer = 2
 Requested accuracy = 0.1000D-12
 PrsmSu:  NPrtUS=   1 ThrOK=F
 PRISM was handed   196432801 working-precision words and  1431 shell-pairs
 Entering OneElI...
 Calculate potential energy integrals
    NBasis = 137  MinDer = 2  MaxDer = 2
 Requested accuracy = 0.1000D-12
 PrsmSu:  NPrtUS=   8 ThrOK=T
 PRISM was handed    24528071 working-precision words and  1366 shell-pairs
 PRISM was handed    24528071 working-precision words and  1366 shell-pairs
 PRISM was handed    24528071 working-precision words and  1366 shell-pairs
 PRISM was handed    24528071 working-precision words and  1366 shell-pairs
 PRISM was handed    24528071 working-precision words and  1366 shell-pairs
 PRISM was handed    24528071 working-precision words and  1366 shell-pairs
 PRISM was handed    24528071 working-precision words and  1366 shell-pairs
 PRISM was handed    24528071 working-precision words and  1366 shell-pairs
 Polarizability after L701:
                1             2             3
      1  0.459382D+02
      2 -0.188440D+01  0.411829D+02
      3 -0.432973D+01 -0.291295D+00  0.441818D+02
 Dipole Derivatives after L701:
               1            2            3            4            5
      1 0.891890D-01-0.116622D+00 0.388353D-01-0.154408D-01 0.239477D+00
      2-0.627622D-01 0.925865D-02 0.329497D-01 0.231159D+00-0.107089D+00
      3-0.117464D-01 0.973099D-01 0.268582D-01 0.491114D-01 0.106784D-01
               6            7            8            9           10
      1 0.995833D-02 0.934967D-03-0.104374D+00 0.179953D-02 0.359874D+00
      2 0.430563D-02-0.127110D+00 0.499061D-01-0.537249D-01-0.562148D-01
      3 0.323778D-01-0.346412D-01-0.323462D-01-0.533092D-01-0.112525D+00
              11           12           13           14           15
      1-0.133488D+00-0.182630D+00-0.114732D+00 0.136072D-01 0.139757D+00
      2 0.549389D+00 0.110546D+00-0.959801D-01-0.358799D+00-0.102915D+00
      3 0.147793D+00 0.531382D+00 0.143885D+00-0.168759D+00-0.474324D+00
              16           17           18           19           20
      1-0.425470D+00 0.501719D-01-0.523652D-01 0.216453D-01 0.184408D-01
      2 0.181339D+00-0.439484D+00-0.163710D-01-0.803748D-02 0.457092D-01
      3-0.365077D-01-0.711428D-01-0.859778D-01 0.932756D-01-0.659716D-01
              21           22           23           24           25
      1 0.981958D-01 0.153322D-01 0.328736D-01 0.248118D-02-0.674269D-01
      2-0.463587D-01 0.680460D-01-0.870748D-01 0.308999D-01-0.504939D-01
      3-0.105629D+00 0.279901D-02 0.661851D-01 0.644246D-01-0.702662D-01
              26           27           28           29           30
      1-0.216544D-01-0.123869D+00-0.770965D-01-0.488436D-01 0.810495D-01
      2 0.637935D-01-0.149910D-01-0.148276D+00-0.880262D-01 0.754411D-02
      3-0.469565D-02-0.316411D-01 0.776305D-01 0.242378D-01 0.546313D-03
              31           32           33           34           35
      1-0.576634D-01 0.597361D-01-0.346657D-01 0.270855D+00 0.106756D-01
      2 0.531100D-01 0.294619D-01 0.474826D-02 0.152213D-01 0.332955D+00
      3-0.105974D+00-0.418777D-01-0.593379D-01 0.495919D-02 0.385896D-01
              36
      1 0.214530D-01
      2 0.433669D-01
      3 0.154630D+00
 Hessian after L701:
                1             2             3             4             5
      1  0.111710D+02
      2 -0.128976D+01  0.116523D+02
      3  0.160814D+01  0.694934D+00  0.116343D+02
      4 -0.304320D+01  0.218017D+01 -0.136661D+01  0.108911D+02
      5  0.226608D+01 -0.304908D+01 -0.134776D+01 -0.218716D+01  0.118624D+02
      6 -0.132595D+01 -0.126944D+01 -0.449935D+01  0.225846D+01 -0.108189D+00
      7 -0.236629D-02 -0.438980D-01  0.256188D-01 -0.296517D+01  0.746799D+00
      8 -0.592105D-01  0.217000D-01  0.230545D-01  0.815665D+00 -0.289379D+01
      9  0.283085D-01  0.310201D-01  0.974653D-01  0.935502D+00  0.911712D+00
     10  0.609772D-01  0.642461D-01 -0.180000D+00 -0.563012D+01  0.177178D-01
     11  0.251712D-01 -0.404269D-01 -0.329067D-01  0.453809D-01 -0.621551D+01
     12 -0.120449D+00 -0.630031D-01  0.111040D+00 -0.142689D+01  0.231883D+00
     13 -0.934110D-01 -0.123739D+00 -0.448694D+00  0.252885D+00 -0.156968D+00
     14 -0.106524D+00 -0.306728D+00  0.180012D+00 -0.129443D+00 -0.164361D+00
     15 -0.434149D+00  0.203974D+00  0.359892D+00 -0.371694D+00  0.406358D-01
     16  0.103665D+00 -0.102399D+00 -0.169243D+00  0.560664D-01 -0.347364D+00
     17 -0.550945D-01 -0.146706D+00  0.308450D-01 -0.423673D+00  0.418883D-01
     18 -0.190837D+00  0.681306D-01 -0.532486D-01 -0.258293D+00  0.230439D+00
     19 -0.301179D+01 -0.270211D+00 -0.820401D+00  0.602309D-01 -0.198421D-01
     20 -0.243153D+00 -0.319637D+01  0.533951D+00 -0.341868D-01  0.154786D-01
     21 -0.781994D+00  0.567858D+00 -0.157809D+01 -0.381436D-01  0.388854D-01
     22 -0.314554D+01 -0.836236D+00  0.144005D+00  0.143910D-01 -0.142047D+00
     23 -0.968712D+00 -0.146328D+01 -0.295958D+00 -0.105084D+00  0.193211D+00
     24  0.233060D+00 -0.446949D+00 -0.348023D+01  0.388713D-01 -0.269973D-01
     25 -0.210146D+01  0.362639D+00  0.131409D+01  0.151437D+00 -0.589012D-01
     26  0.346624D+00 -0.346614D+01  0.311695D+00 -0.417469D-01 -0.239227D-01
     27  0.110112D+01  0.269395D+00 -0.263872D+01  0.684620D-01  0.247909D-01
     28  0.547621D-01  0.776440D-01 -0.106292D+00  0.632507D-01 -0.548576D-01
     29  0.914323D-01  0.127122D-01 -0.938991D-01 -0.789575D-01  0.119882D+00
     30 -0.964130D-01 -0.729225D-01  0.412862D-01  0.154496D+00  0.104860D+00
     31 -0.989896D-02 -0.606228D-02  0.218606D-01  0.144379D+00 -0.565521D-01
     32 -0.157603D-02 -0.105301D-01 -0.817902D-02 -0.337899D-01  0.122342D+00
     33  0.444049D-02  0.436492D-02 -0.649564D-02  0.306314D-01 -0.109762D+00
     34  0.172506D-01 -0.123957D-01 -0.224748D-01  0.476195D-02 -0.691021D-02
     35 -0.528530D-02 -0.746073D-02  0.421463D-02 -0.717775D-02 -0.855759D-02
     36 -0.252771D-01  0.126351D-01  0.122052D-01 -0.247934D-01  0.950679D-02
                6             7             8             9            10
      6  0.690420D+01
      7  0.857156D+00  0.291478D+01
      8  0.910262D+00 -0.783632D+00  0.269429D+01
      9 -0.276021D+01 -0.102983D+01 -0.112724D+01  0.260005D+01
     10 -0.136534D+01  0.825066D-01  0.778026D-02 -0.988898D-02  0.165049D+02
     11  0.129522D+00  0.254639D-01  0.801812D-01 -0.135551D-01  0.138810D+01
     12 -0.101893D+00  0.320011D-01 -0.222536D-01 -0.487220D-01  0.162908D+01
     13 -0.398688D+00 -0.422259D-01 -0.189882D-03 -0.443653D-02 -0.622955D+01
     14  0.578239D-01  0.232538D-01  0.241067D-01  0.843335D-01 -0.201559D+01
     15  0.446666D+00  0.252990D-01  0.899096D-01  0.732072D-01 -0.653008D+00
     16 -0.233370D+00 -0.262900D-01 -0.354120D-01 -0.308774D-01 -0.138194D+00
     17  0.254613D+00 -0.808336D-02  0.391758D-01  0.666707D-01 -0.173373D+00
     18 -0.162035D+00 -0.998348D-02  0.649416D-01  0.251688D-01 -0.132804D-04
     19 -0.140220D-01 -0.191273D-01 -0.186076D-01  0.184213D-01  0.113953D-01
     20  0.663237D-01 -0.231959D-01 -0.281709D-02  0.771677D-02  0.705676D-02
     21  0.596648D-01  0.741746D-02  0.471197D-02  0.106872D-02 -0.874293D-01
     22  0.356731D-01 -0.700883D-02  0.615071D-02 -0.144769D-02 -0.191751D-01
     23 -0.775601D-01  0.210739D-01  0.306154D-01  0.117209D-01  0.159923D-01
     24  0.758263D-01 -0.243781D-02 -0.265596D-02 -0.901413D-02 -0.380934D-02
     25  0.522397D-02  0.548067D-01  0.607251D-01  0.390984D-01  0.298500D-01
     26 -0.176164D-01  0.455140D-01  0.150744D-01  0.238595D-01  0.118770D-01
     27  0.888037D-01  0.289635D-01  0.242134D-01 -0.697233D-02 -0.150177D-02
     28  0.128816D+00  0.950857D-02 -0.413132D-02  0.961431D-02 -0.252264D+01
     29  0.121868D+00 -0.450168D-02  0.131524D-01  0.615560D-03  0.142846D+01
     30 -0.191099D-01  0.189686D-01  0.353521D-02 -0.511530D-01 -0.465160D+00
     31  0.656344D-01  0.382215D-02  0.156980D-01  0.511403D-01 -0.220957D+01
     32 -0.744096D-01  0.341075D-03 -0.225759D-01  0.118771D-02 -0.697803D+00
     33 -0.404248D-01  0.437903D-01  0.241123D-01  0.718641D-01  0.120371D+01
     34 -0.135950D-01 -0.323787D-02 -0.483571D-02 -0.560027D-02  0.596085D-01
     35  0.680032D-02  0.865761D-03  0.891206D-03  0.195458D-02 -0.544631D-01
     36  0.786993D-02  0.304011D-02  0.740470D-02  0.724793D-02 -0.666435D-01
               11            12            13            14            15
     11  0.120903D+02
     12 -0.212337D+01  0.127272D+02
     13 -0.207209D+01 -0.657783D+00  0.490941D+01
     14  0.211643D+00  0.296008D+01  0.413743D+01  0.377279D+01
     15  0.292292D+01 -0.581140D+01 -0.102329D+01 -0.178568D+01  0.804612D+01
     16 -0.568397D-01 -0.467540D-01  0.986379D+00 -0.220001D+01  0.274330D+01
     17  0.194733D+00 -0.347234D-01 -0.213946D+01 -0.358741D+01 -0.124994D+01
     18 -0.519833D-01 -0.110435D+00  0.286809D+01 -0.130319D+01 -0.337769D+01
     19  0.119268D-01 -0.847582D-01  0.302013D-02 -0.883068D-02 -0.309857D-01
     20 -0.352827D-01 -0.166953D-01 -0.830222D-02 -0.109628D-01  0.140475D-01
     21 -0.206124D-01  0.104486D+00 -0.361581D-01  0.179651D-01  0.419452D-01
     22 -0.887596D-02  0.113586D-01 -0.376610D-01  0.102090D-01 -0.190376D-01
     23  0.160099D-01 -0.339023D-01  0.375292D-01 -0.259151D-01 -0.753295D-01
     24 -0.127860D-01 -0.600060D-02 -0.510110D-01 -0.321355D-01  0.746441D-01
     25  0.473124D-02 -0.396797D-01  0.633250D-01 -0.124527D-01 -0.716081D-01
     26 -0.281849D-01 -0.107932D-01  0.411143D-04 -0.379618D-01  0.109217D-02
     27 -0.418823D-03 -0.111660D-01 -0.164697D-01  0.277997D-02 -0.243734D-01
     28  0.127999D+01 -0.426929D+00  0.140780D+00  0.216523D+00 -0.297177D-01
     29 -0.264255D+01 -0.436674D+00  0.155371D+00  0.181742D+00 -0.182250D+00
     30 -0.426409D+00 -0.381373D+01 -0.424441D-01 -0.171136D+00  0.102779D-02
     31 -0.580204D+00  0.118476D+01  0.560774D-01 -0.395935D-01  0.338964D-01
     32 -0.362684D+01 -0.480664D+00  0.444524D-01 -0.494148D-01 -0.215209D-01
     33 -0.408081D+00 -0.303538D+01  0.717179D-01 -0.757285D-01  0.323056D-01
     34 -0.627490D-01 -0.539579D-01 -0.902818D-02  0.125023D+00 -0.169014D+00
     35 -0.404312D-02  0.301176D-01  0.125934D+00 -0.751894D-02  0.421378D-01
     36  0.376787D-01 -0.396779D-02 -0.260835D+00  0.648726D-01  0.137665D+00
               16            17            18            19            20
     16  0.245121D+01
     17  0.333131D+01  0.896644D+01
     18 -0.311134D+00  0.739722D+00  0.680454D+01
     19  0.918884D-02 -0.770569D-02 -0.208717D-01  0.284853D+01
     20 -0.837582D-02 -0.794159D-02  0.914006D-02  0.272900D+00  0.320697D+01
     21 -0.234407D-01  0.946347D-02  0.129812D-01  0.970134D+00 -0.529078D+00
     22  0.373829D-01 -0.759499D-03 -0.578237D-01  0.316646D-01  0.456388D-01
     23  0.317636D-01 -0.400421D-01 -0.287030D-01  0.521554D-01 -0.961765D-02
     24 -0.804239D-01 -0.156337D-02  0.140974D-01  0.368203D-01 -0.624669D-01
     25  0.467010D-01 -0.740569D-02 -0.193874D-01  0.660722D-01 -0.624065D-02
     26 -0.257983D-02 -0.173203D-01  0.599197D-03 -0.161541D-01  0.453058D-01
     27  0.181129D-02 -0.718605D-03 -0.168069D-01 -0.447709D-01 -0.273632D-01
     28 -0.490873D-01 -0.171221D-01  0.218831D-03  0.265804D-02 -0.148818D-02
     29 -0.801595D-01  0.461874D-01 -0.239327D-01  0.317716D-02 -0.201021D-02
     30  0.185566D-01 -0.320516D-01 -0.705497D-01 -0.661703D-03  0.209821D-02
     31  0.129254D+00 -0.134936D+00  0.700990D-01 -0.480464D-02  0.116506D-02
     32 -0.127489D+00  0.289662D-01 -0.470957D-01  0.196565D-02 -0.243485D-02
     33  0.758286D-01 -0.575279D-01 -0.320287D-01 -0.466226D-02  0.137914D-03
     34 -0.360627D+01 -0.363698D+00 -0.207006D+01  0.296000D-02 -0.181828D-02
     35 -0.402448D+00 -0.551797D+01  0.341929D+00 -0.773862D-03 -0.315255D-03
     36 -0.194426D+01  0.275211D+00 -0.303398D+01 -0.424142D-02  0.218740D-02
               21            22            23            24            25
     21  0.133599D+01
     22  0.173958D-01  0.312862D+01
     23 -0.390455D-01  0.871858D+00  0.123815D+01
     24  0.497966D-01 -0.106723D+00  0.538319D+00  0.324202D+01
     25 -0.218106D-01  0.942665D-03  0.381115D-01 -0.639697D-01  0.167978D+01
     26 -0.394685D-01  0.581205D-01  0.507579D-01  0.502704D-01 -0.417253D+00
     27 -0.491312D-01 -0.308516D-01  0.160829D-01  0.379317D-01 -0.109350D+01
     28 -0.694743D-02 -0.310957D-02  0.790897D-02 -0.261987D-02  0.127042D-01
     29 -0.609075D-02 -0.186914D-02  0.763295D-02 -0.346633D-02  0.119454D-01
     30  0.181365D-02  0.114531D-02 -0.407334D-02 -0.487981D-04 -0.652503D-02
     31  0.652203D-02  0.284962D-02 -0.780901D-02  0.325369D-02 -0.116559D-01
     32 -0.563294D-02 -0.257782D-02  0.344631D-02  0.600847D-03  0.252263D-01
     33  0.131555D-01  0.401377D-02 -0.477511D-02 -0.546825D-03 -0.341456D-01
     34 -0.554475D-02 -0.335085D-02  0.521086D-02 -0.101136D-02  0.750031D-02
     35  0.104362D-02  0.387407D-03 -0.963786D-03 -0.169685D-03 -0.112529D-02
     36  0.632725D-02  0.229125D-02 -0.677607D-02  0.152815D-02 -0.779016D-02
               26            27            28            29            30
     26  0.345914D+01
     27 -0.290122D+00  0.261554D+01
     28  0.674837D-02  0.943397D-03  0.237674D+01
     29  0.181481D-02  0.116570D-02 -0.144644D+01  0.215545D+01
     30 -0.304909D-02 -0.250869D-02  0.461698D+00  0.612354D+00  0.385568D+01
     31  0.856624D-02 -0.157595D-01 -0.810034D-01 -0.392173D-01 -0.421938D-01
     32  0.242471D-02 -0.196100D-01 -0.472278D-01  0.696682D-01 -0.174995D-01
     33 -0.259494D-01  0.105373D-01 -0.286274D-01 -0.136483D-01  0.707799D-01
     34  0.242281D-03  0.154872D-02 -0.455464D-02 -0.392407D-01 -0.146696D-02
     35 -0.980458D-03 -0.195845D-03 -0.175526D-01  0.363239D-01  0.429316D-02
     36 -0.518008D-03 -0.312899D-02 -0.157066D-03  0.239580D-01 -0.134872D-01
               31            32            33            34            35
     31  0.198080D+01
     32  0.834653D+00  0.348935D+01
     33 -0.137048D+01  0.667702D+00  0.291888D+01
     34 -0.256290D-03  0.382479D-02  0.378104D-02  0.353462D+01
     35  0.429100D-02 -0.440071D-02 -0.845054D-03  0.357347D+00  0.551500D+01
     36 -0.873335D-02  0.512040D-02 -0.264463D-02  0.233740D+01 -0.431280D+00
               36
     36  0.288437D+01
 ReadGW:  IGet=0 IStart=          90 Next=        5423 LGW=        5333.
 ICntrl=12127.
 Symmetry not used in FoFDir.
 MinBra= 0 MaxBra= 2 Meth= 1.
 IRaf=       0 NMat=   1 IRICut=       1 DoRegI=T DoRafI=F ISym2E= 0 JSym2E=0.
 PrsmSu:  NPrtUS=   8 ThrOK=T
 PRISM was handed    24520360 working-precision words and  1407 shell-pairs
 PRISM was handed    24520360 working-precision words and  1407 shell-pairs
 PRISM was handed    24520360 working-precision words and  1407 shell-pairs
 PRISM was handed    24520360 working-precision words and  1407 shell-pairs
 PRISM was handed    24520360 working-precision words and  1407 shell-pairs
 PRISM was handed    24520360 working-precision words and  1407 shell-pairs
 PRISM was handed    24520360 working-precision words and  1407 shell-pairs
 PRISM was handed    24520360 working-precision words and  1407 shell-pairs
 Pruned (  75, 302) grid will be used in CalDFT.
 CkSvGd:  ISavGI=        -1 IRadAn=       4 IRASav=       4 ISavGd=        -1.
 CalDSu:  NPrtUS=   8 ThrOK=T
 IPart= 0 IRanGd=          0 ScrnBf=T ScrnGd=T RCrit=4.00D+00 DoMicB=T.
 IPart= 5 IRanGd=          0 ScrnBf=T ScrnGd=T RCrit=4.00D+00 DoMicB=T.
 IPart= 7 IRanGd=          0 ScrnBf=T ScrnGd=T RCrit=4.00D+00 DoMicB=T.
 IPart= 2 IRanGd=          0 ScrnBf=T ScrnGd=T RCrit=4.00D+00 DoMicB=T.
 CutRad = 1000.00    CtRdIn =    0.00    XCrit =  15.00   ICut = 0
 CutRad = 1000.00    CtRdIn =    0.00    XCrit =  15.00   ICut = 0
 CutRad = 1000.00    CtRdIn =    0.00    XCrit =  15.00   ICut = 0
 CutRad = 1000.00    CtRdIn =    0.00    XCrit =  15.00   ICut = 0
 IPart= 1 IRanGd=          0 ScrnBf=T ScrnGd=T RCrit=4.00D+00 DoMicB=T.
 IPart= 4 IRanGd=          0 ScrnBf=T ScrnGd=T RCrit=4.00D+00 DoMicB=T.
 IPart= 6 IRanGd=          0 ScrnBf=T ScrnGd=T RCrit=4.00D+00 DoMicB=T.
 CutRad = 1000.00    CtRdIn =    0.00    XCrit =  15.00   ICut = 0
 CutRad = 1000.00    CtRdIn =    0.00    XCrit =  15.00   ICut = 0
 IPart= 3 IRanGd=          0 ScrnBf=T ScrnGd=T RCrit=4.00D+00 DoMicB=T.
 CutRad = 1000.00    CtRdIn =    0.00    XCrit =  15.00   ICut = 0
 CutRad = 1000.00    CtRdIn =    0.00    XCrit =  15.00   ICut = 0
 IPart= 0        10359 of        11322 points in      23 batches and       74 microbatches, Max-NSigAt=      12 Max-NSgAt2=      12
 IPart= 7        10479 of        11832 points in      24 batches and       68 microbatches, Max-NSigAt=      12 Max-NSgAt2=      12
 IPart= 4        10325 of        11732 points in      25 batches and       87 microbatches, Max-NSigAt=      12 Max-NSgAt2=      12
 IPart= 6        10372 of        11364 points in      23 batches and       72 microbatches, Max-NSigAt=      12 Max-NSgAt2=      12
 IPart= 2        11011 of        11976 points in      25 batches and       95 microbatches, Max-NSigAt=      12 Max-NSgAt2=      12
 IPart= 1        11892 of        13518 points in      28 batches and       85 microbatches, Max-NSigAt=      12 Max-NSgAt2=      12
 IPart= 5         9993 of        11146 points in      23 batches and       71 microbatches, Max-NSigAt=      12 Max-NSgAt2=      12
 IPart= 3        11499 of        12910 points in      25 batches and       64 microbatches, Max-NSigAt=      12 Max-NSgAt2=      12
 Polarizability after L703:
                1             2             3
      1  0.459382D+02
      2 -0.188440D+01  0.411829D+02
      3 -0.432973D+01 -0.291295D+00  0.441818D+02
 Dipole Derivatives after L703:
               1            2            3            4            5
      1 0.891890D-01-0.116622D+00 0.388353D-01-0.154408D-01 0.239477D+00
      2-0.627622D-01 0.925865D-02 0.329497D-01 0.231159D+00-0.107089D+00
      3-0.117464D-01 0.973099D-01 0.268582D-01 0.491114D-01 0.106784D-01
               6            7            8            9           10
      1 0.995833D-02 0.934967D-03-0.104374D+00 0.179953D-02 0.359874D+00
      2 0.430563D-02-0.127110D+00 0.499061D-01-0.537249D-01-0.562148D-01
      3 0.323778D-01-0.346412D-01-0.323462D-01-0.533092D-01-0.112525D+00
              11           12           13           14           15
      1-0.133488D+00-0.182630D+00-0.114732D+00 0.136072D-01 0.139757D+00
      2 0.549389D+00 0.110546D+00-0.959801D-01-0.358799D+00-0.102915D+00
      3 0.147793D+00 0.531382D+00 0.143885D+00-0.168759D+00-0.474324D+00
              16           17           18           19           20
      1-0.425470D+00 0.501719D-01-0.523652D-01 0.216453D-01 0.184408D-01
      2 0.181339D+00-0.439484D+00-0.163710D-01-0.803748D-02 0.457092D-01
      3-0.365077D-01-0.711428D-01-0.859778D-01 0.932756D-01-0.659716D-01
              21           22           23           24           25
      1 0.981958D-01 0.153322D-01 0.328736D-01 0.248118D-02-0.674269D-01
      2-0.463587D-01 0.680460D-01-0.870748D-01 0.308999D-01-0.504939D-01
      3-0.105629D+00 0.279901D-02 0.661851D-01 0.644246D-01-0.702662D-01
              26           27           28           29           30
      1-0.216544D-01-0.123869D+00-0.770965D-01-0.488436D-01 0.810495D-01
      2 0.637935D-01-0.149910D-01-0.148276D+00-0.880262D-01 0.754411D-02
      3-0.469565D-02-0.316411D-01 0.776305D-01 0.242378D-01 0.546313D-03
              31           32           33           34           35
      1-0.576634D-01 0.597361D-01-0.346657D-01 0.270855D+00 0.106756D-01
      2 0.531100D-01 0.294619D-01 0.474826D-02 0.152213D-01 0.332955D+00
      3-0.105974D+00-0.418777D-01-0.593379D-01 0.495919D-02 0.385896D-01
              36
      1 0.214530D-01
      2 0.433669D-01
      3 0.154630D+00
 Hessian after L703:
                1             2             3             4             5
      1  0.501973D+00
      2 -0.303019D-02  0.469892D+00
      3  0.682309D-02  0.297789D-01  0.554444D+00
      4 -0.131663D+00 -0.788702D-01  0.360270D-01  0.344395D+00
      5 -0.833550D-01 -0.124912D+00  0.301651D-01  0.237859D+00  0.338884D+00
      6  0.359773D-01  0.291642D-01 -0.105823D+00  0.107656D-01  0.644570D-01
      7 -0.606143D-02 -0.811236D-02 -0.102927D-01 -0.124797D+00 -0.110436D+00
      8 -0.115422D-01 -0.418863D-02 -0.143897D-01 -0.105705D+00 -0.115234D+00
      9  0.835379D-02  0.751077D-02  0.952902D-02 -0.949442D-01 -0.101419D+00
     10 -0.441474D-02 -0.210085D-03  0.201794D-01 -0.813629D-01 -0.231840D-01
     11 -0.137587D-02  0.237891D-02  0.230380D-01 -0.299927D-01 -0.674545D-01
     12  0.743030D-02 -0.110898D-03 -0.103882D-01  0.236458D-01  0.142570D-01
     13  0.993761D-03 -0.444748D-03 -0.369934D-03  0.955857D-03  0.903308D-02
     14 -0.259691D-02  0.187801D-02  0.792445D-03  0.936970D-02 -0.107105D-01
     15 -0.188099D-02  0.200818D-02  0.220056D-02  0.472874D-02 -0.404650D-01
     16 -0.636709D-03  0.124764D-03 -0.165551D-03  0.160458D-02 -0.297254D-03
     17 -0.483864D-04 -0.131446D-03 -0.100455D-03 -0.802403D-03  0.130260D-02
     18  0.131899D-03  0.238688D-03 -0.635397D-04  0.302570D-02  0.205278D-03
     19 -0.841661D-01  0.290260D-01  0.820833D-01 -0.623684D-02  0.619949D-02
     20  0.292167D-01 -0.694929D-01 -0.754382D-01 -0.815433D-02  0.548385D-02
     21  0.813981D-01 -0.752617D-01 -0.244653D+00  0.340785D-02 -0.128868D-02
     22 -0.864423D-01  0.897520D-01 -0.148342D-01  0.899844D-02 -0.204108D-01
     23  0.101568D+00 -0.231329D+00  0.312070D-01 -0.317421D-02 -0.224929D-01
     24 -0.176162D-01  0.336700D-01 -0.471048D-01 -0.207272D-02  0.115218D-01
     25 -0.191322D+00 -0.288088D-01 -0.121080D+00 -0.157524D-01 -0.691694D-02
     26 -0.286703D-01 -0.459419D-01 -0.252299D-01 -0.187412D-01 -0.836492D-02
     27 -0.119483D+00 -0.241140D-01 -0.153484D+00  0.848282D-02  0.546250D-03
     28  0.997466D-03  0.453992D-03  0.132637D-02 -0.426109D-02 -0.428920D-02
     29 -0.208130D-03  0.131776D-02 -0.200880D-03 -0.186529D-02  0.179666D-02
     30  0.177951D-04 -0.193371D-02 -0.517486D-02  0.256084D-01  0.216818D-01
     31  0.936040D-03  0.521350D-04  0.352509D-03  0.803482D-02 -0.329224D-02
     32  0.458612D-04  0.572059D-03  0.215872D-03  0.256162D-03  0.199463D-02
     33 -0.967316D-03 -0.906766D-03  0.479707D-03 -0.192944D-01  0.497946D-03
     34 -0.193212D-03  0.673940D-04 -0.489705D-04  0.849158D-04 -0.910021D-03
     35 -0.361631D-05 -0.431216D-04  0.161770D-03 -0.179600D-03 -0.292465D-03
     36 -0.184833D-03 -0.436261D-04  0.387606D-04  0.619432D-03 -0.158971D-03
                6             7             8             9            10
      6  0.543664D+00
      7 -0.994352D-01  0.126838D+00
      8 -0.978205D-01  0.116716D+00  0.116724D+00
      9 -0.165414D+00  0.100223D+00  0.106064D+00  0.171828D+00
     10  0.354973D-01  0.734930D-02 -0.291871D-02 -0.163646D-01  0.571027D+00
     11  0.132541D-01  0.186242D-02  0.590652D-02 -0.139977D-01  0.887215D-01
     12 -0.212319D+00  0.816157D-02  0.101154D-02 -0.108964D-01  0.324256D-01
     13  0.670615D-02 -0.509236D-03  0.116257D-02  0.225551D-03 -0.651818D-01
     14 -0.257666D-01  0.194342D-02 -0.153797D-02 -0.333065D-03 -0.224044D-01
     15 -0.256321D-01  0.195245D-02 -0.760200D-04 -0.415814D-02 -0.114201D-01
     16  0.139423D-02 -0.437916D-03 -0.147781D-04  0.509354D-03 -0.239483D-01
     17 -0.649783D-03  0.153293D-03 -0.609423D-04  0.305911D-04  0.381328D-01
     18  0.146426D-02 -0.774812D-04 -0.477340D-04  0.928494D-03  0.861884D-02
     19  0.194649D-01  0.603350D-03  0.557280D-03 -0.524098D-03 -0.195719D-02
     20  0.236838D-01  0.796924D-03  0.705353D-03 -0.639976D-03 -0.303624D-02
     21 -0.113240D-01 -0.512820D-03  0.945612D-03  0.937088D-03  0.285012D-02
     22  0.408586D-02 -0.120701D-02  0.729268D-03 -0.109417D-03  0.475165D-04
     23  0.812940D-02 -0.784806D-03 -0.384215D-03  0.558490D-03  0.194110D-03
     24 -0.355174D-02 -0.419446D-03  0.518829D-03 -0.175776D-03  0.790894D-03
     25 -0.129353D-01 -0.211891D-02 -0.866300D-03  0.193441D-02  0.124241D-02
     26 -0.146267D-01 -0.326440D-02 -0.171574D-02  0.205841D-02  0.854436D-03
     27  0.100293D-01  0.874877D-03  0.229564D-02 -0.208949D-03  0.763256D-03
     28 -0.115992D-02  0.552860D-03  0.491767D-03  0.440193D-03 -0.198477D+00
     29  0.988917D-03  0.837708D-03  0.457128D-04  0.140961D-03 -0.113749D+00
     30 -0.714822D-02 -0.536734D-03 -0.236320D-03  0.891720D-03  0.431832D-01
     31  0.191613D-03 -0.235347D-03  0.129907D-02  0.468907D-03 -0.199915D+00
     32 -0.118484D-02  0.269838D-03 -0.325103D-03  0.156192D-04  0.325884D-01
     33 -0.239331D-01  0.142584D-03  0.158548D-02 -0.341633D-02 -0.113797D+00
     34 -0.552610D-03  0.232376D-04  0.907244D-04 -0.212471D-03 -0.440958D-02
     35  0.371008D-03  0.178294D-04  0.648569D-04  0.110385D-04  0.501125D-02
     36 -0.124777D-04 -0.796617D-04  0.148891D-03  0.154876D-03 -0.272645D-02
               11            12            13            14            15
     11  0.416827D+00
     12 -0.521676D-01  0.490023D+00
     13  0.112075D-01  0.599453D-02  0.266284D+00
     14 -0.149783D+00 -0.527045D-01 -0.746860D-01  0.264855D+00
     15 -0.440927D-01 -0.807956D-01  0.732209D-01  0.796836D-01  0.172095D+00
     16  0.116061D-01 -0.142148D-01 -0.165331D+00  0.590047D-01 -0.775786D-01
     17 -0.103274D-01  0.251883D-01  0.329626D-01 -0.484287D-01  0.347928D-02
     18  0.584575D-02  0.702972D-02 -0.491701D-01  0.226174D-02 -0.885628D-01
     19 -0.254009D-02 -0.629135D-03  0.216174D-03  0.175395D-03 -0.278348D-03
     20 -0.313469D-02  0.487517D-03  0.528480D-03  0.484634D-03 -0.522586D-03
     21  0.876278D-03  0.847288D-03 -0.159636D-03  0.209547D-03  0.194716D-03
     22 -0.874967D-03 -0.106549D-02 -0.305379D-03  0.872234D-03  0.101753D-02
     23 -0.234081D-02 -0.245909D-02  0.304370D-03  0.159526D-02  0.488138D-03
     24  0.136106D-02  0.120835D-02 -0.392641D-03 -0.111350D-02 -0.497145D-03
     25 -0.507846D-03 -0.196980D-02  0.128907D-04  0.976147D-03  0.620184D-03
     26  0.968422D-03 -0.942815D-03 -0.124092D-03  0.657485D-04  0.339493D-03
     27 -0.680604D-03  0.107336D-02  0.715767D-04  0.189567D-04 -0.207369D-03
     28 -0.118911D+00  0.431182D-01  0.755310D-02  0.857223D-02 -0.296370D-02
     29 -0.137461D+00  0.379969D-01 -0.184038D-01 -0.391453D-01 -0.518742D-02
     30  0.325553D-01 -0.643549D-01 -0.112103D-01 -0.127742D-01  0.394503D-02
     31  0.403713D-01 -0.101490D+00 -0.137881D-01  0.765836D-02 -0.622229D-02
     32 -0.550841D-01  0.297629D-01  0.307042D-01 -0.158888D-01  0.148011D-01
     33  0.361153D-01 -0.118916D+00  0.518605D-02 -0.532257D-03  0.598158D-02
     34  0.433797D-03 -0.140700D-02 -0.308994D-01  0.111151D-01  0.188042D-01
     35 -0.495851D-03 -0.319292D-03  0.775584D-02 -0.338454D-02 -0.104560D-01
     36 -0.210713D-02 -0.251088D-02 -0.301022D-01  0.102579D-01  0.154359D-01
               16            17            18            19            20
     16  0.356985D+00
     17 -0.105452D+00  0.657828D-01
     18 -0.160183D+00  0.111314D-01  0.446531D+00
     19 -0.723691D-05  0.107175D-03 -0.844566D-05  0.860737D-01
     20 -0.579967D-04  0.151790D-03 -0.609143D-04 -0.305456D-01  0.782661D-01
     21  0.844457D-04 -0.236223D-04  0.260075D-05 -0.931875D-01  0.796544D-01
     22  0.656797D-04 -0.493526D-05 -0.735133D-04 -0.555548D-02  0.100326D-01
     23 -0.309350D-03  0.196648D-03 -0.124290D-03  0.548349D-02 -0.952800D-02
     24  0.224754D-03 -0.258202D-03 -0.772818D-05  0.126356D-01 -0.258778D-01
     25  0.117038D-03  0.141818D-03 -0.767039D-05  0.110035D-01  0.153182D-02
     26  0.108861D-03 -0.123821D-03 -0.571381D-04 -0.823616D-02 -0.275117D-02
     27  0.674271D-04  0.230076D-04 -0.963090D-05 -0.208584D-01 -0.226911D-02
     28  0.415120D-02 -0.457238D-03 -0.214725D-03 -0.817096D-04 -0.382864D-03
     29 -0.312358D-03  0.514343D-02 -0.952894D-04 -0.119478D-03 -0.123675D-03
     30  0.858202D-03  0.123536D-02 -0.604724D-03  0.948220D-03  0.112502D-02
     31  0.164757D-02  0.310764D-02  0.204982D-02  0.449642D-04  0.100740D-03
     32  0.488315D-02 -0.695073D-02 -0.247536D-02 -0.399781D-04 -0.497870D-04
     33  0.387835D-02 -0.386166D-02  0.149771D-02  0.315392D-03 -0.100838D-03
     34 -0.174209D+00  0.321601D-01  0.195909D+00  0.628889D-04 -0.302549D-04
     35  0.307167D-01 -0.655419D-02 -0.168222D-01 -0.675750D-04 -0.114868D-04
     36  0.245126D+00 -0.361943D-01 -0.368205D+00  0.385812D-04 -0.414057D-04
               21            22            23            24            25
     21  0.265923D+00
     22 -0.189813D-02  0.963314D-01
     23  0.882575D-03 -0.102519D+00  0.259948D+00
     24  0.434591D-02  0.170963D-01 -0.383750D-01  0.497752D-01
     25  0.780462D-02 -0.116692D-01 -0.854301D-03 -0.104820D-01  0.208054D+00
     26 -0.593813D-02  0.220357D-01  0.388488D-02  0.189835D-01  0.353890D-01
     27 -0.159282D-01 -0.432590D-02 -0.690883D-03 -0.416344D-02  0.134997D+00
     28  0.315519D-03 -0.838263D-04 -0.923337D-04  0.257381D-03  0.454911D-03
     29 -0.254069D-04  0.383103D-04  0.178303D-03 -0.245303D-03 -0.481063D-04
     30 -0.772558D-03  0.658277D-04  0.208874D-03 -0.180871D-03 -0.448124D-04
     31 -0.830452D-04 -0.141054D-03  0.192926D-03 -0.108209D-03 -0.447939D-04
     32 -0.572845D-04  0.223108D-03  0.246609D-03 -0.122478D-03  0.800121D-05
     33  0.377129D-03  0.275035D-03  0.283659D-03  0.233300D-03  0.109060D-02
     34 -0.194738D-04 -0.387516D-04 -0.920708D-05  0.863293D-04  0.233335D-04
     35  0.264158D-04  0.126231D-03  0.256495D-04 -0.628988D-04 -0.445662D-04
     36  0.495473D-04 -0.233833D-03 -0.108879D-03  0.118746D-03  0.731784D-04
               26            27            28            29            30
     26  0.541584D-01
     27  0.249484D-01  0.162370D+00
     28  0.335258D-03 -0.183354D-03  0.205616D+00
     29 -0.138034D-03 -0.584088D-04  0.129177D+00  0.162349D+00
     30 -0.206445D-03  0.258374D-03 -0.471111D-01 -0.311814D-01  0.688270D-01
     31  0.285264D-03 -0.415812D-03 -0.167696D-01  0.491829D-02 -0.120877D-01
     32 -0.571945D-04 -0.305855D-05 -0.148127D-01  0.691086D-02 -0.105412D-01
     33  0.680517D-03  0.279909D-03  0.526252D-02 -0.219435D-02  0.422422D-02
     34  0.276455D-04  0.965716D-05  0.347340D-03 -0.265049D-03  0.308928D-03
     35  0.152711D-04 -0.161687D-04 -0.846744D-04 -0.874511D-03  0.670184D-04
     36 -0.912581D-05 -0.898340D-05  0.912603D-03  0.616685D-04  0.898089D-04
               31            32            33            34            35
     31  0.220187D+00
     32 -0.548738D-01  0.697081D-01
     33  0.117665D+00 -0.315635D-01  0.132883D+00
     34  0.428344D-04  0.747785D-03  0.243663D-03  0.209166D+00
     35  0.180263D-03 -0.107654D-02 -0.350568D-05 -0.434280D-01  0.126269D-01
     36 -0.321037D-03  0.115225D-02  0.308789D-03 -0.213121D+00  0.270428D-01
               36
     36  0.354541D+00
 FrcOut:
 IF    =   778 IFX   =   814 IFXYZ =   850
 IFFX  =   886 IFFFX =  1552 IFLen =    36
 IFFLen=   666 IFFFLn=     0 IEDerv=  1552
 LEDerv=  1781 IFroze=  3337 ICStrt= 38578
 DipoleDeriv   = 8.91890419D-02-6.27622449D-02-1.17464319D-02
                -1.16622286D-01 9.25864904D-03 9.73098819D-02
                 3.88353390D-02 3.29497113D-02 2.68582166D-02
                -1.54408078D-02 2.31158720D-01 4.91114097D-02
                 2.39477022D-01-1.07088944D-01 1.06783709D-02
                 9.95833442D-03 4.30562504D-03 3.23777584D-02
                 9.34966893D-04-1.27110159D-01-3.46411986D-02
                -1.04373878D-01 4.99061482D-02-3.23462308D-02
                 1.79953098D-03-5.37249233D-02-5.33092165D-02
                 3.59873841D-01-5.62148194D-02-1.12525208D-01
                -1.33488036D-01 5.49389278D-01 1.47792622D-01
                -1.82630007D-01 1.10545970D-01 5.31381750D-01
                -1.14731800D-01-9.59801367D-02 1.43885402D-01
                 1.36072458D-02-3.58799306D-01-1.68759399D-01
                 1.39757255D-01-1.02914812D-01-4.74323798D-01
                -4.25470489D-01 1.81338876D-01-3.65077403D-02
                 5.01719487D-02-4.39484131D-01-7.11427777D-02
                -5.23651512D-02-1.63709875D-02-8.59778477D-02
                 2.16452867D-02-8.03747668D-03 9.32756411D-02
                 1.84407788D-02 4.57091726D-02-6.59716375D-02
                 9.81958396D-02-4.63587052D-02-1.05628986D-01
                 1.53322205D-02 6.80459533D-02 2.79901074D-03
                 3.28735633D-02-8.70748486D-02 6.61851238D-02
                 2.48118479D-03 3.08998501D-02 6.44245672D-02
                -6.74269303D-02-5.04938596D-02-7.02661672D-02
                -2.16544099D-02 6.37935259D-02-4.69564863D-03
                -1.23869157D-01-1.49910221D-02-3.16410834D-02
                -7.70965280D-02-1.48276143D-01 7.76304996D-02
                -4.88436333D-02-8.80261750D-02 2.42377742D-02
                 8.10495411D-02 7.54410734D-03 5.46312580D-04
                -5.76634093D-02 5.31099843D-02-1.05974410D-01
                 5.97360523D-02 2.94618955D-02-4.18776778D-02
                -3.46657204D-02 4.74825650D-03-5.93379405D-02
                 2.70854608D-01 1.52213057D-02 4.95919269D-03
                 1.06756320D-02 3.32954734D-01 3.85895990D-02
                 2.14530097D-02 4.33669296D-02 1.54630268D-01
 Full mass-weighted force constant matrix:
 Low frequencies ---   -7.8579   -0.0007    0.0008    0.0009   12.7444   16.8871
 Low frequencies ---   49.6928   96.9750  148.6834
 Dipole derivatives wrt mode   1:  1.08347D+00 -4.22236D-01 -5.23120D-02
 Vibrational polarizability contributions from mode   1      12.8178402       1.9466593       0.0298801
 Vibrational hyperpolarizability contributions from mode   1       0.0000000       0.0000000       0.0000000
 Dipole derivatives wrt mode   2: -2.13109D-01  3.05042D-01  3.26264D-01
 Vibrational polarizability contributions from mode   2       0.1301153       0.2665901       0.3049742
 Vibrational hyperpolarizability contributions from mode   2       0.0000000       0.0000000       0.0000000
 Dipole derivatives wrt mode   3: -2.53599D+00 -5.23059D+00 -2.78102D+00
 Vibrational polarizability contributions from mode   3       7.8291471      33.3059386       9.4152150
 Vibrational hyperpolarizability contributions from mode   3       0.0000000       0.0000000       0.0000000
 Dipole derivatives wrt mode   4: -1.86132D+00 -9.02601D+00 -6.43538D-01
 Vibrational polarizability contributions from mode   4       2.9747083      69.9507144       0.3555891
 Vibrational hyperpolarizability contributions from mode   4       0.0000000       0.0000000       0.0000000
 Dipole derivatives wrt mode   5: -1.51028D+00 -9.45310D-01  1.59709D+00
 Vibrational polarizability contributions from mode   5       1.0066063       0.3943612       1.1256520
 Vibrational hyperpolarizability contributions from mode   5       0.0000000       0.0000000       0.0000000
 Dipole derivatives wrt mode   6: -1.06205D-01 -2.39220D+00  2.72704D-01
 Vibrational polarizability contributions from mode   6       0.0019234       0.9758060       0.0126809
 Vibrational hyperpolarizability contributions from mode   6       0.0000000       0.0000000       0.0000000
 Dipole derivatives wrt mode   7: -3.20307D+00  2.52206D+00  8.77478D-01
 Vibrational polarizability contributions from mode   7       1.5379616       0.9535040       0.1154211
 Vibrational hyperpolarizability contributions from mode   7       0.0000000       0.0000000       0.0000000
 Dipole derivatives wrt mode   8:  1.73934D+00 -2.87168D+00  2.42677D+00
 Vibrational polarizability contributions from mode   8       0.2272307       0.6193993       0.4423370
 Vibrational hyperpolarizability contributions from mode   8       0.0000000       0.0000000       0.0000000
 Dipole derivatives wrt mode   9:  1.98921D+00 -4.84010D+00 -1.18195D+00
 Vibrational polarizability contributions from mode   9       0.1489470       0.8818161       0.0525855
 Vibrational hyperpolarizability contributions from mode   9       0.0000000       0.0000000       0.0000000
 Dipole derivatives wrt mode  10:  1.11018D+00 -1.79396D-01 -2.21756D+00
 Vibrational polarizability contributions from mode  10       0.0429135       0.0011206       0.1712209
 Vibrational hyperpolarizability contributions from mode  10       0.0000000       0.0000000       0.0000000
 Dipole derivatives wrt mode  11: -2.56134D-04  9.50573D-02  5.09571D-01
 Vibrational polarizability contributions from mode  11       0.0000000       0.0002760       0.0079320
 Vibrational hyperpolarizability contributions from mode  11       0.0000000       0.0000000       0.0000000
 Dipole derivatives wrt mode  12:  1.03756D-02  2.65222D+00  3.93380D+00
 Vibrational polarizability contributions from mode  12       0.0000032       0.2097023       0.4613276
 Vibrational hyperpolarizability contributions from mode  12       0.0000000       0.0000000       0.0000000
 Dipole derivatives wrt mode  13: -3.62067D-01 -6.51951D-01 -4.70283D-01
 Vibrational polarizability contributions from mode  13       0.0035654       0.0115600       0.0060151
 Vibrational hyperpolarizability contributions from mode  13       0.0000000       0.0000000       0.0000000
 Dipole derivatives wrt mode  14:  1.08954D-01 -6.79299D-01 -9.23182D-01
 Vibrational polarizability contributions from mode  14       0.0002485       0.0096579       0.0178376
 Vibrational hyperpolarizability contributions from mode  14       0.0000000       0.0000000       0.0000000
 Dipole derivatives wrt mode  15:  4.99256D-01 -5.21506D-01 -1.74109D+00
 Vibrational polarizability contributions from mode  15       0.0050754       0.0055379       0.0617259
 Vibrational hyperpolarizability contributions from mode  15       0.0000000       0.0000000       0.0000000
 Dipole derivatives wrt mode  16:  1.46494D-01  5.81059D-01  2.05928D+00
 Vibrational polarizability contributions from mode  16       0.0003551       0.0055865       0.0701671
 Vibrational hyperpolarizability contributions from mode  16       0.0000000       0.0000000       0.0000000
 Dipole derivatives wrt mode  17: -4.08288D+00  1.40853D+00 -2.43673D+00
 Vibrational polarizability contributions from mode  17       0.2450214       0.0291609       0.0872744
 Vibrational hyperpolarizability contributions from mode  17       0.0000000       0.0000000       0.0000000
 Dipole derivatives wrt mode  18: -5.83015D+00  2.55354D+00  1.45978D+00
 Vibrational polarizability contributions from mode  18       0.4851580       0.0930697       0.0304159
 Vibrational hyperpolarizability contributions from mode  18       0.0000000       0.0000000       0.0000000
 Dipole derivatives wrt mode  19:  1.02699D+00 -1.21475D+00 -9.57387D-02
 Vibrational polarizability contributions from mode  19       0.0148728       0.0208081       0.0001293
 Vibrational hyperpolarizability contributions from mode  19       0.0000000       0.0000000       0.0000000
 Dipole derivatives wrt mode  20:  2.21039D+00  1.71114D+00 -1.42903D+00
 Vibrational polarizability contributions from mode  20       0.0661580       0.0396473       0.0276520
 Vibrational hyperpolarizability contributions from mode  20       0.0000000       0.0000000       0.0000000
 Dipole derivatives wrt mode  21:  3.36777D-01 -1.08093D+00  1.04457D+00
 Vibrational polarizability contributions from mode  21       0.0014396       0.0148310       0.0138500
 Vibrational hyperpolarizability contributions from mode  21       0.0000000       0.0000000       0.0000000
 Dipole derivatives wrt mode  22:  2.55435D+00 -1.91263D+00  3.10763D-01
 Vibrational polarizability contributions from mode  22       0.0807330       0.0452639       0.0011949
 Vibrational hyperpolarizability contributions from mode  22       0.0000000       0.0000000       0.0000000
 Dipole derivatives wrt mode  23: -9.45427D-01 -7.36371D-01 -2.38714D+00
 Vibrational polarizability contributions from mode  23       0.0109066       0.0066165       0.0695328
 Vibrational hyperpolarizability contributions from mode  23       0.0000000       0.0000000       0.0000000
 Dipole derivatives wrt mode  24: -4.70595D-01 -3.91384D+00  2.31687D+00
 Vibrational polarizability contributions from mode  24       0.0006743       0.0466372       0.0163429
 Vibrational hyperpolarizability contributions from mode  24       0.0000000       0.0000000       0.0000000
 Dipole derivatives wrt mode  25:  1.41928D+00 -2.83379D+00  3.99928D+00
 Vibrational polarizability contributions from mode  25       0.0060931       0.0242906       0.0483800
 Vibrational hyperpolarizability contributions from mode  25       0.0000000       0.0000000       0.0000000
 Dipole derivatives wrt mode  26:  5.05368D+00 -6.74636D-01  2.29183D-01
 Vibrational polarizability contributions from mode  26       0.0746185       0.0013297       0.0001535
 Vibrational hyperpolarizability contributions from mode  26       0.0000000       0.0000000       0.0000000
 Dipole derivatives wrt mode  27: -4.27983D+00 -4.66509D+00  1.30084D+00
 Vibrational polarizability contributions from mode  27       0.0531165       0.0631097       0.0049071
 Vibrational hyperpolarizability contributions from mode  27       0.0000000       0.0000000       0.0000000
 Dipole derivatives wrt mode  28:  3.92691D-01 -1.23339D+00 -4.81559D+00
 Vibrational polarizability contributions from mode  28       0.0004364       0.0043049       0.0656239
 Vibrational hyperpolarizability contributions from mode  28       0.0000000       0.0000000       0.0000000
 Dipole derivatives wrt mode  29: -2.38590D+00 -2.91948D+00 -2.56281D+00
 Vibrational polarizability contributions from mode  29       0.0152030       0.0227632       0.0175411
 Vibrational hyperpolarizability contributions from mode  29       0.0000000       0.0000000       0.0000000
 Dipole derivatives wrt mode  30:  4.57184D+00 -2.00517D+00 -3.89399D+00
 Vibrational polarizability contributions from mode  30       0.0394117       0.0075814       0.0285914
 Vibrational hyperpolarizability contributions from mode  30       0.0000000       0.0000000       0.0000000
 Diagonal vibrational polarizability:
       27.8204838     109.9576444      13.0621504
 Harmonic frequencies (cm**-1), IR intensities (KM/Mole), Raman scattering
 activities (A**4/AMU), depolarization ratios for plane and unpolarized
 incident light, reduced masses (AMU), force constants (mDyne/A),
 and normal coordinates:
                           1         2         3         4         5
                           A         A         A         A         A
       Frequencies ---    49.6452   96.9181  148.6812  177.0380  246.9412
    Reduced masses ---     2.7583    1.0498    1.6852    1.4862    2.7988
   Force constants ---     0.0040    0.0058    0.0219    0.0274    0.1006
    IR Intensities ---     1.3549    0.2449   41.5244   85.3476    5.7252
 Coord Atom Element:
   1     1     6          0.19944  -0.01363  -0.01778   0.00659  -0.06676
   2     1     6         -0.14773   0.00467  -0.01716  -0.00600   0.03301
   3     1     6         -0.04519   0.01665  -0.03222  -0.00276   0.21278
   1     2     6         -0.04764   0.00065  -0.07350   0.07134  -0.12274
   2     2     6          0.09594  -0.01127   0.06818  -0.07399  -0.03448
   3     2     6         -0.05781   0.01380   0.01509  -0.00703  -0.01615
   1     3     1         -0.31739  -0.01428  -0.30578   0.27740  -0.43091
   2     3     1          0.39698  -0.00754   0.29830  -0.29776   0.39048
   3     3     1         -0.08016   0.02552   0.02117   0.00488  -0.11070
   1     4     6          0.03937   0.01552   0.06431  -0.04141   0.01202
   2     4     6          0.07909   0.00454  -0.00080   0.00349  -0.03036
   3     4     6         -0.03888   0.01812   0.04364  -0.03477  -0.00066
   1     5     8         -0.02680  -0.00418  -0.05162   0.00965   0.14937
   2     5     8          0.06677   0.01102  -0.03566   0.03222   0.08783
   3     5     8         -0.01948  -0.00784   0.09861  -0.05792  -0.17876
   1     6     8         -0.15481   0.00235   0.09148  -0.02449   0.01683
   2     6     8         -0.07296  -0.01292   0.03175   0.09347  -0.08115
   3     6     8          0.13258  -0.03749  -0.09478   0.08998  -0.02189
   1     7     1          0.12399  -0.41994  -0.02361  -0.01472   0.13434
   2     7     1         -0.24573   0.28553  -0.10408   0.05664   0.13965
   3     7     1         -0.04395  -0.25135  -0.00618  -0.03182   0.25880
   1     8     1          0.44830   0.11468   0.02745  -0.03806  -0.08763
   2     8     1         -0.03201   0.16341  -0.01065  -0.01434   0.02253
   3     8     1         -0.05847   0.57724  -0.12196   0.07430   0.20696
   1     9     1          0.23638   0.27455  -0.01989   0.02696  -0.21729
   2     9     1         -0.35905  -0.41645  -0.00945  -0.00156   0.01230
   3     9     1         -0.03807  -0.21521  -0.03582  -0.02474   0.39269
   1    10     1          0.09530   0.02890   0.16425  -0.09048  -0.01834
   2    10     1          0.03515  -0.00461  -0.10490   0.04631   0.06222
   3    10     1          0.01667   0.03774   0.09221  -0.06900   0.16151
   1    11     1          0.09857   0.02525   0.14303  -0.10255   0.06452
   2    11     1          0.14529   0.03219   0.09352  -0.04292  -0.01883
   3    11     1         -0.10104   0.01577  -0.03409   0.03787  -0.07750
   1    12     1         -0.07923  -0.01042  -0.29690  -0.25802   0.03073
   2    12     1         -0.16756   0.00208  -0.69859  -0.83035  -0.33556
   3    12     1          0.19929  -0.04864  -0.29174   0.03036   0.01939
                           6         7         8         9        10
                           A         A         A         A         A
       Frequencies ---   397.2671  423.7016  598.5738  845.5363  879.1501
    Reduced masses ---     2.3765    1.4511    4.0511    4.8958    3.0118
   Force constants ---     0.2210    0.1535    0.8552    2.0622    1.3715
    IR Intensities ---     5.8083   17.3904   17.1611   28.7806    6.1822
 Coord Atom Element:
   1     1     6          0.01496   0.01414   0.02880   0.00413  -0.13383
   2     1     6          0.00375   0.02656   0.06428   0.01581  -0.14060
   3     1     6         -0.02387  -0.06893  -0.02622  -0.04558   0.14865
   1     2     6         -0.11789   0.11939  -0.06851  -0.04297   0.07854
   2     2     6          0.15791  -0.02196   0.22484  -0.00464   0.13067
   3     2     6          0.01733   0.06844   0.18689  -0.07792   0.11895
   1     3     1          0.44129  -0.35948   0.20840   0.00560   0.07225
   2     3     1         -0.49669   0.55231  -0.02982  -0.14027   0.11016
   3     3     1          0.09610  -0.01474   0.16724  -0.00532   0.16339
   1     4     6         -0.11992  -0.08826   0.02293   0.17115   0.11969
   2     4     6          0.06667  -0.01907  -0.22049  -0.25398   0.10584
   3     4     6          0.01656   0.04319   0.13881   0.03364  -0.20928
   1     5     8          0.08914   0.02909   0.02441   0.18039   0.04565
   2     5     8          0.05473   0.02714  -0.11061   0.11913  -0.06783
   3     5     8          0.04454  -0.00265  -0.23871   0.19358   0.01239
   1     6     8          0.06887   0.00748  -0.05585  -0.26453  -0.05732
   2     6     8         -0.16946  -0.04673   0.09819   0.10328   0.02358
   3     6     8         -0.04039  -0.00260   0.00557  -0.13194  -0.03039
   1     7     1         -0.01928  -0.12755  -0.24149   0.17409  -0.40829
   2     7     1         -0.14556  -0.01072  -0.34451   0.11272  -0.33132
   3     7     1          0.01604  -0.11881  -0.00157  -0.00780   0.10235
   1     8     1          0.22386  -0.12951   0.26138   0.09344  -0.21903
   2     8     1          0.08564  -0.04156   0.12287   0.06792  -0.19329
   3     8     1         -0.09734  -0.09029  -0.27815   0.03994   0.01129
   1     9     1          0.04234   0.11450   0.22790  -0.11589   0.00382
   2     9     1         -0.10267   0.15987   0.03525  -0.11359   0.01989
   3     9     1         -0.02097  -0.23187  -0.25832   0.13219  -0.06092
   1    10     1         -0.31020  -0.31520   0.09928  -0.18469  -0.00840
   2    10     1          0.24412   0.17207  -0.32248   0.11047   0.13439
   3    10     1         -0.10933  -0.18069   0.12666  -0.18531  -0.59128
   1    11     1         -0.21458  -0.29611   0.01941  -0.04992  -0.04663
   2    11     1         -0.25426  -0.27050  -0.04624  -0.67495  -0.15539
   3    11     1          0.02630   0.21975   0.22521   0.15606  -0.06927
   1    12     1         -0.01764  -0.00616   0.12389  -0.16269   0.02469
   2    12     1         -0.22820  -0.07832  -0.03510  -0.00100  -0.02412
   3    12     1         -0.09593  -0.00855   0.15321  -0.03800   0.03567
                          11        12        13        14        15
                           A         A         A         A         A
       Frequencies ---   938.5972  950.1096  994.7247 1133.9276 1149.6187
    Reduced masses ---     1.7532    3.3974    1.4057    1.9319    2.0811
   Force constants ---     0.9100    1.8070    0.8195    1.4635    1.6205
    IR Intensities ---     0.2687   22.5091    0.7773    1.3256    3.5526
 Coord Atom Element:
   1     1     6         -0.06500  -0.01659  -0.09876  -0.01592   0.12076
   2     1     6         -0.00543   0.03976   0.09893  -0.01570   0.12686
   3     1     6         -0.04802  -0.08792   0.02932  -0.10432   0.02923
   1     2     6          0.00702   0.01044   0.07356   0.06203  -0.14156
   2     2     6          0.02016  -0.04360  -0.08228   0.04320  -0.13739
   3     2     6         -0.01392   0.01595  -0.00243   0.16477   0.09564
   1     3     1         -0.15400  -0.31045   0.01431  -0.17022  -0.42617
   2     3     1         -0.09571  -0.07807   0.08912  -0.01961  -0.32017
   3     3     1          0.23246   0.32916  -0.10582   0.43687   0.50523
   1     4     6          0.14033  -0.03137  -0.02550  -0.11138   0.06521
   2     4     6         -0.02647   0.24910  -0.00665  -0.07924   0.01854
   3     4     6          0.01896   0.10283  -0.03461  -0.12026  -0.11080
   1     5     8         -0.12264   0.13184   0.00835   0.03216  -0.02827
   2     5     8          0.03927  -0.24580   0.02258   0.05750  -0.00186
   3     5     8         -0.05936  -0.02137   0.02558   0.01861  -0.00141
   1     6     8          0.07857  -0.10742  -0.00171   0.00301   0.00567
   2     6     8         -0.01695   0.05242  -0.00461  -0.01404   0.00083
   3     6     8          0.05155  -0.06496  -0.00186   0.00047   0.00480
   1     7     1          0.23576   0.36413  -0.14288   0.32579  -0.06725
   2     7     1          0.07480   0.18806  -0.48314   0.19947  -0.02685
   3     7     1          0.05332   0.02414   0.20620  -0.02408  -0.00294
   1     8     1          0.21559   0.26090   0.53724   0.06529   0.04517
   2     8     1          0.14261   0.19294   0.31885   0.07569   0.03900
   3     8     1          0.06442   0.07199  -0.31326   0.21764  -0.17670
   1     9     1         -0.25873  -0.22692   0.04193  -0.25623   0.32052
   2     9     1         -0.31039  -0.27288  -0.36315  -0.15515   0.21965
[...]
     27  0.468907D-03 -0.212471D-03  0.751077D-02 -0.101419D+00  0.106064D+00
     28 -0.101490D+00 -0.140700D-02 -0.110898D-03  0.142570D-01  0.101154D-02
     29 -0.622229D-02  0.188042D-01  0.200818D-02 -0.404650D-01 -0.760200D-04
     30  0.204982D-02  0.195909D+00  0.238688D-03  0.205278D-03 -0.477340D-04
     31 -0.830452D-04 -0.194738D-04 -0.752617D-01 -0.128868D-02  0.945612D-03
     32 -0.108209D-03  0.863293D-04  0.336700D-01  0.115218D-01  0.518829D-03
     33 -0.415812D-03  0.965716D-05 -0.241140D-01  0.546250D-03  0.229564D-02
     34 -0.120877D-01  0.308928D-03 -0.193371D-02  0.216818D-01 -0.236320D-03
     35  0.117665D+00  0.243663D-03 -0.906766D-03  0.497946D-03  0.158548D-02
     36 -0.321037D-03 -0.213121D+00 -0.436261D-04 -0.158971D-03  0.148891D-03
               16            17            18            19            20
     16  0.416827D+00
     17 -0.149783D+00  0.264855D+00
     18 -0.103274D-01 -0.484287D-01  0.657828D-01
     19 -0.313469D-02  0.484634D-03  0.151790D-03  0.782661D-01
     20 -0.234081D-02  0.159526D-02  0.196648D-03 -0.952800D-02  0.259948D+00
     21  0.968422D-03  0.657485D-04 -0.123821D-03 -0.275117D-02  0.388488D-02
     22 -0.137461D+00 -0.391453D-01  0.514343D-02 -0.123675D-03  0.178303D-03
     23 -0.550841D-01 -0.158888D-01 -0.695073D-02 -0.497870D-04  0.246609D-03
     24 -0.495851D-03 -0.338454D-02 -0.655419D-02 -0.114868D-04  0.256495D-04
     25  0.230380D-01  0.792445D-03 -0.100455D-03 -0.754382D-01  0.312070D-01
     26  0.132541D-01 -0.257666D-01 -0.649783D-03  0.236838D-01  0.812940D-02
     27 -0.139977D-01 -0.333065D-03  0.305911D-04 -0.639976D-03  0.558490D-03
     28 -0.521676D-01 -0.527045D-01  0.251883D-01  0.487517D-03 -0.245909D-02
     29 -0.440927D-01  0.796836D-01  0.347928D-02 -0.522586D-03  0.488138D-03
     30  0.584575D-02  0.226174D-02  0.111314D-01 -0.609143D-04 -0.124290D-03
     31  0.876278D-03  0.209547D-03 -0.236223D-04  0.796544D-01  0.882575D-03
     32  0.136106D-02 -0.111350D-02 -0.258202D-03 -0.258778D-01 -0.383750D-01
     33 -0.680604D-03  0.189567D-04  0.230076D-04 -0.226911D-02 -0.690883D-03
     34  0.325553D-01 -0.127742D-01  0.123536D-02  0.112502D-02  0.208874D-03
     35  0.361153D-01 -0.532257D-03 -0.386166D-02 -0.100838D-03  0.283659D-03
     36 -0.210713D-02  0.102579D-01 -0.361943D-01 -0.414057D-04 -0.108879D-03
               21            22            23            24            25
     21  0.541584D-01
     22 -0.138034D-03  0.162349D+00
     23 -0.571945D-04  0.691086D-02  0.697081D-01
     24  0.152711D-04 -0.874511D-03 -0.107654D-02  0.126269D-01
     25 -0.252299D-01 -0.200880D-03  0.215872D-03  0.161770D-03  0.554444D+00
     26 -0.146267D-01  0.988917D-03 -0.118484D-02  0.371008D-03 -0.105823D+00
     27  0.205841D-02  0.140961D-03  0.156192D-04  0.110385D-04  0.952902D-02
     28 -0.942815D-03  0.379969D-01  0.297629D-01 -0.319292D-03 -0.103882D-01
     29  0.339493D-03 -0.518742D-02  0.148011D-01 -0.104560D-01  0.220056D-02
     30 -0.571381D-04 -0.952894D-04 -0.247536D-02 -0.168222D-01 -0.635397D-04
     31 -0.593813D-02 -0.254069D-04 -0.572845D-04  0.264158D-04 -0.244653D+00
     32  0.189835D-01 -0.245303D-03 -0.122478D-03 -0.628988D-04 -0.471048D-01
     33  0.249484D-01 -0.584088D-04 -0.305855D-05 -0.161687D-04 -0.153484D+00
     34 -0.206445D-03 -0.311814D-01 -0.105412D-01  0.670184D-04 -0.517486D-02
     35  0.680517D-03 -0.219435D-02 -0.315635D-01 -0.350568D-05  0.479707D-03
     36 -0.912581D-05  0.616685D-04  0.115225D-02  0.270428D-01  0.387606D-04
               26            27            28            29            30
     26  0.543664D+00
     27 -0.165414D+00  0.171828D+00
     28 -0.212319D+00 -0.108964D-01  0.490023D+00
     29 -0.256321D-01 -0.415814D-02 -0.807956D-01  0.172095D+00
     30  0.146426D-02  0.928494D-03  0.702972D-02 -0.885628D-01  0.446531D+00
     31 -0.113240D-01  0.937088D-03  0.847288D-03  0.194716D-03  0.260075D-05
     32 -0.355174D-02 -0.175776D-03  0.120835D-02 -0.497145D-03 -0.772818D-05
     33  0.100293D-01 -0.208949D-03  0.107336D-02 -0.207369D-03 -0.963090D-05
     34 -0.714822D-02  0.891720D-03 -0.643549D-01  0.394503D-02 -0.604724D-03
     35 -0.239331D-01 -0.341633D-02 -0.118916D+00  0.598158D-02  0.149771D-02
     36 -0.124777D-04  0.154876D-03 -0.251088D-02  0.154359D-01 -0.368205D+00
               31            32            33            34            35
     31  0.265923D+00
     32  0.434591D-02  0.497752D-01
     33 -0.159282D-01 -0.416344D-02  0.162370D+00
     34 -0.772558D-03 -0.180871D-03  0.258374D-03  0.688270D-01
     35  0.377129D-03  0.233300D-03  0.279909D-03  0.422422D-02  0.132883D+00
     36  0.495473D-04  0.118746D-03 -0.898340D-05  0.898089D-04  0.308789D-03
               36
     36  0.354541D+00
 Final forces over variables, Energy=-2.68897575D+02:
 -8.03242557D-06 1.64428867D-05 1.72250703D-06-5.81070971D-06
 -6.36719132D-06-7.42727172D-06-2.63339978D-06-2.44686224D-06
 -1.93385121D-06 6.67565920D-06 5.22374514D-06 4.58691342D-06
  2.11125966D-06-7.23735909D-06-2.23855706D-06-7.07850104D-06
  1.38349988D-05 4.06595944D-07-3.14923863D-06-3.70973589D-06
  2.88690053D-06 9.97242989D-06-8.33807756D-07-4.96498527D-06
 -3.44802864D-07 2.67670222D-06 3.53601159D-06 6.84986853D-06
 -6.29763658D-06 8.60798400D-06-2.56749956D-06-5.83408114D-06
 -2.81660797D-06 8.17031326D-06-2.87217304D-06-9.10807832D-06

 GradGradGradGradGradGradGradGradGradGradGradGradGradGradGradGradGradGrad
 Berny optimization.
 Search for a local minimum.
 Step number   1 out of a maximum of   2
 All quantities printed in internal units (Hartrees-Bohrs-Radians)
 Second derivative matrix not updated -- analytic derivatives used.
     Eigenvalues ---    0.00027   0.00041   0.00165   0.00304   0.00992
     Eigenvalues ---    0.01281   0.02912   0.04502   0.05324   0.06044
     Eigenvalues ---    0.06969   0.08733   0.09720   0.10077   0.12004
     Eigenvalues ---    0.13807   0.15323   0.17055   0.18213   0.24538
     Eigenvalues ---    0.39158   0.48887   0.51716   0.59972   0.68368
     Eigenvalues ---    0.74363   0.78463   0.83583   0.92984   1.00587
 Angle between quadratic step and forces=  82.92 degrees.
 Linear search not attempted -- first point.
 TrRot=  0.000163  0.000784  0.000324  0.000060 -0.000053  0.000060
 MatCor failed.
 Variable       Old X    -DE/DX   Delta X   Delta X   Delta X     New X
                                 (Linear)    (Quad)   (Total)
    X1       -7.81275  -0.00001   0.00000  -0.00080  -0.00064  -7.81339
    Y1       -0.50556   0.00000   0.00000   0.00052   0.00036  -0.50520
    Z1        1.20385   0.00000   0.00000   0.00015   0.00005   1.20390
    X2       -5.95139   0.00002   0.00000   0.00025   0.00025  -5.95114
    Y2        1.32328  -0.00001   0.00000  -0.00056  -0.00049   1.32279
    Z2        0.15435   0.00000   0.00000   0.00011   0.00012   0.15447
    X3       -4.80542   0.00000   0.00000   0.00147   0.00126  -4.80416
    Y3        2.44111   0.00000   0.00000  -0.00176  -0.00156   2.43955
    Z3        1.43213   0.00000   0.00000   0.00008   0.00015   1.43227
    X4       -5.32075  -0.00001   0.00000  -0.00042  -0.00028  -5.32103
    Y4        1.32492  -0.00001   0.00000  -0.00046  -0.00032   1.32460
    Z4       -2.58246   0.00001   0.00000  -0.00003   0.00001  -2.58245
    X5       -4.71950  -0.00001   0.00000   0.00069   0.00118  -4.71831
    Y5       -1.13659   0.00001   0.00000  -0.00024  -0.00003  -1.13662
    Z5       -3.57912  -0.00001   0.00000   0.00010   0.00017  -3.57895
    X6       -2.39663  -0.00001   0.00000   0.00144   0.00197  -2.39466
    Y6       -1.96770   0.00000   0.00000   0.00129   0.00178  -1.96591
    Z6       -2.34976   0.00001   0.00000  -0.00013   0.00006  -2.34970
    X7       -8.58268   0.00000   0.00000   0.00068   0.00067  -8.58202
    Y7        0.13636   0.00000   0.00000   0.00018  -0.00007   0.13629
    Z7        3.01035   0.00000   0.00000   0.00088   0.00075   3.01110
    X8       -6.93783   0.00000   0.00000  -0.00226  -0.00189  -6.93972
    Y8       -2.36293   0.00000   0.00000  -0.00045  -0.00050  -2.36343
    Z8        1.53336  -0.00001   0.00000  -0.00138  -0.00142   1.53194
    X9       -9.38277   0.00000   0.00000  -0.00179  -0.00152  -9.38429
    Y9       -0.83310   0.00000   0.00000   0.00263   0.00228  -0.83083
    Z9       -0.10526   0.00000   0.00000   0.00078   0.00061  -0.10465
   X10       -3.78779   0.00001   0.00000  -0.00118  -0.00117  -3.78896
   Y10        2.64469   0.00001   0.00000   0.00031   0.00064   2.64533
   Z10       -3.01959   0.00001   0.00000  -0.00043  -0.00031  -3.01990
   X11       -6.97182   0.00001   0.00000  -0.00093  -0.00079  -6.97261
   Y11        1.81892   0.00000   0.00000  -0.00155  -0.00161   1.81731
   Z11       -3.74608   0.00000   0.00000   0.00027   0.00023  -3.74585
   X12       -1.32092   0.00000   0.00000   0.00034   0.00096  -1.31995
   Y12       -2.13928   0.00000   0.00000  -0.00110  -0.00047  -2.13975
   Z12       -3.81575  -0.00001   0.00000  -0.00068  -0.00042  -3.81618
         Item               Value     Threshold  Converged?
 Maximum Force            0.000016     0.000450     YES
 RMS     Force            0.000006     0.000300     YES
 Maximum Displacement     0.002276     0.001800     NO 
 RMS     Displacement     0.000982     0.001200     YES
 Predicted change in Energy=-9.735047D-09
 GradGradGradGradGradGradGradGradGradGradGradGradGradGradGradGradGradGrad


 Test job not archived.
 1\1\GINC-NODE63\Freq\UB3LYP\CBSB7\C3H7O2(2)\GOLDMANM\19-May-2019\0\\# 
 freq nosymm b3lyp/cbsb7 iop(7/33=1)\\NBO NRT\\0,2\C,-4.13433,-0.26753,
 0.63705\C,-3.14934,0.70025,0.08168\H,-2.54292,1.29178,0.75785\C,-2.815
 62,0.70112,-1.36658\O,-2.49745,-0.60146,-1.89399\O,-1.26824,-1.04126,-
 1.24344\H,-4.54176,0.07216,1.59301\H,-3.67134,-1.25041,0.81142\H,-4.96
 515,-0.44086,-0.0557\H,-2.00441,1.39951,-1.5979\H,-3.68933,0.96253,-1.
 98234\H,-0.699,-1.13206,-2.01921\\Version=AM64L-G03RevD.01\HF=-268.897
 5746\S2=0.753975\S2-1=0.\S2A=0.750011\RMSD=9.335e-09\RMSF=6.290e-06\Ze
 roPoint=0.0963942\Thermal=0.1036539\Dipole=0.1929312,0.4320023,-0.1762
 677\DipoleDeriv=0.089189,-0.0627622,-0.0117464,-0.1166223,0.0092586,0.
 0973099,0.0388353,0.0329497,0.0268582,-0.0154408,0.2311587,0.0491114,0
 .239477,-0.1070889,0.0106784,0.0099583,0.0043056,0.0323778,0.000935,-0
 .1271102,-0.0346412,-0.1043739,0.0499061,-0.0323462,0.0017995,-0.05372
 49,-0.0533092,0.3598738,-0.0562148,-0.1125252,-0.133488,0.5493893,0.14
 77926,-0.18263,0.110546,0.5313817,-0.1147318,-0.0959801,0.1438854,0.01
 36072,-0.3587993,-0.1687594,0.1397573,-0.1029148,-0.4743238,-0.4254705
 ,0.1813389,-0.0365077,0.0501719,-0.4394841,-0.0711428,-0.0523652,-0.01
 6371,-0.0859778,0.0216453,-0.0080375,0.0932756,0.0184408,0.0457092,-0.
 0659716,0.0981958,-0.0463587,-0.105629,0.0153322,0.068046,0.002799,0.0
 328736,-0.0870748,0.0661851,0.0024812,0.0308999,0.0644246,-0.0674269,-
 0.0504939,-0.0702662,-0.0216544,0.0637935,-0.0046956,-0.1238692,-0.014
 991,-0.0316411,-0.0770965,-0.1482761,0.0776305,-0.0488436,-0.0880262,0
 .0242378,0.0810495,0.0075441,0.0005463,-0.0576634,0.05311,-0.1059744,0
 .0597361,0.0294619,-0.0418777,-0.0346657,0.0047483,-0.0593379,0.270854
 6,0.0152213,0.0049592,0.0106756,0.3329547,0.0385896,0.021453,0.0433669
 ,0.1546303\Polar=45.9382129,-1.8844045,41.1828719,-4.3297348,-0.291295
 2,44.1817706\PG=C01 [X(C3H7O2)]\NImag=0\\0.50197278,-0.00303019,0.4698
 9248,0.00682309,0.02977893,0.55444394,-0.13166313,-0.07887022,0.036027
 03,0.34439489,-0.08335498,-0.12491225,0.03016511,0.23785929,0.33888416
 ,0.03597733,0.02916419,-0.10582338,0.01076563,0.06445704,0.54366436,-0
 .00606143,-0.00811236,-0.01029274,-0.12479708,-0.11043634,-0.09943519,
 0.12683818,-0.01154221,-0.00418863,-0.01438971,-0.10570516,-0.11523431
 ,-0.09782052,0.11671648,0.11672446,0.00835379,0.00751077,0.00952902,-0
 .09494425,-0.10141944,-0.16541371,0.10022260,0.10606431,0.17182809,-0.
 00441474,-0.00021009,0.02017941,-0.08136291,-0.02318403,0.03549726,0.0
 0734930,-0.00291871,-0.01636456,0.57102672,-0.00137587,0.00237891,0.02
 303799,-0.02999271,-0.06745453,0.01325414,0.00186242,0.00590652,-0.013
 99770,0.08872153,0.41682710,0.00743030,-0.00011090,-0.01038817,0.02364
 575,0.01425698,-0.21231921,0.00816157,0.00101154,-0.01089639,0.0324256
 0,-0.05216764,0.49002253,0.00099376,-0.00044475,-0.00036993,0.00095586
 ,0.00903308,0.00670615,-0.00050924,0.00116257,0.00022555,-0.06518179,0
 .01120749,0.00599453,0.26628356,-0.00259691,0.00187801,0.00079244,0.00
 936970,-0.01071048,-0.02576661,0.00194342,-0.00153797,-0.00033306,-0.0
 2240437,-0.14978281,-0.05270450,-0.07468600,0.26485492,-0.00188099,0.0
 0200818,0.00220056,0.00472874,-0.04046505,-0.02563205,0.00195245,-0.00
 007602,-0.00415814,-0.01142009,-0.04409270,-0.08079555,0.07322090,0.07
 968355,0.17209531,-0.00063671,0.00012476,-0.00016555,0.00160458,-0.000
 29725,0.00139423,-0.00043792,-0.00001478,0.00050935,-0.02394828,0.0116
 0610,-0.01421477,-0.16533144,0.05900468,-0.07757860,0.35698479,-0.0000
 4839,-0.00013145,-0.00010046,-0.00080240,0.00130260,-0.00064978,0.0001
 5329,-0.00006094,0.00003059,0.03813282,-0.01032744,0.02518835,0.032962
 61,-0.04842865,0.00347928,-0.10545249,0.06578275,0.00013190,0.00023869
 ,-0.00006354,0.00302570,0.00020528,0.00146426,-0.00007748,-0.00004773,
 0.00092849,0.00861884,0.00584575,0.00702972,-0.04917007,0.00226174,-0.
 08856281,-0.16018350,0.01113145,0.44653086,-0.08416614,0.02902602,0.08
 208327,-0.00623684,0.00619949,0.01946491,0.00060335,0.00055728,-0.0005
 2410,-0.00195719,-0.00254009,-0.00062914,0.00021617,0.00017539,-0.0002
 7835,-0.00000724,0.00010717,-0.00000845,0.08607369,0.02921672,-0.06949
 289,-0.07543816,-0.00815433,0.00548385,0.02368378,0.00079692,0.0007053
 5,-0.00063998,-0.00303624,-0.00313469,0.00048752,0.00052848,0.00048463
 ,-0.00052259,-0.00005800,0.00015179,-0.00006091,-0.03054558,0.07826607
 ,0.08139807,-0.07526174,-0.24465295,0.00340785,-0.00128868,-0.01132402
 ,-0.00051282,0.00094561,0.00093709,0.00285012,0.00087628,0.00084729,-0
 .00015964,0.00020955,0.00019472,0.00008445,-0.00002362,0.00000260,-0.0
 9318751,0.07965444,0.26592346,-0.08644234,0.08975204,-0.01483422,0.008
 99844,-0.02041085,0.00408586,-0.00120701,0.00072927,-0.00010942,0.0000
 4752,-0.00087497,-0.00106549,-0.00030538,0.00087223,0.00101753,0.00006
 568,-0.00000494,-0.00007351,-0.00555548,0.01003258,-0.00189813,0.09633
 138,0.10156802,-0.23132903,0.03120703,-0.00317421,-0.02249294,0.008129
 40,-0.00078481,-0.00038422,0.00055849,0.00019411,-0.00234081,-0.002459
 09,0.00030437,0.00159526,0.00048814,-0.00030935,0.00019665,-0.00012429
 ,0.00548349,-0.00952800,0.00088258,-0.10251871,0.25994766,-0.01761618,
 0.03367000,-0.04710478,-0.00207272,0.01152178,-0.00355174,-0.00041945,
 0.00051883,-0.00017578,0.00079089,0.00136106,0.00120835,-0.00039264,-0
 .00111350,-0.00049715,0.00022475,-0.00025820,-0.00000773,0.01263556,-0
 .02587776,0.00434591,0.01709626,-0.03837503,0.04977517,-0.19132234,-0.
 02880875,-0.12108027,-0.01575245,-0.00691694,-0.01293527,-0.00211891,-
 0.00086630,0.00193441,0.00124241,-0.00050785,-0.00196980,0.00001289,0.
 00097615,0.00062018,0.00011704,0.00014182,-0.00000767,0.01100352,0.001
 53182,0.00780462,-0.01166917,-0.00085430,-0.01048198,0.20805355,-0.028
 67031,-0.04594186,-0.02522995,-0.01874122,-0.00836492,-0.01462672,-0.0
 0326440,-0.00171574,0.00205841,0.00085444,0.00096842,-0.00094282,-0.00
 012409,0.00006575,0.00033949,0.00010886,-0.00012382,-0.00005714,-0.008
 23616,-0.00275117,-0.00593813,0.02203568,0.00388488,0.01898351,0.03538
 904,0.05415843,-0.11948295,-0.02411402,-0.15348431,0.00848282,0.000546
 25,0.01002925,0.00087488,0.00229564,-0.00020895,0.00076326,-0.00068060
 ,0.00107336,0.00007158,0.00001896,-0.00020737,0.00006743,0.00002301,-0
 .00000963,-0.02085841,-0.00226911,-0.01592820,-0.00432590,-0.00069088,
 -0.00416344,0.13499681,0.02494840,0.16236999,0.00099747,0.00045399,0.0
 0132637,-0.00426109,-0.00428920,-0.00115992,0.00055286,0.00049177,0.00
 044019,-0.19847682,-0.11891120,0.04311823,0.00755310,0.00857223,-0.002
 96370,0.00415120,-0.00045724,-0.00021473,-0.00008171,-0.00038286,0.000
 31552,-0.00008383,-0.00009233,0.00025738,0.00045491,0.00033526,-0.0001
 8335,0.20561615,-0.00020813,0.00131776,-0.00020088,-0.00186529,0.00179
 666,0.00098892,0.00083771,0.00004571,0.00014096,-0.11374909,-0.1374606
 9,0.03799694,-0.01840379,-0.03914531,-0.00518742,-0.00031236,0.0051434
 3,-0.00009529,-0.00011948,-0.00012367,-0.00002541,0.00003831,0.0001783
 0,-0.00024530,-0.00004811,-0.00013803,-0.00005841,0.12917699,0.1623494
 9,0.00001780,-0.00193371,-0.00517486,0.02560841,0.02168176,-0.00714822
 ,-0.00053673,-0.00023632,0.00089172,0.04318322,0.03255527,-0.06435490,
 -0.01121027,-0.01277417,0.00394503,0.00085820,0.00123536,-0.00060472,0
 .00094822,0.00112502,-0.00077256,0.00006583,0.00020887,-0.00018087,-0.
 00004481,-0.00020644,0.00025837,-0.04711112,-0.03118142,0.06882698,0.0
 0093604,0.00005213,0.00035251,0.00803482,-0.00329224,0.00019161,-0.000
 23535,0.00129907,0.00046891,-0.19991465,0.04037135,-0.10148979,-0.0137
 8810,0.00765836,-0.00622229,0.00164757,0.00310764,0.00204982,0.0000449
 6,0.00010074,-0.00008305,-0.00014105,0.00019293,-0.00010821,-0.0000447
 9,0.00028526,-0.00041581,-0.01676957,0.00491829,-0.01208767,0.22018730
 ,0.00004586,0.00057206,0.00021587,0.00025616,0.00199463,-0.00118484,0.
 00026984,-0.00032510,0.00001562,0.03258839,-0.05508414,0.02976292,0.03
 070420,-0.01588881,0.01480110,0.00488315,-0.00695073,-0.00247536,-0.00
 003998,-0.00004979,-0.00005728,0.00022311,0.00024661,-0.00012248,0.000
 00800,-0.00005719,-0.00000306,-0.01481273,0.00691086,-0.01054122,-0.05
 487379,0.06970815,-0.00096732,-0.00090677,0.00047971,-0.01929439,0.000
 49795,-0.02393306,0.00014258,0.00158548,-0.00341633,-0.11379750,0.0361
 1530,-0.11891614,0.00518605,-0.00053226,0.00598158,0.00387835,-0.00386
 166,0.00149771,0.00031539,-0.00010084,0.00037713,0.00027503,0.00028366
 ,0.00023330,0.00109060,0.00068052,0.00027991,0.00526252,-0.00219435,0.
 00422422,0.11766500,-0.03156352,0.13288319,-0.00019321,0.00006739,-0.0
 0004897,0.00008492,-0.00091002,-0.00055261,0.00002324,0.00009072,-0.00
 021247,-0.00440958,0.00043380,-0.00140700,-0.03089940,0.01111513,0.018
 80422,-0.17420927,0.03216010,0.19590915,0.00006289,-0.00003025,-0.0000
 1947,-0.00003875,-0.00000921,0.00008633,0.00002333,0.00002765,0.000009
 66,0.00034734,-0.00026505,0.00030893,0.00004283,0.00074779,0.00024366,
 0.20916566,-0.00000362,-0.00004312,0.00016177,-0.00017960,-0.00029246,
 0.00037101,0.00001783,0.00006486,0.00001104,0.00501125,-0.00049585,-0.
 00031929,0.00775584,-0.00338454,-0.01045597,0.03071666,-0.00655419,-0.
 01682218,-0.00006758,-0.00001149,0.00002642,0.00012623,0.00002565,-0.0
 0006290,-0.00004457,0.00001527,-0.00001617,-0.00008467,-0.00087451,0.0
 0006702,0.00018026,-0.00107654,-0.00000351,-0.04342804,0.01262694,-0.0
 0018483,-0.00004363,0.00003876,0.00061943,-0.00015897,-0.00001248,-0.0
 0007966,0.00014889,0.00015488,-0.00272645,-0.00210713,-0.00251088,-0.0
 3010221,0.01025786,0.01543588,0.24512565,-0.03619431,-0.36820520,0.000
 03858,-0.00004141,0.00004955,-0.00023383,-0.00010888,0.00011875,0.0000
 7318,-0.00000913,-0.00000898,0.00091260,0.00006167,0.00008981,-0.00032
 104,0.00115225,0.00030879,-0.21312142,0.02704277,0.35454113\\0.0000080
 3,-0.00000211,0.00000034,-0.00001644,0.00000724,-0.00000268,-0.0000017
 2,0.00000224,-0.00000354,0.00000581,0.00000708,-0.00000685,0.00000637,
 -0.00001383,0.00000630,0.00000743,-0.00000041,-0.00000861,0.00000263,0
 .00000315,0.00000257,0.00000245,0.00000371,0.00000583,0.00000193,-0.00
 000289,0.00000282,-0.00000668,-0.00000997,-0.00000817,-0.00000522,0.00
 000083,0.00000287,-0.00000459,0.00000496,0.00000911\\\@


 ONLY A FOOL KNOWS EVERYTHING.

               -- THE CHEMIST ANALYST, SEPTEMBER 1946
 Job cpu time:  0 days  0 hours 25 minutes 53.9 seconds.
 File lengths (MBytes):  RWF=     57 Int=      0 D2E=      0 Chk=      7 Scr=      1
 Normal termination of Gaussian 03 at Sun May 19 19:50:41 2019.
