
 Primary working directories    : /scratch/goldmanm/591046
 Secondary working directories  : /scratch/goldmanm/591046
 Wavefunction directory         : /home/goldmanm/wfu/
 Main file repository           : /scratch/goldmanm/591046/

 SHA1      : 960ce83de8be0427555cf121dea4debc26c720b5
 NAME      : 2012.1.960ce83
 ARCHNAME  : Linux/x86_64
 FC        : /opt/intel/composer_xe_2013_sp1.2.144/bin/intel64/ifort
 FCVERSION : 14.0.2
 BLASLIB   : -Wl,-_start-group /opt/intel/mkl/lib/intel64/libmkl_intel_ilp64.a /opt/intel/mkl/lib/intel64/libmkl_sequential.a /opt/intel/mkl/lib/intel64/libmkl_core.a -Wl,-_end-group
 id        : mitsand

 Nodes     nprocs
 node98       2
 ga_uses_ma=false, calling ma_init with nominal heap.
 GA-space will be limited to   8.0 MW (determined by -G option)

 Using customized tuning parameters: mindgm=7; mindgv=24; mindgc=1; mindgr=1; noblas=0; minvec=7
 default implementation of scratch files=sf  

 geometry = {angstrom
 C
 C, 1, r2
 H, 2, r3, 1, a3
 C, 2, r4, 1, a4, 3, d4
 O, 4, r5, 2, a5, 1, d5
 O, 5, r6, 4, a6, 2, d6
 H, 1, r7, 2, a7, 3, d7
 H, 1, r8, 2, a8, 3, d8
 H, 1, r9, 2, a9, 3, d9
 H, 4, r10, 2, a10, 1, d10
 H, 4, r11, 2, a11, 1, d11
 H, 6, r12, 5, a12, 4, d12
 }
 
    r2 =         1.48837 ang
    r3 =         1.08391 ang
    a3 =       119.49425 degree
    r4 =         1.48621 ang
    a4 =       120.83675 degree
    d4 =       169.28136 degree
    r5 =         1.44087 ang
    a5 =       113.93767 degree
    d5 =       310.82842 degree
    r6 =         1.45863 ang
    a6 =       107.18225 degree
    d6 =       294.73922 degree
    r7 =         1.09327 ang
    a7 =       111.76941 degree
    d7 =        31.51114 degree
    r8 =         1.10037 ang
    a8 =       111.19090 degree
    d8 =       271.74826 degree
    r9 =         1.09554 ang
    a9 =       111.64198 degree
    d9 =       153.41715 degree
    r10 =         1.09513 ang
    a10 =       111.87194 degree
    d10 =       185.80564 degree
    r11 =         1.10039 ang
    a11 =       111.53958 degree
    d11 =        63.97822 degree
    r12 =         0.96649 ang
    a12 =        99.59467 degree
    d12 =       240.80076 degree
 
 memory,1900,M
 basis = vtz-f12
 hf
 uccsd(t)-f12,scale_trip=1

 Variables initialized (778), CPU time= 0.03 sec
 Commands  initialized (547), CPU time= 0.03 sec, 516 directives.
 Default parameters read. Elapsed time= 0.31 sec

 Checking input...
 Passed
1


                                         ***  PROGRAM SYSTEM MOLPRO  ***
                         Copyright, University College Cardiff Consultants Limited, 2008

                                    Version 2012.1 linked Apr  1 2014 15:33:03


 **********************************************************************************************************************************
 LABEL *                                                                                 
 Linux-3.2.0-70-generic/node98(x86_64) 64 bit mpp version                                DATE: 23-May-19          TIME: 21:38:51  
 **********************************************************************************************************************************

 SHA1:             960ce83de8be0427555cf121dea4debc26c720b5
 **********************************************************************************************************************************
 SETTING R2             =         1.48837000  ANG                             
 SETTING R3             =         1.08391000  ANG                             
 SETTING A3             =       119.49425000  DEGREE                          
 SETTING R4             =         1.48621000  ANG                             
 SETTING A4             =       120.83675000  DEGREE                          
 SETTING D4             =       169.28136000  DEGREE                          
 SETTING R5             =         1.44087000  ANG                             
 SETTING A5             =       113.93767000  DEGREE                          
 SETTING D5             =       310.82842000  DEGREE                          
 SETTING R6             =         1.45863000  ANG                             
 SETTING A6             =       107.18225000  DEGREE                          
 SETTING D6             =       294.73922000  DEGREE                          
 SETTING R7             =         1.09327000  ANG                             
 SETTING A7             =       111.76941000  DEGREE                          
 SETTING D7             =        31.51114000  DEGREE                          
 SETTING R8             =         1.10037000  ANG                             
 SETTING A8             =       111.19090000  DEGREE                          
 SETTING D8             =       271.74826000  DEGREE                          
 SETTING R9             =         1.09554000  ANG                             
 SETTING A9             =       111.64198000  DEGREE                          
 SETTING D9             =       153.41715000  DEGREE                          
 SETTING R10            =         1.09513000  ANG                             
 SETTING A10            =       111.87194000  DEGREE                          
 SETTING D10            =       185.80564000  DEGREE                          
 SETTING R11            =         1.10039000  ANG                             
 SETTING A11            =       111.53958000  DEGREE                          
 SETTING D11            =        63.97822000  DEGREE                          
 SETTING R12            =         0.96649000  ANG                             
 SETTING A12            =        99.59467000  DEGREE                          
 SETTING D12            =       240.80076000  DEGREE                          

 Variable memory set to 1900000000 words,  buffer space   230000 words

 SETTING BASIS          =    VTZ-F12


 Recomputing integrals since basis changed


 Using spherical harmonics

 Library entry C      S cc-pVTZ-F12          selected for orbital group  1
 Library entry C      P cc-pVTZ-F12          selected for orbital group  1
 Library entry C      D cc-pVTZ-F12          selected for orbital group  1
 Library entry C      F cc-pVTZ-F12          selected for orbital group  1
 Library entry H      S cc-pVTZ-F12          selected for orbital group  2
 Library entry H      P cc-pVTZ-F12          selected for orbital group  2
 Library entry H      D cc-pVTZ-F12          selected for orbital group  2
 Library entry O      S cc-pVTZ-F12          selected for orbital group  4
 Library entry O      P cc-pVTZ-F12          selected for orbital group  4
 Library entry O      D cc-pVTZ-F12          selected for orbital group  4
 Library entry O      F cc-pVTZ-F12          selected for orbital group  4

1PROGRAM * SEWARD (Integral evaluation for generally contracted gaussian basis sets)     Author: Roland Lindh, 1990

 Geometry written to block  1 of record 700

 Orientation using atomic masses  
 Molecule type: Asymmetric top
 Rotational constants:       2.9180863      3.2469527      8.9507962 GHz  (calculated with average atomic masses)

 Point group  C1  



 ATOMIC COORDINATES

 NR  ATOM    CHARGE       X              Y              Z

   1  C       6.00   -0.553077580   -1.210608446    3.591884728
   2  C       6.00    1.075984439    0.572056051    2.149994057
   3  H       1.00    3.088251126    0.630047399    2.528047239
   4  C       6.00    0.079521170    1.942299636   -0.089946460
   5  O       8.00   -1.194560731    0.342167236   -1.887222748
   6  O       8.00    0.692480291   -1.375860149   -2.928981326
   7  H       1.00    0.161948001   -1.526048151    5.504347339
   8  H       1.00   -0.648285365   -3.065611068    2.657113871
   9  H       1.00   -2.503962942   -0.529531315    3.719165755
  10  H       1.00    1.557341105    3.026654990   -1.050693295
  11  H       1.00   -1.460464158    3.238862842    0.431035334
  12  H       1.00    0.596114881   -0.902141942   -4.690244189

 Bond lengths in Bohr (Angstrom)

 1-2  2.812611682  1-7  2.065980888  1-8  2.079397943  1-9  2.070270566  2-3  2.048293051
     ( 1.488370000)     ( 1.093270000)     ( 1.100370000)     ( 1.095540000)     ( 1.083910000)

  2- 4  2.808529874   4- 5  2.722849691   4-10  2.069495778   4-11  2.079435738   5- 6  2.756411227
       ( 1.486210000)       ( 1.440870000)       ( 1.095130000)       ( 1.100390000)       ( 1.458630000)

  6-12  1.826401409
       ( 0.966490000)

 Bond angles

  1-2-3  119.49425000   1-2-4  120.83675000   2-1-7  111.76941000   2-1-8  111.19090000

  2- 1- 9  111.64198000   2- 4- 5  113.93767000   2- 4-10  111.87194000   2- 4-11  111.53958000

  3- 2- 4  118.81277120   4- 5- 6  107.18225000   5- 4-10  109.61083161   5- 4-11  100.67642665

  5- 6-12   99.59467000   7- 1- 8  107.20402253   7- 1- 9  108.62993950   8- 1- 9  106.13910444

 10- 4-11  108.56928219

 NUCLEAR CHARGE:                   41
 NUMBER OF PRIMITIVE AOS:         507
 NUMBER OF SYMMETRY AOS:          455
 NUMBER OF CONTRACTIONS:          391   ( 391A   )
 NUMBER OF CORE ORBITALS:           5   (   5A   )
 NUMBER OF VALENCE ORBITALS:       27   (  27A   )


 NUCLEAR REPULSION ENERGY  182.23485579


 Eigenvalues of metric

         1 0.375E-04 0.430E-04 0.130E-03 0.138E-03 0.144E-03 0.171E-03 0.175E-03 0.190E-03


 Contracted 2-electron integrals neglected if value below      1.0D-12
 AO integral compression algorithm  1   Integral accuracy      1.0D-12

     12006.719 MB (compressed) written to integral file ( 46.9%)

     Node minimum: 5968.757 MB, node maximum: 6037.963 MB


 NUMBER OF SORTED TWO-ELECTRON INTEGRALS: 1468307442.     BUFFER LENGTH:  32768
 NUMBER OF SEGMENTS:  46  SEGMENT LENGTH:   31999968      RECORD LENGTH: 524288

 Memory used in sort:      32.56 MW

 SORT1 READ  3203316224. AND WROTE  1335473503. INTEGRALS IN   3842 RECORDS. CPU TIME:   308.28 SEC, REAL TIME:   403.16 SEC
 SORT2 READ  2671170935. AND WROTE  2936576566. INTEGRALS IN  45538 RECORDS. CPU TIME:    48.26 SEC, REAL TIME:   328.99 SEC

 Node minimum:  1468269124.  Node maximum:  1468307442. integrals

 OPERATOR DM      FOR CENTER  0  COORDINATES:    0.000000    0.000000    0.000000


 **********************************************************************************************************************************
 DATASETS  * FILE   NREC   LENGTH (MB)   RECORD NAMES
              1      18       13.33       500      610      700      900      950      970     1000      129      960     1100   
                                          VAR    BASINP    GEOM    SYMINP    ZMAT    AOBASIS   BASIS     P2S    ABASIS      S 
                                         1400     1410     1200     1210     1080     1600     1650     1700   
                                           T        V       H0       H01     AOSYM     SMH    MOLCAS    OPER   

 PROGRAMS   *        TOTAL       INT
 CPU TIMES  *       482.46    482.13
 REAL TIME  *       877.66 SEC
 DISK USED  *        43.86 GB      
 GA USED    *         0.01 MB       (max)       0.00 MB       (current)
 **********************************************************************************************************************************

1PROGRAM * RHF-SCF (OPEN SHELL)       Authors: W. Meyer, H.-J. Werner


 NUMBER OF ELECTRONS:      21+   20-    SPACE SYMMETRY=1    SPIN SYMMETRY: Doublet 
 CONVERGENCE THRESHOLDS:    1.00E-05 (Density)    1.00E-07 (Energy)
 MAX. NUMBER OF ITERATIONS:       60
 INTERPOLATION TYPE:            DIIS
 INTERPOLATION STEPS:              2 (START)      1 (STEP)
 LEVEL SHIFTS:                 -0.30 (CLOSED)  0.00 (OPEN) 



 Orbital guess generated from atomic densities. Full valence occupancy:   32

 Molecular orbital dump at record        2100.2

 ITERATION    DDIFF          GRAD             ENERGY        2-EL.EN.            DIPOLE MOMENTS         DIIS   ORB.
    1      0.000D+00      0.000D+00      -267.28011244    554.765587    0.13890    0.57947   -0.17807    0    start
    2      0.000D+00      0.266D-02      -267.34306301    553.921351    0.25443    0.37801   -0.07434    1    diag,B
    3      0.212D-02      0.849D-03      -267.35426652    554.179441    0.23039    0.44799   -0.10360    2    diag,B
    4      0.657D-03      0.380D-03      -267.35776503    554.168321    0.27274    0.45329   -0.09556    3    diag,B
    5      0.386D-03      0.163D-03      -267.35854675    554.151039    0.27090    0.47130   -0.09192    4    diag,B
    6      0.178D-03      0.610D-04      -267.35871787    554.154909    0.27815    0.48024   -0.08772    5    diag,B
    7      0.104D-03      0.205D-04      -267.35873770    554.147272    0.27907    0.48342   -0.08526    6    fixocc
    8      0.433D-04      0.725D-05      -267.35874015    554.148707    0.27902    0.48451   -0.08434    7    diag,B
    9      0.174D-04      0.292D-05      -267.35874063    554.148224    0.27880    0.48480   -0.08399    8    diag,B
   10      0.687D-05      0.127D-05      -267.35874073    554.148631    0.27868    0.48495   -0.08384    9    orth
   11      0.314D-05      0.539D-06      -267.35874075    554.148510    0.27864    0.48498   -0.08379    9    diag,B
   12      0.158D-05      0.194D-06      -267.35874075    554.148567    0.27864    0.48497   -0.08379    0    orth

 Final alpha occupancy:  21
 Final beta  occupancy:  20

 !RHF STATE 1.1 Energy               -267.358740754206
 Nuclear energy                       182.23485579
 One-electron energy                 -726.66788006
 Two-electron energy                  277.07428352
 Virial quotient                       -1.00126033
 !RHF STATE 1.1 Dipole moment           0.27863783     0.48496678    -0.08379196
 Dipole moment /Debye                   0.70818034     1.23258187    -0.21296396

 Orbital energies:

         1.1          2.1          3.1          4.1          5.1          6.1          7.1          8.1          9.1         10.1
    -20.618919   -20.617370   -11.286315   -11.225259   -11.216956    -1.463308    -1.223406    -1.034163    -0.925444    -0.779400

        11.1         12.1         13.1         14.1         15.1         16.1         17.1         18.1         19.1         20.1
     -0.707486    -0.670921    -0.637721    -0.605217    -0.562643    -0.542630    -0.528694    -0.506942    -0.481532    -0.449078

        21.1         22.1         23.1
     -0.352528     0.049899     0.052457

 HOMO     21.1    -0.352528 =      -9.5928eV
 LUMO     22.1     0.049899 =       1.3578eV
 LUMO-HOMO         0.402427 =      10.9506eV


 **********************************************************************************************************************************
 DATASETS  * FILE   NREC   LENGTH (MB)   RECORD NAMES
              1      18       13.33       500      610      700      900      950      970     1000      129      960     1100   
                                          VAR    BASINP    GEOM    SYMINP    ZMAT    AOBASIS   BASIS     P2S    ABASIS      S 
                                         1400     1410     1200     1210     1080     1600     1650     1700   
                                           T        V       H0       H01     AOSYM     SMH    MOLCAS    OPER   

              2       4        4.81       700     1000      520     2100   
                                         GEOM     BASIS   MCVARS     RHF  

 PROGRAMS   *        TOTAL        HF       INT
 CPU TIMES  *       983.26    500.79    482.13
 REAL TIME  *      1451.05 SEC
 DISK USED  *        43.94 GB      
 SF USED    *         0.61 MB      
 GA USED    *         0.01 MB       (max)       0.00 MB       (current)
 **********************************************************************************************************************************


1PROGRAM * CCSD (Unrestricted open-shell coupled cluster)     Authors: C. Hampel, H.-J. Werner, 1991, M. Deegan, P.J. Knowles, 1992

                           UCCSD-F12 implementation by G. Knizia and H.-J. Werner, 2008

                   Density fitting integral evaluation by F.R. Manby, 2003,2007, G. Knizia, 2010

 Basis set CC-PVTZ/JKFIT generated.      Number of basis functions:   605 
 Basis set CC-PVTZ-F12/OPTRI generated.  Number of basis functions:   662 
 Basis set AUG-CC-PVTZ/MP2FIT generated. Number of basis functions:   852 

 Convergence thresholds:  THRVAR = 1.00D-08  THRDEN = 1.00D-06

 CCSD(T)     terms to be evaluated (factor= 1.000)


 Number of core orbitals:           5 (   5 )
 Number of closed-shell orbitals:  15 (  15 )
 Number of active  orbitals:        1 (   1 )
 Number of external orbitals:     370 ( 370 )

 Memory could be reduced to 1307.88 Mwords without degradation in triples

 Number of N-1 electron functions:              31
 Number of N-2 electron functions:             465
 Number of singly external CSFs:             11501
 Number of doubly external CSFs:          48476715
 Total number of CSFs:                    48488216

 Molecular orbitals read from record     2100.2  Type=RHF/CANONICAL (state 1.1)

 Integral transformation finished. Total CPU: 630.71 sec, npass=  1  Memory used: 546.75 MW
 
 Geminal basis:    OPTFULL  GEM_TYPE=SLATER  BETA=1.0  NGEM=6

 Optimizing Gaussian exponents for each gem_beta

 Geminal optimization for beta= 1.0000
 Weight function:   m=0, omega= 1.4646

 Augmented Hessian optimization of geminal fit. Trust ratio= 0.40000
 Convergence reached after   2 iterations. Final gradient= 8.32D-16, Step= 4.35D-06, Delta= 1.28D-09
 
 Alpha:                 0.19532     0.81920     2.85917     9.50073    35.69989   197.79328
 Coeff:                 0.27070     0.30552     0.18297     0.10986     0.06810     0.04224
 
 
 WFN_F12=FIX,EG    DECOUPLE_EXPL=F   HYBRID=0    NOX=F   SEMIINT_F12=T   CORE_SINGLES=F
 
 AO(A)-basis ORBITAL           loaded. Number of functions:     391
 RI(R)-basis CC-PVTZ-F12/OPTRI loaded. Number of functions:     662
 DF-basis CC-PVTZ/JKFIT        loaded. Number of functions:     605

 Screening thresholds:   THRAO=  1.00D-10  THRMO=  1.00D-09  THRPROD=  1.00D-09
                         THRSW=  1.00D-05  THROV=  1.00D-12  THRF12=   1.00D-08

 CPU time for one-electron matrices              22.75 sec
 
 Construction of ABS:
 Pseudo-inverse stability          1.76E-10
 Smallest eigenvalue of S          1.04E-04  (threshold= 1.00E-08)
 Ratio eigmin/eigmax               4.85E-07  (threshold= 1.00E-09)
 Smallest eigenvalue of S kept     1.04E-04  (threshold= 1.04E-04, 0 functions deleted, 662 kept)
 
 Construction of CABS:
 Pseudo-inverse stability          1.33E-09
 Smallest eigenvalue of S          5.63E-07  (threshold= 1.00E-08)
 Ratio eigmin/eigmax               5.63E-07  (threshold= 1.00E-09)
 Smallest eigenvalue of S kept     5.63E-07  (threshold= 5.63E-07, 0 functions deleted, 662 kept)
 
 CPU time for basis constructions                 2.11 sec
 Fock operators(MO) rebuilt from dump record.
 CPU time for fock operators                      3.38 sec
 
                                      TOTAL          ALPHA          BETA    
  Singles Contributions MO        -0.002870565   -0.001451760   -0.001418805
  Singles Contributions CABS      -0.002613029   -0.001340934   -0.001272096
  Pure DF-RHF relaxation          -0.002607870
 
 CPU time for singles                             9.73 sec
 
 AO(A)-basis ORBITAL           loaded. Number of functions:     391
 RI(R)-basis CC-PVTZ-F12/OPTRI loaded. Number of functions:     662
 DF-basis AUG-CC-PVTZ/MP2FIT   loaded. Number of functions:     852

 Screening thresholds:   THRAO=  1.00D-10  THRMO=  1.00D-09  THRPROD=  1.00D-09
                         THRSW=  1.00D-05  THROV=  1.00D-12  THRF12=   1.00D-08

 CPU time for transformed integrals             446.07 sec
 CPU time for F12 matrices                       82.81 sec

 Diagonal F12 ansatz with fixed amplitudes:   TS= 0.5000  TT= 0.2500  TN= 0.3750
 
 ITER.     SQ.NORM      CORR.ENERGY   TOTAL ENERGY  ENERGY CHANGE      VAR         CPU   MICRO    DIIS
   1      1.28134721    -1.10624091  -268.46758953    -1.1088E+00   2.79E-01      3.80  1  1  1   0  0
   2      1.28107530    -1.10584745  -268.46719607     3.9346E-04   7.61E-05     29.83  0  0  0   1  1
   3      1.28123367    -1.10602542  -268.46737404    -1.7797E-04   3.53E-07     58.12  0  0  0   2  2
   4      1.28123500    -1.10602611  -268.46737473    -6.8468E-07   1.53E-09     87.65  0  0  0   3  3
 
 - - Continuing with F12/conv. amplitude coupling turned on.
 
   5      1.28122732    -1.10640182  -268.46775044    -3.7640E-04   8.75E-05    116.27  1  1  1   1  1
   6      1.28122685    -1.10640196  -268.46775058    -1.3801E-07   1.64E-09    145.86  1  1  1   2  2
 
 CPU time for iterative RMP2-F12                145.86 sec
 
 
 DF-RMP2-F12 doubles corrections:
 - - - - - - - - - - - - - - - - 
  Approx.                             TOTAL           A-B            A-A            B-B    
  RMP2-F12/3C(FIX)                -0.087501518   -0.081295075   -0.003317506   -0.002888937
  RMP2-F12/3*C(FIX)               -0.087125666   -0.081154508   -0.003194113   -0.002777045
  RMP2-F12/3*C(DX)                -0.087437766   -0.081440849   -0.003207216   -0.002789702
  RMP2-F12/3*C(FIX,DX)            -0.092206920   -0.085895957   -0.003359894   -0.002951069
 
 DF-RMP2-F12 doubles energies:
 - - - - - - - - - - - - - - -
  Approx.                             TOTAL           A-B            A-A            B-B    
  RMP2                            -1.016029875   -0.775052217   -0.128016300   -0.112961358
  RMP2-F12/3C(FIX)                -1.103531393   -0.856347292   -0.131333806   -0.115850296
  RMP2-F12/3*C(FIX)               -1.103155541   -0.856206724   -0.131210413   -0.115738403
  RMP2-F12/3*C(DX)                -1.103467641   -0.856493066   -0.131223516   -0.115751060
  RMP2-F12/3*C(FIX,DX)            -1.108236795   -0.860948174   -0.131376194   -0.115912427
 
 
  Reference energy                   -267.358740754203
  CABS relaxation correction to RHF    -0.002607869543
  New reference energy               -267.361348623747
 
  RMP2-F12 singles (MO) energy         -0.002870564641
  RMP2-F12 pair energy                 -1.103531393035
  RMP2-F12 correlation energy          -1.106401957676
 
  RMP2-F12/3C(FIX) energy            -268.467750581423

 Starting RMP2 calculation

 ITER.      SQ.NORM     CORR.ENERGY   TOTAL ENERGY   ENERGY CHANGE        DEN1      VAR(S)    VAR(P)  DIIS     TIME
   1      1.27849438    -1.01566959  -268.37441034    -1.01566959    -0.00308484  0.14D-04  0.11D-02  1  1  1416.31
   2      1.28117332    -1.01897251  -268.37771326    -0.00330292    -0.00000411  0.29D-06  0.17D-05  2  2  1445.90
   3      1.28124200    -1.01901946  -268.37776021    -0.00004695    -0.00000002  0.10D-07  0.61D-08  3  3  1476.93
   4      1.28124275    -1.01901932  -268.37776007     0.00000014    -0.00000000  0.23D-09  0.24D-10  4  4  1509.27

 Norm of t1 vector:      0.04308416      S-energy:    -0.00287053      T1 diagnostic:  0.00036539
 Norm of t2 vector:      0.52857024      P-energy:    -1.01614879
                                         Alpha-Beta:  -0.77538268
                                         Alpha-Alpha: -0.12789267
                                         Beta-Beta:   -0.11287344

 Spin contamination <S**2-Sz**2-Sz>     0.00097958
  Reference energy                   -267.361348623746
  RHF-RMP2 correlation energy          -1.019019315368
 !RHF-RMP2 energy                    -268.380367939115

 Starting UCCSD calculation

 ITER.      SQ.NORM     CORR.ENERGY   TOTAL ENERGY   ENERGY CHANGE        DEN1      VAR(S)    VAR(P)  DIIS     TIME
   1      1.28148049    -1.00645961  -268.36520036    -1.00645961    -0.02758080  0.42D-02  0.50D-02  1  1  3885.33
   2      1.30458920    -1.03133457  -268.39007532    -0.02487496    -0.00250299  0.22D-03  0.78D-03  2  2  6187.06
   3      1.31433480    -1.03666516  -268.39540591    -0.00533059    -0.00029001  0.12D-03  0.62D-04  3  3  8542.91
   4      1.31882607    -1.03875854  -268.39749929    -0.00209338    -0.00004413  0.16D-04  0.11D-04  4  4 10866.96
   5      1.32027095    -1.03899451  -268.39773527    -0.00023598    -0.00000991  0.70D-05  0.15D-05  5  5 13227.96
   6      1.32085812    -1.03905478  -268.39779554    -0.00006027    -0.00000212  0.12D-05  0.42D-06  6  6 15542.82
   7      1.32115640    -1.03909444  -268.39783519    -0.00003966    -0.00000040  0.27D-06  0.68D-07  6  1 17894.42
   8      1.32121865    -1.03910035  -268.39784110    -0.00000591    -0.00000010  0.61D-07  0.18D-07  6  2 20216.46
   9      1.32125570    -1.03910327  -268.39784403    -0.00000293    -0.00000003  0.22D-07  0.39D-08  6  3 22526.09
  10      1.32126294    -1.03910428  -268.39784503    -0.00000101    -0.00000001  0.54D-08  0.12D-08  6  4 24824.54
  11      1.32126335    -1.03910302  -268.39784377     0.00000127    -0.00000000  0.14D-08  0.35D-09  6  5 27153.23
  12      1.32126331    -1.03910245  -268.39784320     0.00000056    -0.00000000  0.31D-09  0.87D-10  6  6 29488.24

 Norm of t1 vector:      0.11712945      S-energy:    -0.00330608      T1 diagnostic:  0.01326321
                                                                       D1 diagnostic:  0.03490196
 Norm of t2 vector:      0.55456649      P-energy:    -1.03579637
                                         Alpha-Beta:  -0.81781196
                                         Alpha-Alpha: -0.11632027
                                         Beta-Beta:   -0.10166413

 Spin contamination <S**2-Sz**2-Sz>     0.00099331

 Memory could be reduced to 1380.52 Mwords without degradation in triples
 

  Ecorr(MP2)                           -1.019019315368
  Ecorr(MP2-F12)                       -1.106520833306
  Scale factor for triples energy       1.085868360509

 RESULTS
 =======

  Reference energy                   -267.358740754203
  CABS relaxation correction to RHF    -0.002607869543
  New reference energy               -267.361348623746
 
  F12 corrections for ansatz 3C(FIX) added to UCCSD energy. Coupling mode: 15
 
  UCCSD-F12a singles energy            -0.003306080953
  UCCSD-F12a pair energy               -1.122223507602
  UCCSD-F12a correlation energy        -1.125529588555
  Triples (T) contribution (scaled)    -0.047190550616
  Total correlation energy             -1.172720139172
 
  RHF-UCCSD-F12a energy              -268.486878212302
  RHF-UCCSD[T]-F12a energy           -268.535722047574
  RHF-UCCSD-T-F12a energy            -268.533404747963
 !RHF-UCCSD(T)-F12a energy           -268.534068762918
 
  F12 corrections for ansatz 3C(FIX) added to UCCSD energy. Coupling mode: 15
 
  UCCSD-F12b singles energy            -0.003306080953
  UCCSD-F12b pair energy               -1.106446217662
  UCCSD-F12b correlation energy        -1.109752298615
  Triples (T) contribution (scaled)    -0.047190550616
  Total correlation energy             -1.156942849232
 
  RHF-UCCSD-F12b energy              -268.471100922362
  RHF-UCCSD[T]-F12b energy           -268.519944757634
  RHF-UCCSD-T-F12b energy            -268.517627458023
 !RHF-UCCSD(T)-F12b energy           -268.518291472978

 Program statistics:

 Available memory in ccsd:              1899997692
 Min. memory needed in ccsd:             134943467
 Max. memory used in ccsd:               196512308
 Max. memory used in cckext:             146304994 (13 integral passes)
 Max. memory used in cckint:             546754390 ( 1 integral passes)



 **********************************************************************************************************************************
 DATASETS  * FILE   NREC   LENGTH (MB)   RECORD NAMES
              1      18       13.33       500      610      700      900      950      970     1000      129      960     1100   
                                          VAR    BASINP    GEOM    SYMINP    ZMAT    AOBASIS   BASIS     P2S    ABASIS      S 
                                         1400     1410     1200     1210     1080     1600     1650     1700   
                                           T        V       H0       H01     AOSYM     SMH    MOLCAS    OPER   

              2       5        6.66       700     1000      520     2100     7360   
                                         GEOM     BASIS   MCVARS     RHF    F12ABS    

 PROGRAMS   *        TOTALUCCSD(T)-F        HF       INT
 CPU TIMES  *     95816.65  94833.37    500.79    482.13
 REAL TIME  *     98886.71 SEC
 DISK USED  *        56.19 GB      
 SF USED    *        46.71 GB      
 GA USED    *         2.40 MB       (max)       0.00 MB       (current)
 **********************************************************************************************************************************

    UCCSD(T)-F12        HF-SCF  
   -268.51829147   -267.35874075
 **********************************************************************************************************************************
 Variable memory released
