
 Primary working directories    : /scratch/goldmanm/molpro_scratch
 Secondary working directories  : /scratch/goldmanm/molpro_scratch
 Wavefunction directory         : /home/goldmanm/wfu/
 Main file repository           : /scratch/goldmanm/molpro_scratch/

 SHA1      : 5e3d8ac6839c721e2824de82269b4736200146bd
 NAME      : 2015.1.37
 ARCHNAME  : linux/x86_64
 FC        : /opt/intel/composer_xe_2015.1.133/bin/intel64/ifort
 BLASLIB   : -Wl,-_start-group /opt/intel/mkl/lib/intel64/libmkl_intel_ilp64.a /opt/intel/mkl/lib/intel64/libmkl_intel_thread.a /opt/intel/mkl/lib/intel64/libmkl_core.a -Wl,-_end-group
 id        : phalgunlolur

 Nodes     nprocs
 node02       1

 Using customized tuning parameters: mindgm=1; mindgv=20; mindgc=4; mindgr=1; noblas=0; minvec=7
 default implementation of scratch files=df  

 geomtyp=xyz
 geometry={
 16
 C          0.03574       -0.06086        0.07002
 C          0.04629       -0.07373        1.64079
 O          1.42951       -0.14991        2.04499
 O          1.50658       -0.68847        3.36596
 O         -0.73692       -0.96439        2.19306
 H          0.39378       -1.05426       -0.21698
 C         -1.39565        0.13061       -0.43383
 C          0.99655        1.00053       -0.47325
 H         -0.31232        0.93253        1.97846
 H          0.75345       -1.31297        3.36033
 H          1.00638        0.95829       -1.56584
 H          2.01441        0.84679       -0.11528
 H          0.67845        2.00625       -0.18108
 H         -1.41719        0.05253       -1.52391
 H         -1.78062        1.11927       -0.16425
 H         -2.06780       -0.62118       -0.01967
 }
 
 memory,1900,M
 basis = vtz-f12
 hf
 uccsd(t)-f12,scale_trip=1

 Variables initialized (889), CPU time= 0.01 sec
 Commands  initialized (702), CPU time= 0.01 sec, 572 directives.
 Default parameters read. Elapsed time= 0.15 sec

 Checking input...
 Passed
1


                                         ***  PROGRAM SYSTEM MOLPRO  ***
                                       Copyright, TTI GmbH Stuttgart, 2015
                                    Version 2015.1 linked Aug 10 2018 15:00:15


 **********************************************************************************************************************************
 LABEL *                                                                                 
  64 bit serial version                                                                  DATE: 17-Aug-19          TIME: 00:32:17  
 **********************************************************************************************************************************

 SHA1:             5e3d8ac6839c721e2824de82269b4736200146bd
 **********************************************************************************************************************************
 SETTING GEOMTYP        =    XYZ

 Variable memory set to 1900000000 words,  buffer space   230000 words

 SETTING BASIS          =    VTZ-F12


 Recomputing integrals since basis changed


 Using spherical harmonics

 Library entry C      S cc-pVTZ-F12          selected for orbital group  1
 Library entry C      P cc-pVTZ-F12          selected for orbital group  1
 Library entry C      D cc-pVTZ-F12          selected for orbital group  1
 Library entry C      F cc-pVTZ-F12          selected for orbital group  1
 Library entry O      S cc-pVTZ-F12          selected for orbital group  2
 Library entry O      P cc-pVTZ-F12          selected for orbital group  2
 Library entry O      D cc-pVTZ-F12          selected for orbital group  2
 Library entry O      F cc-pVTZ-F12          selected for orbital group  2
 Library entry H      S cc-pVTZ-F12          selected for orbital group  3
 Library entry H      P cc-pVTZ-F12          selected for orbital group  3
 Library entry H      D cc-pVTZ-F12          selected for orbital group  3


 PROGRAM * SEWARD (Integral evaluation for generally contracted gaussian basis sets)     Author: Roland Lindh, 1990

 Geometry written to block  1 of record 700


 Point group  C1  



 ATOMIC COORDINATES

 NR  ATOM    CHARGE       X              Y              Z

   1  C       6.00    0.067538812   -0.115008732    0.132318623
   2  C       6.00    0.087475422   -0.139329507    3.100643728
   3  O       8.00    2.701382392   -0.283288843    3.864471027
   4  O       8.00    2.847023585   -1.301019745    6.360742546
   5  O       8.00   -1.392576976   -1.822432977    4.144282775
   6  H       1.00    0.744136353   -1.992262664   -0.410032775
   7  C       6.00   -2.637396266    0.246817129   -0.819819885
   8  C       6.00    1.883206569    1.890727679   -0.894312888
   9  H       1.00   -0.590199263    1.762226303    3.738747548
  10  H       1.00    1.423814149   -2.481153710    6.350103388
  11  H       1.00    1.901782577    1.810905648   -2.959008755
  12  H       1.00    3.806683203    1.600201185   -0.217847628
  13  H       1.00    1.282084689    3.791263037   -0.342191607
  14  H       1.00   -2.678100966    0.099267313   -2.879772538
  15  H       1.00   -3.364884132    2.115113759   -0.310387516
  16  H       1.00   -3.907575680   -1.173860074   -0.037170913

 Bond lengths in Bohr (Angstrom)

 1-2  2.968491687  1-6  2.067851928  1-7  2.890356287  1-8  2.893717370  2-3  2.727025134
     ( 1.570858152)     ( 1.094260116)     ( 1.529510678)     ( 1.531289287)     ( 1.443079555)

  2- 5  2.472362201   2- 9  2.117152324   3- 4  2.699696102   4-10  1.848879246   7-14  2.065631322
       ( 1.308317734)       ( 1.120348762)       ( 1.428617653)       ( 0.978384763)       ( 1.093085022)

  7-15  2.068645023   7-16  2.060150207   8-11  2.066321767   8-12  2.059556567   8-13  2.068385861
       ( 1.094679804)       ( 1.090184540)       ( 1.093450390)       ( 1.089870400)       ( 1.094542661)

 Bond angles

  1- 2- 3  106.67542772   1- 2- 5  115.06559360   1- 2- 9  106.97005807   1- 7-14  109.75586270

  1- 7-15  111.16462855   1- 7-16  111.43970309   1- 8-11  109.47315861   1- 8-12  111.81994141

  1- 8-13  111.08986976   2- 1- 6  104.63305813   2- 1- 7  109.67664389   2- 1- 8  110.86850271

  2- 3- 4  109.30520972   3- 2- 5  114.81154851   3- 2- 9  105.65263844   3- 4-10  101.17330921

  5-2-9  107.01362335   6-1-7  109.47855709   6-1-8  109.32313394   7-1-8  112.55432133

 11- 8-12  108.32147535  11- 8-13  107.74800931  12- 8-13  108.26195807  14- 7-15  107.64807561

 14- 7-16  108.50856850  15- 7-16  108.20588457

 NUCLEAR CHARGE:                   57
 NUMBER OF PRIMITIVE AOS:         693
 NUMBER OF SYMMETRY AOS:          621
 NUMBER OF CONTRACTIONS:          533   ( 533A   )
 NUMBER OF CORE ORBITALS:           7   (   7A   )
 NUMBER OF VALENCE ORBITALS:       37   (  37A   )


 NUCLEAR REPULSION ENERGY  330.75242576


 Eigenvalues of metric

         1 0.250E-04 0.350E-04 0.399E-04 0.574E-04 0.959E-04 0.119E-03 0.127E-03 0.134E-03


 Contracted 2-electron integrals neglected if value below      1.0D-12
 AO integral compression algorithm  1   Integral accuracy      1.0D-12

     36114.530 MB (compressed) written to integral file ( 41.8%)


 NUMBER OF SORTED TWO-ELECTRON INTEGRALS:10126281516.     BUFFER LENGTH:  32768
 NUMBER OF SEGMENTS: 159  SEGMENT LENGTH:   63999810      RECORD LENGTH: 262144

 Memory used in sort:      64.29 MW

 SORT1 READ 10804866233. AND WROTE  8585112832. INTEGRALS IN  49202 RECORDS. CPU TIME:   184.77 SEC, REAL TIME:   294.99 SEC
 SORT2 READ  8585112832. AND WROTE 10126281516. INTEGRALS IN 137766 RECORDS. CPU TIME:   157.32 SEC, REAL TIME:   580.20 SEC

 FILE SIZES:   FILE 1: 36145.1 MBYTE,  FILE 4:103184.1 MBYTE,   TOTAL: 139329.2 MBYTE

 OPERATOR DM      FOR CENTER  0  COORDINATES:    0.000000    0.000000    0.000000


 **********************************************************************************************************************************
 DATASETS  * FILE   NREC   LENGTH (MB)   RECORD NAMES
              1      19    33757.03       500      610      700      900      950      970     1000      129      960     1100   
                                          VAR    BASINP    GEOM    SYMINP    ZMAT    AOBASIS   BASIS     P2S    ABASIS      S 
                                         1400     1410     1200     1210     1080     1600     1650     1300     1700   
                                           T        V       H0       H01     AOSYM     SMH    MOLCAS    ERIS     OPER   

 PROGRAMS   *        TOTAL       INT
 CPU TIMES  *       841.28    841.12
 REAL TIME  *      1409.52 SEC
 DISK USED  *       139.33 GB      
 **********************************************************************************************************************************


 PROGRAM * RHF-SCF (OPEN SHELL)       Authors: W. Meyer, H.-J. Werner


 NUMBER OF ELECTRONS:      29+   28-    SPACE SYMMETRY=1    SPIN SYMMETRY: Doublet 
 CONVERGENCE THRESHOLDS:    1.00E-05 (Density)    1.14E-07 (Energy)
 MAX. NUMBER OF ITERATIONS:       60
 INTERPOLATION TYPE:            DIIS
 INTERPOLATION STEPS:              2 (START)      1 (STEP)
 LEVEL SHIFTS:                 -0.60 (CLOSED) -0.30 (OPEN) 



 Orbital guess generated from atomic densities. Full valence occupancy:   44

 Molecular orbital dump at record        2100.2

 Initial alpha occupancy:  29
 Initial beta  occupancy:  28
 Wave function symmetry:    1

 ITERATION    DDIFF          GRAD             ENERGY        2-EL.EN.            DIPOLE MOMENTS         DIIS   ORB.
    1      0.000D+00      0.000D+00      -381.05477133    930.643863    1.02991    0.99308   -0.73691    0    start
    2      0.000D+00      0.338D-02      -381.19661845    931.324528   -0.12005    0.41104   -0.71082    1    diag,B
    3      0.255D-02      0.149D-02      -381.22132841    931.240166    0.04497    0.52209   -0.78684    2    diag,B
    4      0.808D-03      0.495D-03      -381.23528077    931.328395   -0.17693    0.44660   -0.80596    3    diag,B
    5      0.519D-03      0.343D-03      -381.24616389    931.369416   -0.34340    0.39709   -0.84539    4    diag,B
    6      0.361D-03      0.319D-03      -381.25387885    931.405160   -0.45366    0.35990   -0.86189    5    diag,B
    7      0.226D-03      0.334D-03      -381.24185544    931.323257   -0.27004    0.41889   -0.83350    6    fixocc
     Orbital 29.1 strongly deviates from fixed occupation: 1.10689  (now: 1.00)
     Note:  Use {hf,nitord=N} to fix occupations at iteration N
            Use {gthresh,occdev=1.0} to suppress deviation warnings
    8      0.353D-03      0.300D-03      -381.21150905    930.675475    0.24839    0.45594   -0.65928    7    diag,B
    9      0.126D-02      0.565D-03      -381.21188011    930.677901    0.23547    0.45513   -0.66523    8    diag,B
   10      0.324D-04      0.568D-03      -381.20706038    930.540747    0.30698    0.42713   -0.60475    9    orth
   11      0.318D-03      0.696D-03      -381.21141848    930.685753    0.27200    0.46878   -0.66209    9    diag,B
   12      0.291D-03      0.536D-03      -381.21187817    930.740364    0.29499    0.48362   -0.66276    9    diag,B
   13      0.514D-04      0.487D-03      -381.20747486    930.614406    0.37775    0.45689   -0.60303    9    diag,B
   14      0.334D-03      0.633D-03      -381.20590681    930.559895    0.39065    0.43888   -0.57874    9    diag,B
   15      0.121D-03      0.694D-03      -381.20806731    930.650026    0.38188    0.46811   -0.61161    9    diag,B
   16      0.165D-03      0.597D-03      -381.20745743    930.629821    0.38523    0.46160   -0.60367    9    diag,B
   17      0.401D-04      0.621D-03      -381.20998186    930.714854    0.37662    0.48844   -0.63306    9    diag,B
   18      0.155D-03      0.518D-03      -381.21061219    930.729951    0.38644    0.49439   -0.63327    9    diag,B
   19      0.421D-04      0.491D-03      -381.21166651    930.671004    0.46913    0.48937   -0.58384    9    diag,B
   20      0.271D-03      0.464D-03      -381.21291265    930.681491    0.47664    0.49225   -0.57935    9    orth
   21      0.106D-03      0.426D-03      -381.21251502    930.638320    0.43383    0.46382   -0.56957    9    diag,B
   22      0.911D-04      0.509D-03      -381.21421581    930.740437    0.47430    0.50807   -0.59707    9    diag,B
   23      0.151D-03      0.346D-03      -381.21592582    930.814924    0.51506    0.52961   -0.59004    9    diag,B
   24      0.157D-03      0.202D-03      -381.21538967    930.741678    0.60303    0.52598   -0.54557    9    diag,B
   25      0.207D-03      0.192D-03      -381.21621108    930.837247    0.67483    0.55044   -0.52870    9    diag,B
   26      0.186D-03      0.558D-04      -381.21647410    930.786275    0.73595    0.53882   -0.48963    9    diag,B
   27      0.205D-03      0.280D-04      -381.21659183    930.803792    0.74254    0.54249   -0.48661    9    diag,B
   28      0.766D-04      0.157D-04      -381.21662758    930.790536    0.74543    0.54064   -0.48405    9    diag,B
   29      0.439D-04      0.122D-04      -381.21663095    930.809677    0.74596    0.54706   -0.48968    9    diag,B
   30      0.360D-04      0.180D-04      -381.21663997    930.808842    0.73539    0.54555   -0.49314    9    orth
   31      0.216D-04      0.381D-05      -381.21664101    930.805183    0.73576    0.54532   -0.49291    9    diag,B
   32      0.810D-05      0.225D-05      -381.21664203    930.806725    0.73437    0.54536   -0.49352    9    diag,B
   33      0.631D-05      0.170D-05      -381.21664283    930.806291    0.73359    0.54524   -0.49378    9    diag,B
   34      0.518D-05      0.112D-05      -381.21664319    930.806295    0.73317    0.54518   -0.49387    9    diag,B
   35      0.329D-05      0.911D-06      -381.21664335    930.805776    0.73343    0.54517   -0.49380    9    diag,B
   36      0.237D-05      0.746D-06      -381.21664357    930.805569    0.73344    0.54521   -0.49393    9    diag,B
   37      0.316D-05      0.587D-06      -381.21664374    930.805529    0.73340    0.54529   -0.49418    9    diag,B
   38      0.296D-05      0.437D-06      -381.21664386    930.805712    0.73321    0.54538   -0.49459    9    diag,B
   39      0.357D-05      0.283D-06      -381.21664389    930.805685    0.73326    0.54541   -0.49475    9    diag,B
   40      0.199D-05      0.183D-06      -381.21664390    930.805984    0.73288    0.54535   -0.49485    0    orth

 Final alpha occupancy:  29
 Final beta  occupancy:  28

 !RHF STATE 1.1 Energy               -381.216643895193
 Nuclear energy                       330.75242576
 One-electron energy                -1177.37206141
 Two-electron energy                  465.40299176
 Virial quotient                       -1.00137007
 !RHF STATE 1.1 Dipole moment           0.73288498     0.54535323    -0.49485421
 Dipole moment /Debye                   1.86268581     1.38605885    -1.25771157

 Orbital energies:

         1.1          2.1          3.1          4.1          5.1          6.1          7.1          8.1          9.1         10.1
    -20.777105   -20.708305   -20.485260   -11.352794   -11.251764   -11.227289   -11.218460    -1.578779    -1.327571    -1.274064

        11.1         12.1         13.1         14.1         15.1         16.1         17.1         18.1         19.1         20.1
     -1.081150    -0.941934    -0.907828    -0.819122    -0.777992    -0.723705    -0.673265    -0.656285    -0.614185    -0.607772

        21.1         22.1         23.1         24.1         25.1         26.1         27.1         28.1         29.1         30.1
     -0.576700    -0.557177    -0.545829    -0.507896    -0.493608    -0.487760    -0.426480    -0.404146    -0.557775     0.040494

        31.1
      0.050645

 HOMO     29.1    -0.557775 =     -15.1778eV
 LUMO     30.1     0.040494 =       1.1019eV
 LUMO-HOMO         0.598269 =      16.2797eV


 **********************************************************************************************************************************
 DATASETS  * FILE   NREC   LENGTH (MB)   RECORD NAMES
              1      19    33757.03       500      610      700      900      950      970     1000      129      960     1100   
                                          VAR    BASINP    GEOM    SYMINP    ZMAT    AOBASIS   BASIS     P2S    ABASIS      S 
                                         1400     1410     1200     1210     1080     1600     1650     1300     1700   
                                           T        V       H0       H01     AOSYM     SMH    MOLCAS    ERIS     OPER   

              2       4       11.06       700     1000      520     2100   
                                         GEOM     BASIS   MCVARS     RHF  

 PROGRAMS   *        TOTAL        HF       INT
 CPU TIMES  *      6922.58   6081.30    841.12
 REAL TIME  *      7787.33 SEC
 DISK USED  *       139.33 GB      
 **********************************************************************************************************************************


 PROGRAM * CCSD (Unrestricted open-shell coupled cluster)     Authors: C. Hampel, H.-J. Werner, 1991, M. Deegan, P.J. Knowles, 1992

                           UCCSD-F12 implementation by G. Knizia and H.-J. Werner, 2008

                   Density fitting integral evaluation by F.R. Manby, 2003,2007, G. Knizia, 2010

 Basis set CC-PVTZ/JKFIT generated.      Number of basis functions:   823 
 Basis set CC-PVTZ-F12/OPTRI generated.  Number of basis functions:   894 
 Basis set AUG-CC-PVTZ/MP2FIT generated. Number of basis functions:   1156 

 Convergence thresholds:  THRVAR = 1.00D-08  THRDEN = 1.14D-06

 CCSD(T)     terms to be evaluated (factor= 1.000)


 Number of core orbitals:           7 (   7 )
 Number of closed-shell orbitals:  21 (  21 )
 Number of active  orbitals:        1 (   1 )
 Number of external orbitals:     504 ( 504 )

 For full I/O caching in triples, increase memory by 2352.23 Mwords to 4252.51 Mwords.

 Number of N-1 electron functions:              43
 Number of N-2 electron functions:             903
 Number of singly external CSFs:             21715
 Number of doubly external CSFs:         173943210
 Total number of CSFs:                   173964925

 Molecular orbitals read from record     2100.2  Type=RHF/CANONICAL (state 1.1)

 Integral transformation finished. Total CPU:1644.87 sec, npass=  1  Memory used:1866.44 MW
 
 Geminal basis:    OPTFULL  GEM_TYPE=SLATER  BETA=1.0  NGEM=6

 Optimizing Gaussian exponents for each gem_beta

 Geminal optimization for beta= 1.0000
 Weight function:   m=0, omega= 1.4646

 Augmented Hessian optimization of geminal fit. Trust ratio= 0.40000
 Convergence reached after   2 iterations. Final gradient= 8.17D-16, Step= 4.34D-06, Delta= 1.28D-09
 
 Alpha:                 0.19532     0.81920     2.85917     9.50073    35.69989   197.79328
 Coeff:                 0.27070     0.30552     0.18297     0.10986     0.06810     0.04224
 
 
 WFN_F12=FIX,EG    DECOUPLE_EXPL=F   HYBRID=0    NOX=F   SEMIINT_F12=T   CORE_SINGLES=F
 
 AO(A)-basis ORBITAL           loaded. Number of functions:     533
 RI(R)-basis CC-PVTZ-F12/OPTRI loaded. Number of functions:     894
 DF-basis CC-PVTZ/JKFIT        loaded. Number of functions:     823

 Screening thresholds:   THRAO=  1.00D-10  THRMO=  1.00D-09  THRPROD=  1.00D-09
                         THRSW=  1.00D-05  THROV=  1.00D-12  THRAOF12=   1.00D-08

 CPU time for one-electron matrices              77.43 sec
 
 Construction of ABS:
 Pseudo-inverse stability          3.67E-11
 Smallest eigenvalue of S          6.31E-05  (threshold= 1.00E-08)
 Ratio eigmin/eigmax               5.99E-06  (threshold= 1.00E-09)
 Smallest eigenvalue of S kept     6.31E-05  (threshold= 6.31E-05, 0 functions deleted, 894 kept)
 
 Construction of CABS:
 Pseudo-inverse stability          1.00E-09
 Smallest eigenvalue of S          2.32E-07  (threshold= 1.00E-08)
 Ratio eigmin/eigmax               2.32E-07  (threshold= 1.00E-09)
 Smallest eigenvalue of S kept     2.32E-07  (threshold= 2.32E-07, 0 functions deleted, 894 kept)
 
 CPU time for basis constructions                 2.06 sec
 Fock operators(MO) rebuilt from dump record.
 CPU time for fock operators                      5.32 sec
 
                                      TOTAL          ALPHA          BETA    
  Singles Contributions MO        -0.005900997   -0.002883102   -0.003017895
  Singles Contributions CABS      -0.003647469   -0.001891127   -0.001756342
  Pure DF-RHF relaxation          -0.003633443
 
 CPU time for singles                             9.24 sec
 
 AO(A)-basis ORBITAL           loaded. Number of functions:     533
 RI(R)-basis CC-PVTZ-F12/OPTRI loaded. Number of functions:     894
 DF-basis AUG-CC-PVTZ/MP2FIT   loaded. Number of functions:    1156

 Screening thresholds:   THRAO=  1.00D-10  THRMO=  1.00D-09  THRPROD=  1.00D-09
                         THRSW=  1.00D-05  THROV=  1.00D-12  THRAOF12=   1.00D-08

 CPU time for transformed integrals            2510.75 sec
 CPU time for F12 matrices                      155.01 sec

 Diagonal F12 ansatz with fixed amplitudes:   TS= 0.5000  TT= 0.2500  TN= 0.3750
 
 ITER.     SQ.NORM      CORR.ENERGY   TOTAL ENERGY  ENERGY CHANGE      VAR         CPU   MICRO    DIIS
   1      1.43091916    -1.62384977  -382.84412710    -1.6275E+00   4.26E-01      4.19  1  1  1   0  0
   2      1.42950894    -1.62106140  -382.84133874     2.7884E-03   3.68E-04     61.10  0  0  0   1  1
   3      1.43036090    -1.62188814  -382.84216547    -8.2673E-04   4.36E-06    119.57  0  0  0   2  2
   4      1.43037680    -1.62189512  -382.84217246    -6.9871E-06   5.66E-08    178.62  0  0  0   3  3
   5      1.43038106    -1.62189521  -382.84217254    -8.3521E-08   1.03E-09    239.11  0  0  0   4  4
 
 - - Continuing with F12/conv. amplitude coupling turned on.
 
   6      1.43045821    -1.62260491  -382.84288225    -7.0979E-04   1.19E-04    298.89  1  1  1   1  1
   7      1.43045727    -1.62260492  -382.84288225    -8.1075E-09   5.05E-09    359.85  1  1  1   2  2
 
 CPU time for iterative RMP2-F12                359.85 sec
 
 
 DF-RMP2-F12 doubles corrections:
 - - - - - - - - - - - - - - - - 
  Approx.                             TOTAL           A-B            A-A            B-B    
  RMP2-F12/3C(FIX)                -0.123475787   -0.114569807   -0.004761759   -0.004144221
  RMP2-F12/3*C(FIX)               -0.122766076   -0.114220899   -0.004572999   -0.003972179
  RMP2-F12/3*C(DX)                -0.123225930   -0.114635879   -0.004599544   -0.003990507
  RMP2-F12/3*C(FIX,DX)            -0.130120137   -0.121038221   -0.004876987   -0.004204929
 
 DF-RMP2-F12 doubles energies:
 - - - - - - - - - - - - - - -
  Approx.                             TOTAL           A-B            A-A            B-B    
  RMP2                            -1.493228133   -1.122996181   -0.181057997   -0.189173955
  RMP2-F12/3C(FIX)                -1.616703920   -1.237565988   -0.185819756   -0.193318176
  RMP2-F12/3*C(FIX)               -1.615994210   -1.237217079   -0.185630996   -0.193146134
  RMP2-F12/3*C(DX)                -1.616454063   -1.237632060   -0.185657541   -0.193164462
  RMP2-F12/3*C(FIX,DX)            -1.623348270   -1.244034401   -0.185934984   -0.193378885
 
 
  Reference energy                   -381.216643895205
  CABS relaxation correction to RHF    -0.003633442616
  New reference energy               -381.220277337821
 
  RMP2-F12 singles (MO) energy         -0.005900996632
  RMP2-F12 pair energy                 -1.616703920256
  RMP2-F12 correlation energy          -1.622604916888
 
 !RMP2-F12/3C(FIX) energy            -382.842882254709

 Starting RMP2 calculation

 ITER.      SQ.NORM     CORR.ENERGY   TOTAL ENERGY   ENERGY CHANGE        DEN1      VAR(S)    VAR(P)  DIIS     TIME
   1      1.42492739    -1.49370101  -382.71034491    -1.49370101    -0.00501875  0.10D-03  0.20D-02  1  1  4972.34
   2      1.43004783    -1.49913783  -382.71578172    -0.00543681    -0.00002275  0.11D-04  0.89D-05  2  2  5030.40
   3      1.43034924    -1.49927535  -382.71591924    -0.00013752    -0.00000078  0.11D-05  0.82D-07  3  3  5089.53
   4      1.43038360    -1.49928098  -382.71592488    -0.00000564    -0.00000004  0.62D-07  0.32D-08  4  4  5149.94
   5      1.43039004    -1.49928212  -382.71592602    -0.00000114    -0.00000000  0.76D-09  0.24D-09  5  5  5211.11
   6      1.43039064    -1.49928229  -382.71592619    -0.00000017    -0.00000000  0.78D-11  0.68D-11  6  6  5273.35

 Norm of t1 vector:      0.06651467      S-energy:    -0.00590099      T1 diagnostic:  0.00157561
 Norm of t2 vector:      0.65266104      P-energy:    -1.49338130
                                         Alpha-Beta:  -1.12345321
                                         Alpha-Alpha: -0.18089868
                                         Beta-Beta:   -0.18902941

 Spin contamination <S**2-Sz**2-Sz>     0.00213304
  Reference energy                   -381.220277337820
  RHF-RMP2 correlation energy          -1.499282294447
 !RHF-RMP2 energy                    -382.719559632267

 Starting UCCSD calculation

 ITER.      SQ.NORM     CORR.ENERGY   TOTAL ENERGY   ENERGY CHANGE        DEN1      VAR(S)    VAR(P)  DIIS     TIME
   1      1.41627312    -1.44809509  -382.66473899    -1.44809509    -0.05202982  0.21D-01  0.85D-02  0  0 22530.35
   2      1.46563651    -1.49432585  -382.71096974    -0.04623076    -0.00868856  0.20D-02  0.26D-02  1  1 38706.22
   3      1.49860948    -1.49644856  -382.71309245    -0.00212271    -0.00374877  0.51D-02  0.32D-03  2  2 54436.48
   4      1.53992834    -1.50424460  -382.72088850    -0.00779605    -0.00238764  0.36D-02  0.17D-03  3  3 70169.14
   5      1.61548994    -1.51071508  -382.72735898    -0.00647048    -0.00197148  0.33D-02  0.12D-03  4  4 85902.84
   6      1.73225450    -1.51589927  -382.73254316    -0.00518419    -0.00154225  0.25D-02  0.11D-03  5  5101636.00
   7      1.96257509    -1.52332491  -382.73996880    -0.00742564    -0.00105314  0.16D-02  0.99D-04  6  6117372.11
   8      2.15432963    -1.52754232  -382.74418622    -0.00421741    -0.00061141  0.83D-03  0.85D-04  6  1133119.92
   9      2.47753007    -1.53546748  -382.75211137    -0.00792516    -0.00021495  0.22D-03  0.52D-04  6  2148853.76
  10      2.56336719    -1.53630018  -382.75294407    -0.00083270    -0.00010295  0.63D-04  0.36D-04  6  5164590.18
  11      2.65041674    -1.53766625  -382.75431014    -0.00136607    -0.00002805  0.18D-04  0.82D-05  6  6180327.83
  12      2.69562297    -1.53886267  -382.75550656    -0.00119642    -0.00000910  0.61D-05  0.25D-05  6  3196072.75
  13      2.67174848    -1.53792825  -382.75457215     0.00093442    -0.00000576  0.36D-05  0.17D-05  6  2211808.94
  14      2.66926961    -1.53779654  -382.75444044     0.00013171    -0.00000271  0.23D-05  0.67D-06  6  6227542.67
  15      2.67592870    -1.53800967  -382.75465357    -0.00021313    -0.00000150  0.15D-05  0.27D-06  6  2243290.87
  16      2.68041302    -1.53802922  -382.75467312    -0.00001955    -0.00000066  0.63D-06  0.14D-06  6  4259025.28
  17      2.68276722    -1.53811671  -382.75476060    -0.00008749    -0.00000040  0.45D-06  0.62D-07  6  1274759.98
  18      2.68369880    -1.53812193  -382.75476582    -0.00000522    -0.00000028  0.34D-06  0.35D-07  6  5290495.13
  19      2.68414289    -1.53812959  -382.75477348    -0.00000766    -0.00000020  0.25D-06  0.25D-07  6  3306241.06
  20      2.68422998    -1.53812388  -382.75476777     0.00000571    -0.00000013  0.15D-06  0.20D-07  6  6321974.55
  21      2.68439063    -1.53812019  -382.75476408     0.00000369    -0.00000007  0.77D-07  0.14D-07  6  2337709.07
  22      2.68425704    -1.53811709  -382.75476098     0.00000310    -0.00000004  0.34D-07  0.95D-08  6  4353443.35
  23      2.68433449    -1.53811661  -382.75476051     0.00000047    -0.00000002  0.15D-07  0.49D-08  6  1369180.53
  24      2.68442824    -1.53811790  -382.75476180    -0.00000129    -0.00000001  0.77D-08  0.29D-08  6  4384916.61
  25      2.68460142    -1.53811959  -382.75476349    -0.00000169    -0.00000000  0.20D-08  0.68D-09  6  5400654.15
  26      2.68469863    -1.53812071  -382.75476461    -0.00000112    -0.00000000  0.85D-09  0.25D-09  6  3416389.22

 Norm of t1 vector:      1.04054796      S-energy:    -0.00731926      T1 diagnostic:  0.11149355
                                                                       D1 diagnostic:  0.71338734
 Norm of t2 vector:      0.77585989      P-energy:    -1.53080145
                                         Alpha-Beta:  -1.18753391
                                         Alpha-Alpha: -0.15903728
                                         Beta-Beta:   -0.18423026

 Singles amplitudes (print threshold =  0.500E-01):

         I         SYM. A    A   T(IA) [Beta-Beta]

         8         1         1     -0.05792184
        10         1         1      0.10478914
        13         1         1      0.09053464
        14         1         1     -0.07399644
        17         1         1      0.10639627
        20         1         1      0.28477015
        21         1         1     -0.94534423

 Spin contamination <S**2-Sz**2-Sz>     0.01321471

 For full I/O caching in triples, increase memory by 2605.43 Mwords to 4505.71 Mwords.
 

  Ecorr(MP2)                           -1.499282294447
  Ecorr(MP2-F12)                       -1.622758081522
  Scale factor for triples energy       1.082356596575

 RESULTS
 =======

  Reference energy                   -381.216643895204
  CABS relaxation correction to RHF    -0.003633442616
  New reference energy               -381.220277337820
 
  F12 corrections for ansatz 3C(FIX) added to UCCSD energy. Coupling mode: 15
 
  UCCSD-F12a singles energy            -0.007319261979
  UCCSD-F12a pair energy               -1.652592391621
  UCCSD-F12a correlation energy        -1.659911653601
  Triples (T) contribution (scaled)    -0.076511454579
  Total correlation energy             -1.736423108180
 
  RHF-UCCSD-F12a energy              -382.880188991420
  RHF-UCCSD[T]-F12a energy           -382.984143181346
  RHF-UCCSD-T-F12a energy            -382.973896475030
 !RHF-UCCSD(T)-F12a energy           -382.956700446000
 
  F12 corrections for ansatz 3C(FIX) added to UCCSD energy. Coupling mode: 15
 
  UCCSD-F12b singles energy            -0.007319261979
  UCCSD-F12b pair energy               -1.630942787440
  UCCSD-F12b correlation energy        -1.638262049420
  Triples (T) contribution (scaled)    -0.076511454579
  Total correlation energy             -1.714773503999
 
  RHF-UCCSD-F12b energy              -382.858539387240
  RHF-UCCSD[T]-F12b energy           -382.962493577165
  RHF-UCCSD-T-F12b energy            -382.952246870849
 !RHF-UCCSD(T)-F12b energy           -382.935050841819

 Program statistics:

 Available memory in ccsd:              1899995808
 Min. memory needed in ccsd:             476529013
 Max. memory used in ccsd:               700588850
 Max. memory used in cckext:             522715393 (27 integral passes)
 Max. memory used in cckint:            1866435477 ( 1 integral passes)



 **********************************************************************************************************************************
 DATASETS  * FILE   NREC   LENGTH (MB)   RECORD NAMES
              1      20    33757.04       500      610      700      900      950      970     1000      129      960     1100   
                                          VAR    BASINP    GEOM    SYMINP    ZMAT    AOBASIS   BASIS     P2S    ABASIS      S 
                                         1400     1410     1200     1210     1080     1600     1650     1300     1700      960(1)
                                           T        V       H0       H01     AOSYM     SMH    MOLCAS    ERIS     OPER    ABASIS    

              2       5       14.48       700     1000      520     2100     7360   
                                         GEOM     BASIS   MCVARS     RHF    F12ABS    

 PROGRAMS   *        TOTALUCCSD(T)-F        HF       INT
 CPU TIMES  *   1045148.041038225.46   6081.30    841.12
 REAL TIME  *   1052733.70 SEC
 DISK USED  *       205.53 GB      
 **********************************************************************************************************************************

 UCCSD(T)-F12/cc-pVTZ-F12 energy=   -382.935050841819

    UCCSD(T)-F12        HF-SCF  
   -382.93505084   -381.21664390
 **********************************************************************************************************************************
 Molpro calculation terminated
 Variable memory released
