 Entering Gaussian System, Link 0=g03
 Input=freq.gjf
 Output=freq.log
 Initial command:
 /opt/g03/l1.exe /scratch/goldmanm/Gau-12032.inp -scrdir=/scratch/goldmanm/
 Entering Link 1 = /opt/g03/l1.exe PID=     12034.
  
 Copyright (c) 1988,1990,1992,1993,1995,1998,2003,2004, Gaussian, Inc.
                  All Rights Reserved.
  
 This is the Gaussian(R) 03 program.  It is based on the
 the Gaussian(R) 98 system (copyright 1998, Gaussian, Inc.),
 the Gaussian(R) 94 system (copyright 1995, Gaussian, Inc.),
 the Gaussian 92(TM) system (copyright 1992, Gaussian, Inc.),
 the Gaussian 90(TM) system (copyright 1990, Gaussian, Inc.),
 the Gaussian 88(TM) system (copyright 1988, Gaussian, Inc.),
 the Gaussian 86(TM) system (copyright 1986, Carnegie Mellon
 University), and the Gaussian 82(TM) system (copyright 1983,
 Carnegie Mellon University). Gaussian is a federally registered
 trademark of Gaussian, Inc.
  
 This software contains proprietary and confidential information,
 including trade secrets, belonging to Gaussian, Inc.
  
 This software is provided under written license and may be
 used, copied, transmitted, or stored only in accord with that
 written license.
  
 The following legend is applicable only to US Government
 contracts under FAR:
  
                    RESTRICTED RIGHTS LEGEND
  
 Use, reproduction and disclosure by the US Government is
 subject to restrictions as set forth in subparagraphs (a)
 and (c) of the Commercial Computer Software - Restricted
 Rights clause in FAR 52.227-19.
  
 Gaussian, Inc.
 340 Quinnipiac St., Bldg. 40, Wallingford CT 06492
  
  
 ---------------------------------------------------------------
 Warning -- This program may not be used in any manner that
 competes with the business of Gaussian, Inc. or will provide
 assistance to any competitor of Gaussian, Inc.  The licensee
 of this program is prohibited from giving any competitor of
 Gaussian, Inc. access to this program.  By using this program,
 the user acknowledges that Gaussian, Inc. is engaged in the
 business of creating and licensing software in the field of
 computational chemistry and represents and warrants to the
 licensee that it is not a competitor of Gaussian, Inc. and that
 it will not use this program in any manner prohibited above.
 ---------------------------------------------------------------
  

 Cite this work as:
 Gaussian 03, Revision D.01,
 M. J. Frisch, G. W. Trucks, H. B. Schlegel, G. E. Scuseria, 
 M. A. Robb, J. R. Cheeseman, J. A. Montgomery, Jr., T. Vreven, 
 K. N. Kudin, J. C. Burant, J. M. Millam, S. S. Iyengar, J. Tomasi, 
 V. Barone, B. Mennucci, M. Cossi, G. Scalmani, N. Rega, 
 G. A. Petersson, H. Nakatsuji, M. Hada, M. Ehara, K. Toyota, 
 R. Fukuda, J. Hasegawa, M. Ishida, T. Nakajima, Y. Honda, O. Kitao, 
 H. Nakai, M. Klene, X. Li, J. E. Knox, H. P. Hratchian, J. B. Cross, 
 V. Bakken, C. Adamo, J. Jaramillo, R. Gomperts, R. E. Stratmann, 
 O. Yazyev, A. J. Austin, R. Cammi, C. Pomelli, J. W. Ochterski, 
 P. Y. Ayala, K. Morokuma, G. A. Voth, P. Salvador, J. J. Dannenberg, 
 V. G. Zakrzewski, S. Dapprich, A. D. Daniels, M. C. Strain, 
 O. Farkas, D. K. Malick, A. D. Rabuck, K. Raghavachari, 
 J. B. Foresman, J. V. Ortiz, Q. Cui, A. G. Baboul, S. Clifford, 
 J. Cioslowski, B. B. Stefanov, G. Liu, A. Liashenko, P. Piskorz, 
 I. Komaromi, R. L. Martin, D. J. Fox, T. Keith, M. A. Al-Laham, 
 C. Y. Peng, A. Nanayakkara, M. Challacombe, P. M. W. Gill, 
 B. Johnson, W. Chen, M. W. Wong, C. Gonzalez, and J. A. Pople, 
 Gaussian, Inc., Wallingford CT, 2004.
 
 ******************************************
 Gaussian 03:  AM64L-G03RevD.01 13-Oct-2005
                16-Aug-2019 
 ******************************************
 %chk=input.chk
 %mem=1500mb
 %nproc=8
 Will use up to    8 processors via shared memory.
 -------------------------------------
 # freq nosymm b3lyp/cbsb7 iop(7/33=1)
 -------------------------------------
 1/10=4,30=1,38=1/1,3;
 2/15=1,17=6,18=5,40=1/2;
 3/5=4,6=6,7=700,11=2,16=1,25=1,30=1,74=-5/1,2,3;
 4//1;
 5/5=2,38=5/2;
 8/6=4,10=90,11=11/1;
 11/6=1,8=1,9=11,15=111,16=1,31=1/1,2,10;
 10/6=1,31=1/2;
 6/7=2,8=2,9=2,10=2,18=1,28=1/1;
 7/8=1,10=1,25=1,30=1,33=1/1,2,3,16;
 1/10=4,30=1/3;
 99//99;
 -------
 NBO NRT
 -------
 Symbolic Z-matrix:
 Charge =  0 Multiplicity = 2
 C                     0.03574  -0.06086   0.07002 
 C                     0.04629  -0.07373   1.64079 
 O                     1.42951  -0.14991   2.04499 
 O                     1.50658  -0.68847   3.36596 
 O                    -0.73692  -0.96439   2.19306 
 H                     0.39378  -1.05426  -0.21698 
 C                    -1.39565   0.13061  -0.43383 
 C                     0.99655   1.00053  -0.47325 
 H                    -0.31232   0.93253   1.97846 
 H                     0.75345  -1.31297   3.36033 
 H                     1.00638   0.95829  -1.56584 
 H                     2.01441   0.84679  -0.11528 
 H                     0.67845   2.00625  -0.18108 
 H                    -1.41719   0.05253  -1.52391 
 H                    -1.78062   1.11927  -0.16425 
 H                    -2.0678   -0.62118  -0.01967 
 

 GradGradGradGradGradGradGradGradGradGradGradGradGradGradGradGradGradGrad
 Berny optimization.
 Initialization pass.
 Trust Radius=3.00D-01 FncErr=1.00D-07 GrdErr=1.00D-07
 Number of steps in this run=   2 maximum allowed number of steps=   2.
 GradGradGradGradGradGradGradGradGradGradGradGradGradGradGradGradGradGrad

                          Input orientation:                          
 ---------------------------------------------------------------------
 Center     Atomic     Atomic              Coordinates (Angstroms)
 Number     Number      Type              X           Y           Z
 ---------------------------------------------------------------------
    1          6             0        0.035740   -0.060860    0.070020
    2          6             0        0.046290   -0.073730    1.640790
    3          8             0        1.429510   -0.149910    2.044990
    4          8             0        1.506580   -0.688470    3.365960
    5          8             0       -0.736920   -0.964390    2.193060
    6          1             0        0.393780   -1.054260   -0.216980
    7          6             0       -1.395650    0.130610   -0.433830
    8          6             0        0.996550    1.000530   -0.473250
    9          1             0       -0.312320    0.932530    1.978460
   10          1             0        0.753450   -1.312970    3.360330
   11          1             0        1.006380    0.958290   -1.565840
   12          1             0        2.014410    0.846790   -0.115280
   13          1             0        0.678450    2.006250   -0.181080
   14          1             0       -1.417190    0.052530   -1.523910
   15          1             0       -1.780620    1.119270   -0.164250
   16          1             0       -2.067800   -0.621180   -0.019670
 ---------------------------------------------------------------------
                    Distance matrix (angstroms):
                    1          2          3          4          5
     1  C    0.000000
     2  C    1.570858   0.000000
     3  O    2.418890   1.443080   0.000000
     4  O    3.663398   2.342341   1.428618   0.000000
     5  O    2.433242   1.308318   2.319207   2.546590   0.000000
     6  H    1.094260   2.129201   2.647092   3.769560   2.663616
     7  C    1.529511   2.534757   3.768921   4.851004   2.921216
     8  C    1.531289   2.554642   2.802231   4.225208   3.738320
     9  H    2.179475   1.120349   2.051847   2.803782   1.955670
    10  H    3.592913   2.234415   1.881458   0.978385   1.924897
    11  H    2.157973   3.502758   3.800689   5.223473   4.567836
    12  H    2.184788   2.793678   2.449956   3.838482   4.022266
    13  H    2.179236   2.836398   3.188809   4.530873   4.057649
    14  H    2.159740   3.488989   4.569653   5.745289   3.913152
    15  H    2.178704   2.831787   4.098353   5.151310   3.314794
    16  H    2.178734   2.743393   4.088532   4.923740   2.604843
                    6          7          8          9         10
     6  H    0.000000
     7  C    2.157081   0.000000
     8  C    2.156657   2.545768   0.000000
     9  H    3.043989   2.763299   2.780044   0.000000
    10  H    3.604641   4.593278   4.484163   2.843888   0.000000
    11  H    2.499012   2.781411   1.093450   3.781758   5.430446
    12  H    2.500155   3.498985   1.089870   3.131257   4.281874
    13  H    3.073930   2.807810   1.094543   2.607319   4.854321
    14  H    2.492521   1.093085   2.797987   3.776471   5.516527
    15  H    3.074903   1.094680   2.796829   2.604224   4.975939
    16  H    2.507163   1.090185   3.496558   3.080300   4.456728
                   11         12         13         14         15
    11  H    0.000000
    12  H    1.769938   0.000000
    13  H    1.767291   1.770160   0.000000
    14  H    2.587634   3.793543   3.164162   0.000000
    15  H    3.123738   3.805114   2.614200   1.765982   0.000000
    16  H    3.786284   4.339184   3.804120   1.771981   1.769899
                   16
    16  H    0.000000
 Symmetry turned off by external request.
 Stoichiometry    C4H9O3(2)
 Framework group  C1[X(C4H9O3)]
 Deg. of freedom    42
 Full point group                 C1
 Rotational constants (GHZ):      4.5058301      1.8276089      1.3681041
 Standard basis: CBSB7 (5D, 7F)
 Integral buffers will be    131072 words long.
 Raffenetti 2 integral format.
 Two-electron integral symmetry is turned off.
   180 basis functions,   296 primitive gaussians,   187 cartesian basis functions
    29 alpha electrons       28 beta electrons
       nuclear repulsion energy       330.7524241191 Hartrees.
 NAtoms=   16 NActive=   16 NUniq=   16 SFac= 7.50D-01 NAtFMM=   80 NAOKFM=F Big=F
 One-electron integrals computed using PRISM.
 NBasis=   180 RedAO= T  NBF=   180
 NBsUse=   180 1.00D-06 NBFU=   180
 Harris functional with IExCor=  402 diagonalized for initial guess.
 ExpMin= 1.03D-01 ExpMax= 8.59D+03 ExpMxC= 1.30D+03 IAcc=1 IRadAn=         1 AccDes= 1.00D-06
 HarFok:  IExCor= 402 AccDes= 1.00D-06 IRadAn=         1 IDoV=1
 ScaDFX=  1.000000  1.000000  1.000000  1.000000
 <S**2> of initial guess= 0.7500
 Requested convergence on RMS density matrix=1.00D-08 within 128 cycles.
 Requested convergence on MAX density matrix=1.00D-06.
 Requested convergence on             energy=1.00D-06.
 No special actions if energy rises.
 Integral accuracy reduced to 1.0D-05 until final iterations.
 EnCoef did     1 forward-backward iterations
 EnCoef did     4 forward-backward iterations
 Initial convergence to 1.0D-05 achieved.  Increase integral accuracy.
 SCF Done:  E(UB+HF-LYP) =  -383.468027663     A.U. after   24 cycles
             Convg  =    0.5753D-08             -V/T =  2.0033
             S**2   =   0.7548
 Annihilation of the first spin contaminant:
 S**2 before annihilation     0.7548,   after     0.7500
 Range of M.O.s used for correlation:     1   180
 NBasis=   180 NAE=    29 NBE=    28 NFC=     0 NFV=     0
 NROrb=    180 NOA=    29 NOB=    28 NVA=   151 NVB=   152

 **** Warning!!: The smallest beta delta epsilon is  0.92773725D-01

 Symmetrizing basis deriv contribution to polar:
 IMax=3 JMax=2 DiffMx= 0.00D+00
 G2DrvN: will do   17 centers at a time, making    1 passes doing MaxLOS=2.
 FoFDir/FoFCou used for L=0 through L=2.
 DoAtom=TTTTTTTTTTTTTTTT
          Differentiating once with respect to electric field.
                with respect to dipole field.
          Differentiating once with respect to nuclear coordinates.
 Symmetry not used in FoFDir.
 MinBra= 0 MaxBra= 2 Meth= 1.
 IRaf=       0 NMat=  51 IRICut=      51 DoRegI=T DoRafI=T ISym2E= 0 JSym2E=0.
          There are  51 degrees of freedom in the 1st order CPHF.
    48 vectors were produced by pass  0.
 AX will form  48 AO Fock derivatives at one time.
    48 vectors were produced by pass  1.
    48 vectors were produced by pass  2.
    48 vectors were produced by pass  3.
    48 vectors were produced by pass  4.
    48 vectors were produced by pass  5.
    28 vectors were produced by pass  6.
     6 vectors were produced by pass  7.
     3 vectors were produced by pass  8.
 Inv2:  IOpt= 1 Iter= 1 AM= 2.45D-15 Conv= 1.00D-12.
 Inverted reduced A of dimension  325 with in-core refinement.
 Isotropic polarizability for W=    0.000000       65.67 Bohr**3.
 End of Minotr Frequency-dependent properties file   721 does not exist.

 **********************************************************************

            Population analysis using the SCF density.

 **********************************************************************

 Alpha  occ. eigenvalues --  -19.19678 -19.18190 -19.16584 -10.29468 -10.21241
 Alpha  occ. eigenvalues --  -10.17545 -10.17517  -1.15516  -1.05636  -0.91871
 Alpha  occ. eigenvalues --   -0.81705  -0.70419  -0.66795  -0.60258  -0.57176
 Alpha  occ. eigenvalues --   -0.50230  -0.49941  -0.46616  -0.43449  -0.43323
 Alpha  occ. eigenvalues --   -0.42158  -0.40345  -0.39432  -0.37302  -0.36155
 Alpha  occ. eigenvalues --   -0.35469  -0.33251  -0.31594  -0.26737
 Alpha virt. eigenvalues --    0.00882   0.03736   0.05550   0.08021   0.08251
 Alpha virt. eigenvalues --    0.09819   0.10719   0.11408   0.13302   0.13729
 Alpha virt. eigenvalues --    0.16942   0.19137   0.20857   0.21482   0.24366
 Alpha virt. eigenvalues --    0.26822   0.30156   0.32334   0.36559   0.37426
 Alpha virt. eigenvalues --    0.40344   0.41745   0.42380   0.47692   0.49823
 Alpha virt. eigenvalues --    0.51393   0.54283   0.55605   0.56290   0.56495
 Alpha virt. eigenvalues --    0.57482   0.58754   0.59316   0.60835   0.61158
 Alpha virt. eigenvalues --    0.63114   0.67691   0.73317   0.74545   0.77322
 Alpha virt. eigenvalues --    0.82464   0.85375   0.88128   0.90337   0.91396
 Alpha virt. eigenvalues --    0.94721   0.97378   0.98065   1.00543   1.04026
 Alpha virt. eigenvalues --    1.11805   1.16663   1.18686   1.24996   1.30602
 Alpha virt. eigenvalues --    1.34918   1.36868   1.39068   1.40296   1.42737
 Alpha virt. eigenvalues --    1.44696   1.46494   1.47882   1.48749   1.51958
 Alpha virt. eigenvalues --    1.52306   1.53545   1.54132   1.57505   1.60385
 Alpha virt. eigenvalues --    1.62328   1.64838   1.69461   1.72208   1.74426
 Alpha virt. eigenvalues --    1.75181   1.77970   1.79912   1.86247   1.89650
 Alpha virt. eigenvalues --    1.94581   1.97621   2.00276   2.01480   2.05742
 Alpha virt. eigenvalues --    2.07887   2.10823   2.19355   2.24283   2.30289
 Alpha virt. eigenvalues --    2.34497   2.35110   2.38849   2.41618   2.43052
 Alpha virt. eigenvalues --    2.43776   2.47742   2.49383   2.50418   2.51142
 Alpha virt. eigenvalues --    2.55743   2.57012   2.57815   2.60573   2.64937
 Alpha virt. eigenvalues --    2.65267   2.67523   2.72424   2.73040   2.76784
 Alpha virt. eigenvalues --    2.81057   2.82562   2.89611   2.93739   2.96630
 Alpha virt. eigenvalues --    3.03534   3.05959   3.10519   3.17106   3.18079
 Alpha virt. eigenvalues --    3.23250   3.31311   3.42242   3.45903   3.61989
 Alpha virt. eigenvalues --    3.75162   3.77023   3.78523   3.79758   3.81113
 Alpha virt. eigenvalues --    3.82719   3.91550   3.96012   4.19484   4.27620
 Alpha virt. eigenvalues --    4.69923   4.76594   4.84507   4.89277   4.95227
 Alpha virt. eigenvalues --    5.16042   5.28404   5.54749   5.74034  23.64754
 Alpha virt. eigenvalues --   23.77857  23.90306  23.92518  49.74893  49.81757
 Alpha virt. eigenvalues --   49.86654
  Beta  occ. eigenvalues --  -19.19428 -19.18038 -19.14824 -10.29526 -10.21036
  Beta  occ. eigenvalues --  -10.17552 -10.17513  -1.14911  -1.02433  -0.91140
  Beta  occ. eigenvalues --   -0.81297  -0.70379  -0.65702  -0.59342  -0.56335
  Beta  occ. eigenvalues --   -0.49308  -0.48258  -0.46288  -0.43048  -0.42042
  Beta  occ. eigenvalues --   -0.41681  -0.40257  -0.38221  -0.36407  -0.35772
  Beta  occ. eigenvalues --   -0.34740  -0.30784  -0.26387
  Beta virt. eigenvalues --   -0.17110   0.01165   0.03898   0.05841   0.08206
  Beta virt. eigenvalues --    0.08374   0.09964   0.10931   0.11565   0.13349
  Beta virt. eigenvalues --    0.13734   0.17163   0.19407   0.21469   0.21659
  Beta virt. eigenvalues --    0.24855   0.26988   0.30252   0.32543   0.36677
  Beta virt. eigenvalues --    0.38391   0.40933   0.41831   0.42607   0.48662
  Beta virt. eigenvalues --    0.50377   0.51703   0.54662   0.55762   0.56380
  Beta virt. eigenvalues --    0.56657   0.57540   0.58890   0.59553   0.61026
  Beta virt. eigenvalues --    0.61272   0.63184   0.67774   0.73889   0.74901
  Beta virt. eigenvalues --    0.77717   0.82819   0.87534   0.88536   0.91001
  Beta virt. eigenvalues --    0.92202   0.95044   0.97994   0.98652   1.00843
  Beta virt. eigenvalues --    1.04426   1.11967   1.16957   1.19141   1.25253
  Beta virt. eigenvalues --    1.30784   1.35332   1.36993   1.39396   1.40485
  Beta virt. eigenvalues --    1.43238   1.44743   1.46649   1.48375   1.48832
  Beta virt. eigenvalues --    1.52448   1.52753   1.53749   1.54518   1.57642
  Beta virt. eigenvalues --    1.60736   1.62645   1.65123   1.69583   1.72466
  Beta virt. eigenvalues --    1.74614   1.75542   1.78206   1.80314   1.87179
  Beta virt. eigenvalues --    1.90886   1.94977   1.97948   2.00403   2.01900
  Beta virt. eigenvalues --    2.06221   2.07952   2.11319   2.19821   2.24393
  Beta virt. eigenvalues --    2.31272   2.34608   2.35390   2.39073   2.41732
  Beta virt. eigenvalues --    2.43400   2.44259   2.47784   2.49497   2.50822
  Beta virt. eigenvalues --    2.51287   2.56121   2.57424   2.58209   2.60796
  Beta virt. eigenvalues --    2.65164   2.65952   2.67874   2.73161   2.74108
  Beta virt. eigenvalues --    2.77493   2.83533   2.84810   2.91183   2.95767
  Beta virt. eigenvalues --    2.98162   3.04230   3.06637   3.11185   3.17826
  Beta virt. eigenvalues --    3.19170   3.24816   3.32779   3.42695   3.47107
  Beta virt. eigenvalues --    3.62447   3.75207   3.77104   3.78645   3.80161
  Beta virt. eigenvalues --    3.81175   3.83689   3.92204   3.96392   4.20017
  Beta virt. eigenvalues --    4.27767   4.70474   4.76944   4.87798   4.93713
  Beta virt. eigenvalues --    4.97321   5.16501   5.28581   5.55860   5.74340
  Beta virt. eigenvalues --   23.64698  23.78076  23.90315  23.92518  49.75046
  Beta virt. eigenvalues --   49.82053  49.88378
          Condensed to atoms (all electrons):
              1          2          3          4          5          6
     1  C    5.255611   0.264058  -0.031656   0.004015  -0.047782   0.386620
     2  C    0.264058   4.757566   0.194409  -0.035404   0.372933  -0.034566
     3  O   -0.031656   0.194409   8.112710   0.079391  -0.060490   0.001168
     4  O    0.004015  -0.035404   0.079391   7.908409  -0.021020  -0.000166
     5  O   -0.047782   0.372933  -0.060490  -0.021020   8.037325  -0.001842
     6  H    0.386620  -0.034566   0.001168  -0.000166  -0.001842   0.573821
     7  C    0.338757  -0.063804   0.003765  -0.000140  -0.003408  -0.033408
     8  C    0.310609  -0.041921  -0.006656   0.000218   0.004333  -0.038965
     9  H   -0.037440   0.348994  -0.041071   0.001062  -0.035695   0.010350
    10  H   -0.000259  -0.012726  -0.039557   0.283631   0.046149   0.000419
    11  H   -0.029881   0.007102  -0.000063   0.000009  -0.000158  -0.006628
    12  H   -0.025217  -0.009735   0.012321  -0.000387   0.000204  -0.003975
    13  H   -0.039840  -0.005036  -0.000455  -0.000067  -0.000049   0.008414
    14  H   -0.030376   0.007377  -0.000112   0.000005   0.000096  -0.007356
    15  H   -0.038375  -0.005975  -0.000071  -0.000004  -0.000429   0.008507
    16  H   -0.031430  -0.007111   0.000438   0.000009   0.013810  -0.004660
              7          8          9         10         11         12
     1  C    0.338757   0.310609  -0.037440  -0.000259  -0.029881  -0.025217
     2  C   -0.063804  -0.041921   0.348994  -0.012726   0.007102  -0.009735
     3  O    0.003765  -0.006656  -0.041071  -0.039557  -0.000063   0.012321
     4  O   -0.000140   0.000218   0.001062   0.283631   0.000009  -0.000387
     5  O   -0.003408   0.004333  -0.035695   0.046149  -0.000158   0.000204
     6  H   -0.033408  -0.038965   0.010350   0.000419  -0.006628  -0.003975
     7  C    4.902955  -0.068835  -0.004251  -0.000028  -0.005491   0.007161
     8  C   -0.068835   4.926533  -0.009561  -0.000280   0.399095   0.398084
     9  H   -0.004251  -0.009561   0.592823   0.002793  -0.000257   0.000480
    10  H   -0.000028  -0.000280   0.002793   0.459991   0.000021   0.000157
    11  H   -0.005491   0.399095  -0.000257   0.000021   0.570937  -0.022668
    12  H    0.007161   0.398084   0.000480   0.000157  -0.022668   0.530953
    13  H   -0.005644   0.401267   0.005060   0.000017  -0.029272  -0.026332
    14  H    0.400206  -0.003603  -0.000363   0.000001   0.003651   0.000017
    15  H    0.402108  -0.006580   0.005295  -0.000015  -0.000785  -0.000099
    16  H    0.399757   0.008086  -0.000592  -0.000100  -0.000061  -0.000480
             13         14         15         16
     1  C   -0.039840  -0.030376  -0.038375  -0.031430
     2  C   -0.005036   0.007377  -0.005975  -0.007111
     3  O   -0.000455  -0.000112  -0.000071   0.000438
     4  O   -0.000067   0.000005  -0.000004   0.000009
     5  O   -0.000049   0.000096  -0.000429   0.013810
     6  H    0.008414  -0.007356   0.008507  -0.004660
     7  C   -0.005644   0.400206   0.402108   0.399757
     8  C    0.401267  -0.003603  -0.006580   0.008086
     9  H    0.005060  -0.000363   0.005295  -0.000592
    10  H    0.000017   0.000001  -0.000015  -0.000100
    11  H   -0.029272   0.003651  -0.000785  -0.000061
    12  H   -0.026332   0.000017  -0.000099  -0.000480
    13  H    0.582791  -0.000701   0.005248  -0.000129
    14  H   -0.000701   0.568506  -0.029439  -0.023175
    15  H    0.005248  -0.029439   0.584377  -0.027439
    16  H   -0.000129  -0.023175  -0.027439   0.542434
 Mulliken atomic charges:
              1
     1  C   -0.247413
     2  C    0.263839
     3  O   -0.224070
     4  O   -0.219560
     5  O   -0.303978
     6  H    0.142267
     7  C   -0.269699
     8  C   -0.271824
     9  H    0.162374
    10  H    0.259787
    11  H    0.114448
    12  H    0.139516
    13  H    0.104728
    14  H    0.115267
    15  H    0.103676
    16  H    0.130642
 Sum of Mulliken charges=   0.00000
 Atomic charges with hydrogens summed into heavy atoms:
              1
     1  C   -0.105145
     2  C    0.426212
     3  O   -0.224070
     4  O    0.040227
     5  O   -0.303978
     6  H    0.000000
     7  C    0.079885
     8  C    0.086868
     9  H    0.000000
    10  H    0.000000
    11  H    0.000000
    12  H    0.000000
    13  H    0.000000
    14  H    0.000000
    15  H    0.000000
    16  H    0.000000
 Sum of Mulliken charges=   0.00000
          Atomic-Atomic Spin Densities.
              1          2          3          4          5          6
     1  C    0.116580   0.047454  -0.007466   0.000382  -0.012925  -0.019604
     2  C    0.047454  -0.096631   0.011087  -0.000030  -0.036013  -0.003383
     3  O   -0.007466   0.011087   0.095936  -0.014158   0.007453   0.002740
     4  O    0.000382  -0.000030  -0.014158   0.061443  -0.002199  -0.000307
     5  O   -0.012925  -0.036013   0.007453  -0.002199   0.732115   0.006609
     6  H   -0.019604  -0.003383   0.002740  -0.000307   0.006609   0.013623
     7  C   -0.002765   0.004939  -0.000311  -0.000002   0.000717   0.000294
     8  C    0.002476  -0.004956   0.001106  -0.000021  -0.000029   0.005072
     9  H   -0.035293   0.012177  -0.015215   0.002543  -0.030306   0.004592
    10  H    0.000082  -0.000420   0.000928   0.001527  -0.003330  -0.000081
    11  H    0.000737   0.000025  -0.000019   0.000003  -0.000042  -0.002182
    12  H   -0.002872   0.000509  -0.000280  -0.000026   0.000040   0.000747
    13  H   -0.000693  -0.000597  -0.000131   0.000004  -0.000011   0.000363
    14  H   -0.000180  -0.000012  -0.000004   0.000000  -0.000175  -0.001319
    15  H   -0.000794  -0.000412  -0.000016   0.000001   0.000051   0.000293
    16  H   -0.001374  -0.000702  -0.000002  -0.000001  -0.000177   0.001153
              7          8          9         10         11         12
     1  C   -0.002765   0.002476  -0.035293   0.000082   0.000737  -0.002872
     2  C    0.004939  -0.004956   0.012177  -0.000420   0.000025   0.000509
     3  O   -0.000311   0.001106  -0.015215   0.000928  -0.000019  -0.000280
     4  O   -0.000002  -0.000021   0.002543   0.001527   0.000003  -0.000026
     5  O    0.000717  -0.000029  -0.030306  -0.003330  -0.000042   0.000040
     6  H    0.000294   0.005072   0.004592  -0.000081  -0.002182   0.000747
     7  C   -0.010507   0.001885   0.001363   0.000020   0.000247  -0.000063
     8  C    0.001885  -0.005930   0.003549   0.000013   0.000467   0.001936
     9  H    0.001363   0.003549   0.227816  -0.000299  -0.000691   0.000676
    10  H    0.000020   0.000013  -0.000299  -0.003944  -0.000001  -0.000003
    11  H    0.000247   0.000467  -0.000691  -0.000001   0.007921  -0.000833
    12  H   -0.000063   0.001936   0.000676  -0.000003  -0.000833   0.000388
    13  H    0.000176  -0.000035   0.001635  -0.000002  -0.001045   0.000339
    14  H    0.002805  -0.000554  -0.000434   0.000000   0.000563  -0.000032
    15  H   -0.000605   0.000398   0.001403   0.000000  -0.000165   0.000017
    16  H    0.000597  -0.000044   0.001109   0.000008  -0.000091   0.000025
             13         14         15         16
     1  C   -0.000693  -0.000180  -0.000794  -0.001374
     2  C   -0.000597  -0.000012  -0.000412  -0.000702
     3  O   -0.000131  -0.000004  -0.000016  -0.000002
     4  O    0.000004   0.000000   0.000001  -0.000001
     5  O   -0.000011  -0.000175   0.000051  -0.000177
     6  H    0.000363  -0.001319   0.000293   0.001153
     7  C    0.000176   0.002805  -0.000605   0.000597
     8  C   -0.000035  -0.000554   0.000398  -0.000044
     9  H    0.001635  -0.000434   0.001403   0.001109
    10  H   -0.000002   0.000000   0.000000   0.000008
    11  H   -0.001045   0.000563  -0.000165  -0.000091
    12  H    0.000339  -0.000032   0.000017   0.000025
    13  H    0.000113  -0.000123   0.000102   0.000036
    14  H   -0.000123   0.002661  -0.000497  -0.000970
    15  H    0.000102  -0.000497   0.000480   0.000449
    16  H    0.000036  -0.000970   0.000449   0.000735
 Mulliken atomic spin densities:
              1
     1  C    0.083747
     2  C   -0.066966
     3  O    0.081648
     4  O    0.049159
     5  O    0.661780
     6  H    0.008610
     7  C   -0.001212
     8  C    0.005332
     9  H    0.174628
    10  H   -0.005502
    11  H    0.004894
    12  H    0.000566
    13  H    0.000131
    14  H    0.001728
    15  H    0.000706
    16  H    0.000751
 Sum of Mulliken spin densities=   1.00000
 APT atomic charges:
              1
     1  C    0.343443
     2  C    0.062118
     3  O   -0.164641
     4  O   -0.320820
     5  O   -0.245007
     6  H   -0.062615
     7  C    0.017971
     8  C   -0.010396
     9  H    0.167870
    10  H    0.206031
    11  H   -0.007705
    12  H    0.025178
    13  H   -0.012838
    14  H   -0.008612
    15  H   -0.012167
    16  H    0.022190
 Sum of APT charges=   0.00000
 APT Atomic charges with hydrogens summed into heavy atoms:
              1
     1  C    0.280828
     2  C    0.229989
     3  O   -0.164641
     4  O   -0.114790
     5  O   -0.245007
     6  H    0.000000
     7  C    0.019383
     8  C   -0.005762
     9  H    0.000000
    10  H    0.000000
    11  H    0.000000
    12  H    0.000000
    13  H    0.000000
    14  H    0.000000
    15  H    0.000000
    16  H    0.000000
 Sum of APT charges=   0.00000
 Electronic spatial extent (au):  <R**2>=  1181.6674
 Charge=     0.0000 electrons
 Dipole moment (field-independent basis, Debye):
    X=    -1.2388    Y=     0.6499    Z=    -2.0008  Tot=     2.4413
 Quadrupole moment (field-independent basis, Debye-Ang):
   XX=   -48.6579   YY=   -41.4818   ZZ=   -47.5649
   XY=    -1.1846   XZ=    -4.0388   YZ=     0.5266
 Traceless Quadrupole moment (field-independent basis, Debye-Ang):
   XX=    -2.7564   YY=     4.4197   ZZ=    -1.6634
   XY=    -1.1846   XZ=    -4.0388   YZ=     0.5266
 Octapole moment (field-independent basis, Debye-Ang**2):
  XXX=   -34.9061  YYY=     4.3701  ZZZ=  -148.6446  XYY=    -8.1244
  XXY=     4.9405  XXZ=   -61.2531  XZZ=   -22.6085  YZZ=    -1.8247
  YYZ=   -39.7509  XYZ=    -3.0212
 Hexadecapole moment (field-independent basis, Debye-Ang**3):
 XXXX=  -374.4975 YYYY=  -160.4786 ZZZZ=  -891.3874 XXXY=    -2.3868
 XXXZ=  -132.6803 YYYX=   -12.7829 YYYZ=    88.8804 ZZZX=  -155.7263
 ZZZY=    68.1530 XXYY=   -90.2727 XXZZ=  -253.1992 YYZZ=  -154.0931
 XXYZ=    40.8474 YYXZ=   -32.2063 ZZXY=    -9.4105
 N-N= 3.307524241191D+02 E-N=-1.560717082894D+03  KE= 3.822014591986D+02
  Exact polarizability:  69.904   3.318  53.979   9.915  -9.014  73.142
 Approx polarizability: 111.961  11.724  81.453   9.882 -10.426  96.333
                          Isotropic Fermi Contact Couplings
        Atom                 a.u.       MegaHertz       Gauss      10(-4) cm-1
     1  C(13)              0.04868      54.72468      19.52713      18.25419
     2  C(13)             -0.04639     -52.15664     -18.61078     -17.39758
     3  O(17)              0.00477      -2.89206      -1.03196      -0.96469
     4  O(17)              0.00441      -2.67563      -0.95473      -0.89249
     5  O(17)              0.04608     -27.93514      -9.96795      -9.31816
     6  H(1)              -0.00065      -2.90846      -1.03781      -0.97016
     7  C(13)             -0.00316      -3.54905      -1.26639      -1.18384
     8  C(13)             -0.00214      -2.40446      -0.85797      -0.80204
     9  H(1)               0.07536     336.83180     120.18996     112.35499
    10  H(1)              -0.00061      -2.71213      -0.96776      -0.90467
    11  H(1)               0.00238      10.62631       3.79173       3.54455
    12  H(1)               0.00027       1.20592       0.43030       0.40225
    13  H(1)              -0.00013      -0.56755      -0.20252      -0.18931
    14  H(1)               0.00116       5.20598       1.85762       1.73653
    15  H(1)               0.00008       0.33689       0.12021       0.11237
    16  H(1)               0.00015       0.66171       0.23611       0.22072
 --------------------------------------------------------
       Center         ----  Spin Dipole Couplings  ----
                      3XX-RR        3YY-RR        3ZZ-RR
 --------------------------------------------------------
     1   Atom       -0.076109     -0.075779      0.151888
     2   Atom       -0.020249      0.008052      0.012197
     3   Atom       -0.147633      0.279160     -0.131527
     4   Atom       -0.022902      0.019372      0.003530
     5   Atom       -1.179180      0.594081      0.585098
     6   Atom       -0.009233      0.000882      0.008351
     7   Atom       -0.001516     -0.004539      0.006054
     8   Atom       -0.005216      0.001381      0.003834
     9   Atom       -0.008841      0.020820     -0.011978
    10   Atom        0.012354     -0.008865     -0.003489
    11   Atom       -0.002100     -0.001298      0.003399
    12   Atom        0.002043     -0.002268      0.000225
    13   Atom       -0.003095      0.001953      0.001142
    14   Atom       -0.001196     -0.002651      0.003848
    15   Atom       -0.000611     -0.001284      0.001896
    16   Atom        0.000981     -0.005770      0.004789
 --------------------------------------------------------
                        XY            XZ            YZ
 --------------------------------------------------------
     1   Atom        0.002275     -0.009045     -0.016382
     2   Atom        0.007968     -0.041087      0.031272
     3   Atom       -0.172351     -0.070410      0.204772
     4   Atom       -0.128556     -0.126351      0.167350
     5   Atom       -0.576717     -0.553840      1.941537
     6   Atom       -0.004325     -0.007204      0.006314
     7   Atom       -0.001263      0.006401     -0.002989
     8   Atom        0.006009     -0.007086     -0.011103
     9   Atom       -0.002803     -0.002410      0.001555
    10   Atom        0.001576      0.013567     -0.004672
    11   Atom        0.001307     -0.001648     -0.001266
    12   Atom        0.002865     -0.003385     -0.002329
    13   Atom        0.001959     -0.002438     -0.003645
    14   Atom       -0.000361      0.002228     -0.000990
    15   Atom       -0.002825      0.004050     -0.003482
    16   Atom       -0.000424      0.008106     -0.001360
 --------------------------------------------------------


 ---------------------------------------------------------------------------------
              Anisotropic Spin Dipole Couplings in Principal Axis System
 ---------------------------------------------------------------------------------

       Atom             a.u.   MegaHertz   Gauss  10(-4) cm-1        Axes

              Baa    -0.0784   -10.514    -3.752    -3.507 -0.6533  0.7566  0.0282
     1 C(13)  Bbb    -0.0751   -10.074    -3.595    -3.360  0.7561  0.6499  0.0770
              Bcc     0.1534    20.589     7.347     6.868 -0.0400 -0.0716  0.9966
 
              Baa    -0.0578    -7.751    -2.766    -2.585  0.7214 -0.3665  0.5875
     2 C(13)  Bbb     0.0057     0.759     0.271     0.253  0.5716  0.7941 -0.2064
              Bcc     0.0521     6.991     2.495     2.332 -0.3909  0.4848  0.7824
 
              Baa    -0.2162    15.647     5.583     5.219 -0.0873 -0.4063  0.9096
     3 O(17)  Bbb    -0.2082    15.062     5.375     5.024  0.9469  0.2498  0.2025
              Bcc     0.4244   -30.710   -10.958   -10.244 -0.3095  0.8789  0.3629
 
              Baa    -0.1563    11.309     4.035     3.772  0.0738 -0.6590  0.7485
     4 O(17)  Bbb    -0.1283     9.286     3.314     3.098  0.8596  0.4226  0.2873
              Bcc     0.2846   -20.595    -7.349    -6.870 -0.5057  0.6222  0.5977
 
              Baa    -1.3635    98.660    35.204    32.909  0.5982  0.6462 -0.4739
     5 O(17)  Bbb    -1.3326    96.425    34.407    32.164  0.7755 -0.3177  0.5456
              Bcc     2.6961  -195.085   -69.611   -65.073 -0.2020  0.6939  0.6912
 
              Baa    -0.0122    -6.490    -2.316    -2.165  0.9442  0.1793  0.2764
     6 H(1)   Bbb    -0.0027    -1.449    -0.517    -0.483 -0.0166  0.8638 -0.5036
              Bcc     0.0149     7.939     2.833     2.648 -0.3290  0.4709  0.8185
 
              Baa    -0.0056    -0.748    -0.267    -0.250 -0.5114  0.7215  0.4668
     7 C(13)  Bbb    -0.0048    -0.647    -0.231    -0.216  0.7129  0.6595 -0.2383
              Bcc     0.0104     1.396     0.498     0.466  0.4798 -0.2109  0.8516
 
              Baa    -0.0091    -1.222    -0.436    -0.407  0.8508  0.0646  0.5215
     8 C(13)  Bbb    -0.0085    -1.136    -0.405    -0.379 -0.3655  0.7858  0.4989
              Bcc     0.0176     2.357     0.841     0.786 -0.3776 -0.6151  0.6922
 
              Baa    -0.0133    -7.088    -2.529    -2.364  0.4762 -0.0010  0.8793
     9 H(1)   Bbb    -0.0079    -4.211    -1.502    -1.405  0.8739  0.1109 -0.4732
              Bcc     0.0212    11.299     4.032     3.769 -0.0971  0.9938  0.0537
 
              Baa    -0.0151    -8.039    -2.868    -2.681 -0.3774  0.6165  0.6910
    10 H(1)   Bbb    -0.0051    -2.726    -0.973    -0.909  0.3330  0.7866 -0.5200
              Bcc     0.0202    10.765     3.841     3.591  0.8641 -0.0339  0.5021
 
              Baa    -0.0031    -1.670    -0.596    -0.557  0.8438 -0.5250  0.1112
    11 H(1)   Bbb    -0.0012    -0.626    -0.223    -0.209  0.4503  0.8054  0.3854
              Bcc     0.0043     2.296     0.819     0.766 -0.2919 -0.2751  0.9160
 
              Baa    -0.0039    -2.067    -0.738    -0.690 -0.2761  0.9156  0.2922
    12 H(1)   Bbb    -0.0024    -1.262    -0.450    -0.421  0.6310 -0.0566  0.7737
              Bcc     0.0062     3.329     1.188     1.111  0.7250  0.3980 -0.5621
 
              Baa    -0.0042    -2.255    -0.805    -0.752  0.9263 -0.0759  0.3691
    13 H(1)   Bbb    -0.0020    -1.073    -0.383    -0.358 -0.2072  0.7156  0.6670
              Bcc     0.0062     3.329     1.188     1.110  0.3148  0.6943 -0.6471
 
              Baa    -0.0028    -1.494    -0.533    -0.498  0.0335  0.9901  0.1362
    14 H(1)   Bbb    -0.0020    -1.088    -0.388    -0.363  0.9361  0.0166 -0.3515
              Bcc     0.0048     2.582     0.921     0.861  0.3502 -0.1393  0.9262
 
              Baa    -0.0038    -2.029    -0.724    -0.677  0.7394  0.6623 -0.1208
    15 H(1)   Bbb    -0.0034    -1.832    -0.654    -0.611 -0.4121  0.5871  0.6968
              Bcc     0.0072     3.862     1.378     1.288  0.5324 -0.4654  0.7071
 
              Baa    -0.0062    -3.314    -1.183    -1.106 -0.3939  0.8309  0.3930
    16 H(1)   Bbb    -0.0051    -2.723    -0.972    -0.908  0.6810  0.5510 -0.4823
              Bcc     0.0113     6.037     2.154     2.014  0.6173 -0.0776  0.7829
 

 ---------------------------------------------------------------------------------

 Use density number 0.
 Entering OneElI...
 Calculate overlap and kinetic energy integrals
    NBasis = 187  MinDer = 2  MaxDer = 2
 Requested accuracy = 0.1000D-12
 PrsmSu:  NPrtUS=   1 ThrOK=F
 PRISM was handed   196296438 working-precision words and  2541 shell-pairs
 Entering OneElI...
 Calculate potential energy integrals
    NBasis = 187  MinDer = 2  MaxDer = 2
 Requested accuracy = 0.1000D-12
 PrsmSu:  NPrtUS=   8 ThrOK=T
 PRISM was handed    24493864 working-precision words and  2359 shell-pairs
 PRISM was handed    24493864 working-precision words and  2359 shell-pairs
 PRISM was handed    24493864 working-precision words and  2359 shell-pairs
 PRISM was handed    24493864 working-precision words and  2359 shell-pairs
 PRISM was handed    24493864 working-precision words and  2359 shell-pairs
 PRISM was handed    24493864 working-precision words and  2359 shell-pairs
 PRISM was handed    24493864 working-precision words and  2359 shell-pairs
 PRISM was handed    24493864 working-precision words and  2359 shell-pairs
 Polarizability after L701:
                1             2             3
      1  0.699043D+02
      2  0.331822D+01  0.539786D+02
      3  0.991545D+01 -0.901442D+01  0.731420D+02
 Dipole Derivatives after L701:
               1            2            3            4            5
      1 0.262458D+00 0.667156D-01 0.340732D-01 0.244733D+00-0.532586D+00
      2 0.214321D-01 0.176852D+00-0.168901D+00-0.215927D+00 0.909059D-01
      3 0.112726D+00-0.622773D-01 0.591020D+00 0.568979D-01-0.250082D-04
               6            7            8            9           10
      1 0.951059D-02-0.462538D+00 0.147386D+00 0.515358D+00-0.107266D+00
      2 0.183622D+00 0.119597D-01-0.156699D+00 0.672654D-01 0.115762D+00
      3-0.149284D+00-0.120634D+00-0.303674D-01 0.125315D+00 0.116629D+00
              11           12           13           14           15
      1 0.222563D+00-0.614445D+00-0.245597D+00 0.284791D-01 0.122938D+00
      2-0.254138D+00-0.177946D-01 0.136039D+00-0.229192D+00 0.104807D-01
      3 0.183110D+00-0.601058D+00-0.137336D+00 0.183493D-01-0.260232D+00
              16           17           18           19           20
      1-0.257111D-01 0.332615D-01-0.423429D-02-0.121960D-01-0.621822D-01
      2 0.340586D-01-0.110302D+00 0.236755D-01-0.422096D-01 0.908387D-01
      3 0.880503D-02-0.208275D-01-0.518328D-01 0.239467D-01 0.131171D-01
              21           22           23           24           25
      1-0.270646D-01-0.470217D-01-0.467499D-01-0.333132D-01 0.246165D+00
      2 0.569542D-01-0.522111D-01 0.976946D-01 0.653406D-01 0.563111D-01
      3-0.247283D-01-0.403060D-01-0.206892D-01-0.818620D-01 0.540693D-01
              26           27           28           29           30
      1 0.137501D+00 0.187292D-01 0.359516D-01-0.684312D-01-0.640639D-01
      2 0.607537D-01-0.601603D-01-0.135061D+00 0.296954D+00-0.656009D-01
      3-0.497946D-01 0.196692D+00-0.744880D-01-0.513978D-01 0.285187D+00
              31           32           33           34           35
      1 0.888138D-01-0.102553D-01 0.149701D-01-0.710029D-01 0.244658D-01
      2-0.180314D-01 0.391636D-01 0.127656D-01 0.134379D-02 0.585768D-01
      3 0.985032D-02 0.348121D-01-0.151094D+00-0.398840D-01 0.730509D-02
              36           37           38           39           40
      1-0.687644D-01 0.310149D-01 0.272838D-01 0.329904D-01 0.448501D-01
      2-0.170750D-02 0.837500D-01-0.114882D+00-0.739357D-01 0.241353D-01
      3 0.879587D-01 0.358163D-01-0.187748D-01 0.453536D-01-0.187717D-01
              41           42           43           44           45
      1 0.182705D-01-0.347972D-01 0.234203D-01 0.945502D-01 0.238371D-01
      2 0.770408D-01-0.103406D-01 0.294025D-01-0.113228D+00-0.757945D-01
      3-0.324609D-02-0.147726D+00-0.131029D-01-0.347552D-01 0.533061D-01
              46           47           48
      1-0.607419D-02-0.802731D-01 0.742765D-01
      2-0.507541D-01-0.103378D-01 0.541310D-01
      3 0.257813D-01 0.354610D-01 0.829832D-01
 Hessian after L701:
                1             2             3             4             5
      1  0.150688D+02
      2 -0.606025D+00  0.172980D+02
      3 -0.940866D+00  0.176439D+01  0.134400D+02
      4 -0.560809D+01 -0.431915D-01  0.233040D+00  0.154956D+02
      5 -0.395139D-01 -0.562003D+01 -0.559225D+00 -0.452660D+01  0.220017D+02
      6  0.298207D+00 -0.563043D+00  0.467610D+00  0.491586D+00  0.377728D+01
      7 -0.175136D+00 -0.817280D-01  0.222116D+00  0.155431D+01 -0.242385D+00
      8 -0.148038D-01 -0.918630D-01 -0.132268D+00 -0.311284D+00 -0.841713D+01
      9  0.216523D+00 -0.169205D+00  0.370467D-01  0.297936D+01 -0.722447D-01
     10 -0.885064D-01 -0.508801D-01  0.238169D+00  0.306186D+00 -0.782812D-01
     11 -0.105979D-02 -0.194427D+00 -0.202837D-01 -0.802882D-01 -0.215311D+00
     12  0.224429D+00 -0.949808D-01  0.386390D+00  0.416467D+00  0.217685D-01
     13 -0.226999D+00 -0.162829D+00 -0.693952D-02 -0.732482D+01  0.617972D+01
     14 -0.228070D+00 -0.199533D+00 -0.133024D+00  0.623377D+01 -0.624823D+01
     15  0.279025D-01 -0.196111D+00  0.597382D+00 -0.384144D+01 -0.389247D+01
     16 -0.451343D+01 -0.930190D+00 -0.228017D+00  0.853101D-01  0.135718D-01
     17 -0.958044D+00 -0.226973D+01  0.621345D+00  0.277945D-01  0.722949D-01
     18 -0.314013D+00  0.833879D+00 -0.467534D+01  0.615251D-01 -0.878512D-01
     19 -0.120076D+01 -0.399473D+00  0.164422D+01 -0.148055D+00 -0.271781D-01
     20 -0.458042D+00 -0.583960D+01 -0.154299D+00 -0.120744D-01  0.564729D-02
     21  0.174891D+01 -0.131864D+00 -0.539169D+01  0.319886D-01 -0.677189D-01
     22 -0.358355D+01  0.227981D+01 -0.115883D+01 -0.127999D+00 -0.327262D-01
     23  0.234684D+01 -0.338271D+01 -0.125241D+01 -0.588017D-01 -0.119893D+00
     24 -0.127637D+01 -0.131955D+01 -0.525121D+01  0.312289D-02 -0.903169D-01
     25  0.116677D+00  0.346835D-01  0.245939D-01 -0.415167D+01 -0.126547D+01
     26  0.258415D-01  0.154723D-01 -0.102647D+00 -0.123112D+01 -0.143089D+01
     27  0.358767D-01 -0.168932D+00 -0.581947D-01 -0.387045D+00  0.988063D+00
     28 -0.167704D-01  0.993064D-02 -0.824527D-02 -0.145540D-01  0.255815D-01
     29 -0.141661D-01  0.186313D-02 -0.257411D-01  0.264282D-01  0.173161D-01
     30  0.161928D-01 -0.136553D-01  0.100985D-01 -0.502113D-01  0.399939D-01
     31  0.378908D-01 -0.487335D-02  0.370796D-01 -0.310180D-01  0.196570D-01
     32 -0.103046D-02  0.339962D-01  0.398625D-01  0.159886D-01 -0.258801D-01
     33 -0.195157D-01  0.488179D-02  0.678482D-01 -0.582879D-01 -0.729115D-01
     34  0.581784D-01 -0.208958D-01 -0.333237D-01  0.469658D-02  0.376672D-03
     35 -0.634006D-01  0.231956D-01 -0.244482D-01 -0.271502D-01 -0.842982D-02
     36  0.440766D-01  0.667895D-03  0.504772D-01  0.332664D-01  0.221306D-01
     37  0.876456D-01 -0.827164D-01 -0.883926D-02 -0.203852D-01 -0.229498D-01
     38 -0.228127D-01  0.645278D-02 -0.143576D-01 -0.178956D-01  0.168817D-01
     39  0.268978D-02  0.461914D-01  0.102496D+00  0.117003D-01  0.229807D-02
     40  0.316664D-01 -0.166592D-02 -0.625637D-01 -0.705589D-02 -0.441284D-02
     41 -0.274145D-02  0.408614D-01  0.492149D-02 -0.208158D-02 -0.480380D-01
     42  0.489147D-02  0.116929D-01  0.531744D-01  0.105194D+00 -0.114576D-01
     43  0.115388D-01  0.750765D-01  0.190758D-01 -0.116329D-01 -0.971115D-02
     44  0.797168D-02  0.900596D-01 -0.733616D-02 -0.285821D-01  0.165890D-01
     45 -0.234323D-01  0.291210D-01  0.950726D-01 -0.509837D-02 -0.387579D-02
     46  0.845879D-03 -0.150316D-01  0.293296D-01 -0.880954D-03  0.103269D-01
     47  0.290534D-01  0.879594D-01 -0.448292D-02  0.351003D-01  0.335688D-02
     48 -0.455029D-01 -0.334900D-01  0.688358D-01 -0.251710D-01  0.653218D-02
                6             7             8             9            10
      6  0.199575D+02
      7  0.291777D+01  0.410233D+01
      8 -0.593485D-01  0.767420D+00  0.124710D+02
      9 -0.665668D+01 -0.438143D+01  0.334688D+01  0.347240D+01
     10  0.557747D+00 -0.590367D+01 -0.664341D+00  0.580857D+00  0.881731D+01
     11 -0.102834D-01 -0.600489D+00 -0.384614D+01 -0.305647D+01 -0.192586D+01
     12 -0.892091D-01  0.527641D+00 -0.313601D+01  0.247180D+01 -0.162234D+01
     13 -0.382305D+01  0.618473D+00  0.728549D-01  0.288063D+00  0.539554D+00
     14 -0.392227D+01  0.790193D-01 -0.140930D+00  0.221457D+00  0.147342D+00
     15 -0.101234D+02  0.220431D+00  0.206080D+00 -0.132837D+00  0.393061D+00
     16  0.265915D-01 -0.292065D-01 -0.930593D-03  0.335875D-01 -0.184740D-01
     17 -0.299102D-01  0.385181D-01 -0.449322D-01  0.654762D-01  0.163022D-01
     18  0.229404D-01  0.714315D-01  0.440914D-02  0.519544D-01  0.241885D-01
     19 -0.547355D-01  0.146438D+00 -0.448132D-01  0.252084D+00 -0.146044D-01
     20 -0.383092D-01 -0.459708D-01 -0.160126D+00 -0.394157D-01 -0.230887D-01
     21  0.310375D+00  0.282416D+00 -0.422518D-01  0.587594D-01  0.906614D-01
     22 -0.760127D-02 -0.280814D+00 -0.449781D-01  0.183149D+00 -0.946846D-01
     23 -0.169885D-01  0.126039D-01 -0.270578D+00 -0.215934D+00 -0.127836D-01
     24  0.225510D+00  0.825492D-01 -0.213990D+00  0.489193D+00  0.398313D-01
     25 -0.375272D+00 -0.255299D+00  0.530418D-01 -0.955616D-01  0.208924D-01
     26  0.908493D+00  0.251810D-01  0.297583D+00  0.418296D-01 -0.995107D-01
     27 -0.434636D+01 -0.859640D-01  0.537012D-01  0.167258D+00  0.266443D-01
     28 -0.733722D-01  0.299357D+00  0.157369D+00 -0.343891D-01 -0.356134D+01
     29  0.733250D-03  0.717250D-01  0.263949D+00  0.994759D-01  0.271143D+01
     30 -0.257451D-01  0.779712D-01  0.153244D+00 -0.148239D+00 -0.370959D+00
     31 -0.588321D-01 -0.186618D-01 -0.149969D-02  0.524300D-02 -0.714509D-02
     32 -0.566983D-01 -0.215061D-02 -0.154031D-01 -0.159046D-01 -0.141291D-02
     33  0.159510D+00  0.143125D-01 -0.207818D-01  0.687636D-01  0.959317D-02
     34  0.814827D-02 -0.106827D+00  0.654736D-01 -0.132910D+00 -0.155967D-01
     35  0.254867D-01  0.153342D-01 -0.581798D-01 -0.122720D+00  0.300202D-02
     36 -0.213250D-01 -0.241660D-01 -0.123313D+00  0.101250D+00 -0.764828D-02
     37  0.170539D-01 -0.214993D-01 -0.254520D-01  0.266888D-01 -0.737018D-02
     38 -0.131624D-01 -0.284733D-01  0.380336D-01 -0.755938D-01 -0.136451D-01
     39 -0.798767D-02  0.126642D-01 -0.316708D-01  0.545447D-02  0.387408D-02
     40  0.898980D-01  0.277835D-02 -0.729129D-03  0.135691D-01 -0.100494D-02
     41 -0.218722D-02  0.198960D-03 -0.106771D-01  0.865697D-03 -0.577269D-03
     42  0.158417D+00  0.303725D-01 -0.133304D-02  0.287689D-01  0.198738D-01
     43 -0.189199D-02  0.216186D-01 -0.158342D-01  0.256985D-01  0.864374D-02
     44 -0.185244D-01 -0.356638D-01 -0.101182D-02 -0.255263D-01 -0.214581D-01
     45 -0.632283D-02  0.133189D-01 -0.603154D-02 -0.728265D-02  0.830923D-02
     46 -0.122385D-01  0.458036D-01  0.850685D-02  0.394689D-01  0.198170D-01
     47  0.187255D-01  0.268607D-01 -0.136259D-01  0.170314D-01  0.137614D-01
     48 -0.247708D-01  0.185701D-01  0.268488D-02 -0.761496D-02  0.813530D-02
               11            12            13            14            15
     11  0.932241D+01
     12  0.356590D+01  0.374968D+01
     13  0.244787D+00  0.319111D+00  0.673491D+01
     14 -0.395916D+00  0.239795D-01 -0.608062D+01  0.758357D+01
     15  0.761227D-01 -0.313993D+00  0.285251D+01  0.451883D+01  0.922819D+01
     16 -0.310348D-03  0.544274D-02 -0.233148D-01  0.143039D-01 -0.441552D-01
     17 -0.930325D-02  0.307871D-01 -0.214382D-01 -0.458221D-01  0.409123D-01
     18  0.132859D-01  0.377687D-01 -0.371074D-01 -0.336816D-01  0.581379D-01
     19 -0.117702D-01  0.627057D-01 -0.268014D+00 -0.135934D-01  0.433723D-01
     20 -0.672468D-01 -0.231207D-01 -0.477692D-01 -0.176379D+00 -0.291425D+00
     21 -0.101700D-01  0.318492D-01  0.966433D-01 -0.272087D+00  0.337548D+00
     22 -0.209744D-01  0.508985D-01 -0.352131D-01  0.152796D+00 -0.179222D+00
     23 -0.611344D-01 -0.934056D-01  0.156047D+00  0.116652D-02 -0.207140D+00
     24 -0.106128D+00  0.123613D+00 -0.214170D+00 -0.233050D+00  0.103638D+00
     25 -0.373822D-01  0.535855D-01  0.232508D-01 -0.252273D+00  0.340039D-01
     26  0.159190D-02 -0.569149D-01 -0.209897D+00  0.955768D-01 -0.596381D-02
     27 -0.157742D-01 -0.273641D-01  0.180913D-01  0.174570D-01  0.123082D+00
     28  0.243133D+01 -0.574861D-01  0.227239D-01 -0.197312D-01  0.328280D+00
     29 -0.450785D+01 -0.187052D+00 -0.157594D+00 -0.399951D+00 -0.114938D+00
     30 -0.406713D+00 -0.642674D+01  0.439001D+00 -0.287448D-01 -0.716580D-01
     31 -0.508019D-03  0.240497D-02 -0.553707D-02  0.449743D-02 -0.850833D-02
     32 -0.610529D-02 -0.513994D-02  0.525129D-02 -0.594859D-02 -0.887071D-02
     33 -0.552143D-02  0.264175D-01 -0.224819D-01 -0.236616D-01  0.317367D-01
     34  0.980651D-02 -0.321243D-01  0.355730D-01  0.363460D-01 -0.444229D-01
     35 -0.138061D-01 -0.108144D-01  0.137401D-01 -0.784216D-02 -0.122622D-01
     36 -0.102502D-01  0.108741D-01 -0.150803D-01 -0.100079D-01 -0.439352D-02
     37 -0.675340D-02  0.893659D-02 -0.148689D-01  0.435221D-02 -0.347413D-02
     38  0.827491D-02 -0.280227D-01  0.277225D-01  0.378309D-01 -0.411045D-01
     39 -0.113598D-01  0.256460D-02 -0.676909D-02 -0.150753D-01 -0.522150D-02
     40  0.559879D-04  0.648200D-02 -0.175499D-01 -0.442997D-02  0.120087D-01
     41 -0.560155D-02 -0.680032D-03 -0.102986D-02 -0.147999D-01 -0.122019D-01
     42  0.195365D-02  0.169068D-01  0.425322D-02 -0.274617D-01  0.698472D-01
     43 -0.503419D-02  0.131408D-01 -0.197996D-01 -0.274203D-01  0.292488D-01
     44 -0.381708D-02 -0.144240D-01 -0.210516D-01  0.369541D-01 -0.678316D-01
     45 -0.386809D-02  0.297327D-03  0.125419D-01 -0.293458D-01  0.468279D-02
     46  0.445776D-02  0.207026D-01 -0.383711D-01 -0.462850D-01  0.180405D+00
     47 -0.561488D-02  0.812871D-02  0.211002D-02 -0.119753D+00  0.836621D-02
     48 -0.443076D-03 -0.847807D-03  0.953891D-01 -0.533233D-01  0.972943D-01
               16            17            18            19            20
     16  0.455335D+01
     17  0.109442D+01  0.192824D+01
     18  0.292754D+00 -0.987738D+00  0.428577D+01
     19 -0.574563D-01  0.311946D-01 -0.316048D-01  0.122717D+02
     20  0.499302D-01  0.122820D+00  0.339100D-01  0.118589D+00  0.151574D+02
     21 -0.451460D-01  0.377679D-01  0.851974D-01 -0.124171D+01  0.392009D+00
     22  0.751170D-01 -0.947692D-01  0.399514D-02  0.208446D+00  0.102784D+00
     23 -0.114136D+00 -0.521137D-02  0.486343D-01  0.251303D-01  0.167179D-01
     24  0.141626D-01  0.663050D-01  0.105202D+00  0.471742D-01  0.152040D-01
     25 -0.285978D-01 -0.402340D-01 -0.421617D-01 -0.157223D-01  0.128728D-02
     26 -0.384899D-01  0.685246D-01  0.114943D+00  0.487105D-02  0.118177D-02
     27 -0.379220D-01  0.108347D+00  0.667273D-01 -0.930405D-02  0.129752D-01
     28 -0.228184D-02 -0.517626D-02 -0.387812D-02 -0.481568D-02  0.842071D-03
     29  0.120282D-02 -0.778611D-02 -0.597757D-02 -0.253478D-02 -0.251627D-02
     30 -0.104505D-03  0.273332D-02  0.109033D-01  0.503520D-02 -0.465116D-02
     31  0.120462D-01 -0.150511D-01  0.951883D-02  0.294003D-02  0.346570D-03
     32 -0.138423D-01 -0.272632D-01  0.287827D-01 -0.723641D-02 -0.217532D-01
     33  0.136454D-01  0.195413D-01 -0.455618D-02 -0.251314D-01 -0.995755D-02
     34 -0.128397D-01 -0.107909D-01  0.185989D-02  0.181516D+00  0.445886D-01
     35 -0.257631D-01 -0.182559D-01 -0.318196D-02  0.408678D-01 -0.412839D-01
     36 -0.109482D-03  0.575510D-02  0.115729D-01  0.229731D-01  0.692682D-02
     37 -0.339663D-01  0.108573D-01  0.173496D-02 -0.151841D-01 -0.244373D-02
     38  0.392240D-02  0.156848D+00  0.163264D-01  0.103879D-01  0.110200D-01
     39  0.710336D-03  0.361657D-02 -0.331380D-01  0.165238D-01  0.172644D-01
     40 -0.223439D-01  0.252134D-01 -0.288067D-01 -0.409066D+01  0.123125D-01
     41  0.234666D-01  0.424741D-02  0.164910D-01  0.298339D-03 -0.406292D+01
     42 -0.261125D-01  0.766032D-02 -0.335905D-02  0.712691D-01  0.193665D+00
     43  0.504302D-01 -0.988580D-01 -0.124139D-01 -0.385470D+01 -0.105376D+01
     44 -0.905109D-01  0.718344D-01  0.118113D-01 -0.884751D+00 -0.196200D+01
     45 -0.337938D-02  0.269545D-02 -0.329171D-01 -0.211143D+00  0.526147D+00
     46 -0.343435D-01  0.569737D-04  0.297834D-02 -0.314111D+01  0.131247D+01
     47  0.133511D-01  0.349457D-02 -0.404345D-02  0.116001D+01 -0.298092D+01
     48 -0.194792D-02  0.470516D-02  0.131357D-01 -0.591730D+00 -0.636923D+00
               21            22            23            24            25
     21  0.140616D+02
     22 -0.697479D-01  0.137696D+02
     23 -0.269192D-01 -0.141044D+01  0.140871D+02
     24  0.207397D-01  0.642315D+00  0.117209D+01  0.139619D+02
     25 -0.104995D-01 -0.714751D-02 -0.353696D-02  0.268868D-01  0.430969D+01
     26  0.352452D-01 -0.136232D-02  0.149641D-01  0.179464D-01  0.151337D+01
     27 -0.965423D-02  0.394430D-01  0.917248D-02 -0.545806D-01  0.383684D+00
     28 -0.172540D-02 -0.121955D-01  0.460223D-02 -0.135305D-01 -0.775120D-02
     29 -0.130662D-01 -0.423528D-02 -0.667961D-03 -0.164000D-01 -0.187767D-01
     30  0.542046D-02  0.245447D-02 -0.498588D-02  0.439150D-02  0.114337D-01
     31 -0.109252D-01 -0.412376D+01 -0.140827D-01 -0.153991D+00 -0.556402D-03
     32  0.216611D-02 -0.795994D-02 -0.411395D+01 -0.916678D-02 -0.402400D-04
     33  0.966853D-02 -0.508176D-01  0.874855D-01 -0.142846D+01 -0.530105D-02
     34  0.256254D-01 -0.179931D+01 -0.409125D+00  0.101625D+01  0.115790D-01
     35  0.775129D-02 -0.249831D+00 -0.434553D+01 -0.733243D-01 -0.108733D-02
     36 -0.473755D-01  0.738502D+00 -0.934533D-01 -0.412436D+01 -0.610929D-02
     37  0.359931D-02 -0.410981D+01 -0.638387D+00 -0.196301D+00 -0.117524D-01
     38  0.134969D-02 -0.780926D+00 -0.181538D+01  0.794451D+00  0.231380D-01
     39 -0.131224D-01 -0.180136D+00  0.591844D+00 -0.412842D+01 -0.275817D-01
     40  0.221564D+00 -0.946101D-03  0.149525D-01  0.191981D-01 -0.190102D-02
     41  0.189035D+00  0.222025D-01 -0.123487D-01  0.131337D-01 -0.417396D-03
     42 -0.142550D+01  0.394079D-01  0.141304D-01  0.988304D-02 -0.282973D-02
     43 -0.317359D+00 -0.148137D-01 -0.365854D-02 -0.299225D-02  0.141863D-02
     44  0.671074D+00 -0.161752D-01  0.939872D-04 -0.142645D-02 -0.557594D-02
     45 -0.410602D+01 -0.227568D-01  0.219184D-02 -0.887959D-02  0.324368D-01
     46 -0.804293D+00  0.137107D+00  0.104773D+00 -0.341391D-01 -0.311907D-02
     47 -0.772321D+00  0.106785D+00  0.732999D-02 -0.157871D-01 -0.725357D-03
     48 -0.392779D+01 -0.310509D-01 -0.143184D-01 -0.482133D-01 -0.130752D-02
               26            27            28            29            30
     26  0.953537D+00
     27 -0.936974D+00  0.406710D+01
     28 -0.232986D-02  0.619933D-02  0.330214D+01
     29  0.314109D-01 -0.143391D-01 -0.261166D+01  0.459678D+01
     30 -0.226045D-01 -0.384562D-02 -0.130071D+00  0.293444D+00  0.663809D+01
     31 -0.155212D-02 -0.192097D-02 -0.467390D-03  0.159136D-03 -0.377843D-03
     32 -0.134187D-02 -0.318031D-03  0.785288D-03  0.197231D-03 -0.103996D-02
     33  0.104405D-01  0.703130D-02 -0.561393D-02 -0.604757D-02  0.301357D-02
     34 -0.135096D-01 -0.145931D-01  0.562040D-02  0.713602D-02 -0.428765D-02
     35 -0.390710D-02  0.116717D-02  0.174579D-02  0.545343D-03 -0.274098D-02
     36  0.160783D-02  0.884434D-03 -0.221726D-02 -0.307942D-02  0.275982D-02
     37  0.102262D-01 -0.241595D-01 -0.225753D-02 -0.153895D-02  0.513042D-03
     38 -0.195893D-01 -0.430773D-01  0.562598D-02  0.625879D-02 -0.303953D-02
     39 -0.187164D-01  0.338811D-01 -0.440844D-03 -0.152133D-02  0.376849D-03
     40  0.110372D-02  0.705464D-03 -0.107429D-02 -0.980715D-03  0.779281D-03
     41  0.320481D-03  0.922199D-03 -0.131055D-03 -0.390074D-03 -0.356130D-03
     42  0.108731D-01  0.474802D-02 -0.405090D-02 -0.511368D-02  0.239497D-02
     43  0.754056D-02  0.463315D-01 -0.250790D-02 -0.280446D-02  0.121505D-02
     44 -0.331430D-01 -0.173327D-01  0.355329D-02  0.437539D-02 -0.196227D-02
     45  0.383764D-02  0.326852D-01  0.196040D-03 -0.677565D-03 -0.135970D-03
     46  0.964594D-02  0.393345D-02 -0.381633D-02 -0.379774D-02  0.141517D-02
     47  0.871079D-02  0.494219D-02 -0.233599D-02 -0.353059D-02  0.107809D-02
     48 -0.139510D-02 -0.340307D-02  0.344597D-03  0.300952D-03 -0.108486D-02
               31            32            33            34            35
     31  0.399182D+01
     32 -0.280436D-01  0.410960D+01
     33  0.216195D+00  0.108863D+00  0.111483D+01
     34  0.291620D-01  0.801076D-02 -0.497433D-01  0.160430D+01
     35 -0.272980D-02  0.575820D-01 -0.329367D-02  0.203113D+00  0.440794D+01
     36 -0.800361D-01  0.152087D-01 -0.157241D-01 -0.731227D+00  0.195797D+00
     37  0.752296D-01  0.114076D-01  0.160792D-01 -0.135882D-01  0.973350D-01
     38  0.248775D-01  0.269710D-01 -0.847874D-01  0.825185D-01  0.109952D-01
     39  0.388272D-01 -0.100157D+00 -0.201830D-01 -0.172532D-01  0.223209D-01
     40  0.329858D-01  0.183097D-01 -0.129692D-01  0.732875D-02  0.109962D-02
     41  0.188791D-01 -0.959453D-02 -0.585610D-02  0.275134D-02 -0.208778D-02
     42  0.112662D-01  0.346674D-02 -0.284477D-01  0.144336D-01  0.406134D-03
     43  0.900902D-03 -0.118357D-02 -0.892198D-02  0.105739D-01 -0.165061D-02
     44 -0.434330D-02 -0.964191D-03  0.103206D-01 -0.103408D-01 -0.473679D-03
     45 -0.242133D-02  0.544653D-03  0.411230D-02 -0.225169D-02  0.417192D-03
     46  0.417083D-02  0.314674D-02 -0.110418D-01 -0.367369D-03 -0.462482D-02
     47  0.426673D-02 -0.140114D-03 -0.871402D-02  0.454182D-02 -0.457478D-03
     48 -0.352224D-02 -0.159938D-02  0.443801D-02 -0.418175D-02 -0.560839D-03
               36            37            38            39            40
     36  0.395482D+01
     37  0.183047D-01  0.404268D+01
     38 -0.907050D-02  0.628965D+00  0.152507D+01
     39  0.795060D-01  0.140256D+00 -0.506788D+00  0.400556D+01
     40  0.386891D-02 -0.237867D-02  0.352346D-02  0.184106D-02  0.394875D+01
     41  0.121812D-02  0.480576D-04  0.296908D-02  0.226944D-02 -0.691234D-01
     42  0.364602D-02  0.659939D-03  0.134658D-01  0.414163D-02 -0.343180D+00
     43  0.199786D-02  0.474791D-01  0.427037D-01  0.161638D-02  0.747632D-01
     44 -0.215136D-02  0.149976D-01 -0.221452D-01 -0.227554D-02  0.104878D-01
     45 -0.253630D-02 -0.735998D-03 -0.300255D-02 -0.233660D-01  0.286451D-01
     46  0.360352D-02  0.286545D-04  0.103674D-01  0.147713D-02  0.466427D-01
     47  0.201313D-02  0.205255D-02  0.951775D-02  0.175959D-02 -0.571675D-02
     48 -0.686146D-04 -0.316987D-03 -0.358575D-02 -0.254569D-02  0.489601D-01
               41            42            43            44            45
     41  0.404849D+01
     42 -0.165866D+00  0.114087D+01
     43  0.239042D-01  0.361082D-01  0.358968D+01
     44  0.230392D-01 -0.729933D-01  0.110531D+01  0.186909D+01
     45 -0.101968D+00 -0.140321D-01  0.176200D+00 -0.451874D+00  0.398411D+01
     46 -0.156472D-01  0.384428D-01  0.864061D-01 -0.238692D-01 -0.428375D-03
     47  0.465313D-01  0.269106D-01 -0.346173D-01 -0.884771D-01  0.356893D-01
     48  0.602593D-01 -0.214568D-01 -0.705344D-02 -0.954741D-02  0.805324D-01
               46            47            48
     46  0.288119D+01
     47 -0.135450D+01  0.304561D+01
     48  0.540385D+00  0.680704D+00  0.377356D+01
 ReadGW:  IGet=0 IStart=         114 Next=        7241 LGW=        7127.
 ICntrl=12127.
 Symmetry not used in FoFDir.
 MinBra= 0 MaxBra= 2 Meth= 1.
 IRaf=       0 NMat=   1 IRICut=       1 DoRegI=T DoRafI=F ISym2E= 0 JSym2E=0.
 PrsmSu:  NPrtUS=   8 ThrOK=T
 PRISM was handed    24480066 working-precision words and  2436 shell-pairs
 PRISM was handed    24480066 working-precision words and  2436 shell-pairs
 PRISM was handed    24480066 working-precision words and  2436 shell-pairs
 PRISM was handed    24480066 working-precision words and  2436 shell-pairs
 PRISM was handed    24480066 working-precision words and  2436 shell-pairs
 PRISM was handed    24480066 working-precision words and  2436 shell-pairs
 PRISM was handed    24480066 working-precision words and  2436 shell-pairs
 PRISM was handed    24480066 working-precision words and  2436 shell-pairs
 Pruned (  75, 302) grid will be used in CalDFT.
 CkSvGd:  ISavGI=        -1 IRadAn=       4 IRASav=       4 ISavGd=        -1.
 CalDSu:  NPrtUS=   8 ThrOK=T
 IPart= 0 IRanGd=          0 ScrnBf=T ScrnGd=T RCrit=4.00D+00 DoMicB=T.
 IPart= 2 IRanGd=          0 ScrnBf=T ScrnGd=T RCrit=4.00D+00 DoMicB=T.
 CutRad = 1000.00    CtRdIn =    0.00    XCrit =  15.00   ICut = 0
 IPart= 7 IRanGd=          0 ScrnBf=T ScrnGd=T RCrit=4.00D+00 DoMicB=T.
 CutRad = 1000.00    CtRdIn =    0.00    XCrit =  15.00   ICut = 0
 IPart= 4 IRanGd=          0 ScrnBf=T ScrnGd=T RCrit=4.00D+00 DoMicB=T.
 CutRad = 1000.00    CtRdIn =    0.00    XCrit =  15.00   ICut = 0
 CutRad = 1000.00    CtRdIn =    0.00    XCrit =  15.00   ICut = 0
 IPart= 5 IRanGd=          0 ScrnBf=T ScrnGd=T RCrit=4.00D+00 DoMicB=T.
 IPart= 1 IRanGd=          0 ScrnBf=T ScrnGd=T RCrit=4.00D+00 DoMicB=T.
 IPart= 3 IRanGd=          0 ScrnBf=T ScrnGd=T RCrit=4.00D+00 DoMicB=T.
 CutRad = 1000.00    CtRdIn =    0.00    XCrit =  15.00   ICut = 0
 CutRad = 1000.00    CtRdIn =    0.00    XCrit =  15.00   ICut = 0
 CutRad = 1000.00    CtRdIn =    0.00    XCrit =  15.00   ICut = 0
 IPart= 6 IRanGd=          0 ScrnBf=T ScrnGd=T RCrit=4.00D+00 DoMicB=T.
 CutRad = 1000.00    CtRdIn =    0.00    XCrit =  15.00   ICut = 0
 IPart= 6        13964 of        15944 points in      33 batches and      100 microbatches, Max-NSigAt=      16 Max-NSgAt2=      16
 IPart= 2        15339 of        17134 points in      35 batches and      105 microbatches, Max-NSigAt=      16 Max-NSgAt2=      16
 IPart= 3        14429 of        16970 points in      37 batches and      102 microbatches, Max-NSigAt=      16 Max-NSgAt2=      16
 IPart= 1        13989 of        16006 points in      34 batches and      100 microbatches, Max-NSigAt=      16 Max-NSgAt2=      16
 IPart= 5        13729 of        16148 points in      33 batches and       92 microbatches, Max-NSigAt=      16 Max-NSgAt2=      16
 IPart= 7        13558 of        15980 points in      34 batches and       86 microbatches, Max-NSigAt=      16 Max-NSgAt2=      16
 IPart= 4        13387 of        15184 points in      31 batches and       95 microbatches, Max-NSigAt=      16 Max-NSgAt2=      16
 IPart= 0        13607 of        14716 points in      27 batches and       92 microbatches, Max-NSigAt=      16 Max-NSgAt2=      16
 Polarizability after L703:
                1             2             3
      1  0.699043D+02
      2  0.331822D+01  0.539786D+02
      3  0.991545D+01 -0.901442D+01  0.731420D+02
 Dipole Derivatives after L703:
               1            2            3            4            5
      1 0.262458D+00 0.667156D-01 0.340732D-01 0.244733D+00-0.532586D+00
      2 0.214321D-01 0.176852D+00-0.168901D+00-0.215927D+00 0.909059D-01
      3 0.112726D+00-0.622773D-01 0.591020D+00 0.568979D-01-0.250082D-04
               6            7            8            9           10
      1 0.951059D-02-0.462538D+00 0.147386D+00 0.515358D+00-0.107266D+00
      2 0.183622D+00 0.119597D-01-0.156699D+00 0.672654D-01 0.115762D+00
      3-0.149284D+00-0.120634D+00-0.303674D-01 0.125315D+00 0.116629D+00
              11           12           13           14           15
      1 0.222563D+00-0.614445D+00-0.245597D+00 0.284791D-01 0.122938D+00
      2-0.254138D+00-0.177946D-01 0.136039D+00-0.229192D+00 0.104807D-01
      3 0.183110D+00-0.601058D+00-0.137336D+00 0.183493D-01-0.260232D+00
              16           17           18           19           20
      1-0.257111D-01 0.332615D-01-0.423429D-02-0.121960D-01-0.621822D-01
      2 0.340586D-01-0.110302D+00 0.236755D-01-0.422096D-01 0.908387D-01
      3 0.880503D-02-0.208275D-01-0.518328D-01 0.239467D-01 0.131171D-01
              21           22           23           24           25
      1-0.270646D-01-0.470217D-01-0.467499D-01-0.333132D-01 0.246165D+00
      2 0.569542D-01-0.522111D-01 0.976946D-01 0.653406D-01 0.563111D-01
      3-0.247283D-01-0.403060D-01-0.206892D-01-0.818620D-01 0.540693D-01
              26           27           28           29           30
      1 0.137501D+00 0.187292D-01 0.359516D-01-0.684312D-01-0.640639D-01
      2 0.607537D-01-0.601603D-01-0.135061D+00 0.296954D+00-0.656009D-01
      3-0.497946D-01 0.196692D+00-0.744880D-01-0.513978D-01 0.285187D+00
              31           32           33           34           35
      1 0.888138D-01-0.102553D-01 0.149701D-01-0.710029D-01 0.244658D-01
      2-0.180314D-01 0.391636D-01 0.127656D-01 0.134379D-02 0.585768D-01
      3 0.985032D-02 0.348121D-01-0.151094D+00-0.398840D-01 0.730509D-02
              36           37           38           39           40
      1-0.687644D-01 0.310149D-01 0.272838D-01 0.329904D-01 0.448501D-01
      2-0.170750D-02 0.837500D-01-0.114882D+00-0.739357D-01 0.241353D-01
      3 0.879587D-01 0.358163D-01-0.187748D-01 0.453536D-01-0.187717D-01
              41           42           43           44           45
      1 0.182705D-01-0.347972D-01 0.234203D-01 0.945502D-01 0.238371D-01
      2 0.770408D-01-0.103406D-01 0.294025D-01-0.113228D+00-0.757945D-01
      3-0.324609D-02-0.147726D+00-0.131029D-01-0.347552D-01 0.533061D-01
              46           47           48
      1-0.607419D-02-0.802731D-01 0.742765D-01
      2-0.507541D-01-0.103378D-01 0.541310D-01
      3 0.257813D-01 0.354610D-01 0.829832D-01
 Hessian after L703:
                1             2             3             4             5
      1  0.482009D+00
      2 -0.379847D-01  0.560465D+00
      3 -0.120341D-01  0.273693D-01  0.384971D+00
      4 -0.596525D-01 -0.227766D-02 -0.180403D-01  0.353097D+00
      5  0.899577D-02 -0.376990D-01 -0.212868D-01 -0.100224D-01  0.405568D+00
      6  0.151735D-01 -0.104504D-01 -0.599495D-01 -0.408442D-01 -0.459363D-01
      7 -0.424761D-02  0.693751D-02 -0.138024D-01 -0.111864D+00 -0.279172D-02
      8  0.922800D-03 -0.287148D-02  0.140145D-02  0.373591D-01 -0.405243D-01
      9 -0.398828D-01  0.342421D-02 -0.258399D-01  0.269970D-01  0.438454D-01
     10 -0.898577D-02 -0.835389D-03  0.200915D-02 -0.274854D-02  0.264908D-01
     11 -0.225052D-03  0.157536D-03 -0.616278D-02  0.299996D-02 -0.414451D-02
     12  0.729103D-04  0.173420D-02  0.797742D-02 -0.473987D-01 -0.108788D-01
     13 -0.245984D-02 -0.886751D-02  0.276831D-01 -0.137540D+00 -0.705903D-01
     14 -0.901547D-02 -0.177647D-01  0.220548D-01 -0.966500D-01 -0.146192D+00
     15  0.175775D-01  0.261789D-01 -0.363418D-01  0.570899D-01  0.832123D-01
     16 -0.746506D-01  0.763860D-01  0.230107D-01 -0.177185D-02 -0.427228D-03
     17  0.763239D-01 -0.259852D+00 -0.620721D-01  0.630607D-03 -0.188734D-02
     18  0.228345D-01 -0.633545D-01 -0.626704D-01  0.114300D-01 -0.235745D-01
     19 -0.170998D+00  0.149913D-01 -0.305298D-01 -0.272498D-02  0.218705D-02
     20  0.170362D-01 -0.827989D-01  0.533504D-02 -0.498838D-03 -0.154108D-02
     21 -0.312736D-01  0.382783D-02 -0.831892D-01 -0.282050D-01  0.603712D-02
     22 -0.116716D+00 -0.413369D-01  0.201671D-01 -0.657295D-03 -0.384914D-02
     23 -0.445328D-01 -0.132030D+00  0.258365D-01  0.127120D-02 -0.309473D-02
     24  0.230358D-01  0.251955D-01 -0.830807D-01  0.238141D-01  0.160406D-01
     25  0.679427D-03  0.390372D-02  0.264945D-02 -0.260006D-01  0.582453D-01
     26  0.206927D-02 -0.556797D-02 -0.300689D-03  0.698914D-01 -0.171117D+00
     27  0.580628D-02 -0.252179D-01 -0.271580D-01  0.168556D-01 -0.547685D-01
     28  0.149208D-02  0.623931D-03  0.624315D-03 -0.269416D-02 -0.943652D-02
     29 -0.172717D-02 -0.290439D-03  0.569797D-03 -0.423182D-03  0.412593D-03
     30  0.489666D-03  0.491629D-03 -0.135886D-02  0.828728D-03  0.455616D-02
     31 -0.220335D-02  0.791102D-03  0.206066D-01 -0.333199D-02 -0.127870D-02
     32 -0.121092D-02 -0.607716D-03  0.231836D-01 -0.326584D-02 -0.786476D-03
     33  0.413574D-03 -0.128657D-03 -0.128994D-01  0.509519D-03  0.139504D-02
     34 -0.177956D-01  0.391812D-02 -0.644703D-02 -0.952258D-03  0.661271D-03
     35 -0.226437D-01  0.425031D-02 -0.972577D-02  0.480488D-03  0.922276D-03
     36  0.132647D-01 -0.310895D-02  0.351738D-02  0.467531D-03 -0.933109D-03
     37  0.553608D-02 -0.202786D-01 -0.626264D-02  0.127887D-02  0.557347D-03
     38  0.659171D-02 -0.236297D-01 -0.665732D-02  0.738553D-03  0.366754D-03
     39 -0.375112D-02  0.128214D-01  0.187540D-02 -0.122224D-02  0.452752D-03
     40 -0.194533D-02 -0.309321D-02 -0.312311D-01 -0.502387D-02  0.722509D-03
     41 -0.104417D-03 -0.113202D-02  0.458270D-02  0.341768D-03 -0.164212D-03
     42 -0.923684D-04 -0.595232D-03 -0.116079D-01 -0.161100D-02  0.724325D-03
     43 -0.119819D-01  0.295690D-01  0.885461D-02  0.485308D-03  0.557286D-03
     44  0.175244D-02 -0.452888D-02 -0.842110D-03  0.462615D-03  0.250782D-03
     45 -0.414639D-02  0.116106D-01  0.184870D-02 -0.277254D-03  0.942262D-03
     46 -0.180807D-01 -0.224467D-01  0.127424D-01  0.101265D-03 -0.213763D-04
     47  0.375219D-02  0.390009D-02 -0.328558D-02 -0.103778D-02 -0.369976D-03
     48 -0.748812D-02 -0.979779D-02  0.390555D-02 -0.393734D-03  0.172103D-03
                6             7             8             9            10
      6  0.348141D+00
      7  0.286971D-01  0.292628D+00
      8  0.150278D-01  0.235768D-01  0.118860D+00
      9 -0.604249D-01 -0.824546D-02 -0.137853D+00  0.285601D+00
     10 -0.405615D-01 -0.645873D-01 -0.449742D-01  0.302405D-01  0.354945D+00
     11  0.206596D-01  0.222204D-03 -0.531288D-01  0.904921D-01  0.231523D+00
     12 -0.436836D-01 -0.359759D-01  0.649615D-01 -0.174066D+00  0.707459D-01
     13  0.398025D-01 -0.729362D-01 -0.480479D-01 -0.910189D-02 -0.113549D-01
     14  0.836858D-01 -0.284987D-01 -0.569382D-02 -0.102335D-01 -0.173622D-03
     15 -0.905453D-01  0.371819D-02  0.470420D-02  0.129398D-02 -0.157516D-01
     16  0.581197D-03  0.581686D-03 -0.785944D-03  0.155727D-03  0.162326D-03
     17 -0.169451D-02 -0.148159D-03  0.826497D-03  0.738492D-03 -0.156914D-03
     18 -0.222481D-01  0.243266D-02 -0.402138D-03  0.299117D-02 -0.490775D-03
     19 -0.821436D-02 -0.252927D-03 -0.178596D-03  0.589511D-03  0.817547D-03
     20 -0.101518D-02  0.568335D-03  0.696913D-03  0.866683D-03 -0.253874D-03
     21 -0.218958D-01  0.149224D-02  0.632326D-03 -0.590367D-02 -0.297776D-02
     22  0.383856D-02  0.598131D-03  0.105064D-02  0.149829D-02 -0.717578D-03
     23  0.106476D-02 -0.216549D-03 -0.494509D-03  0.180872D-02 -0.448147D-04
     24 -0.267979D-01 -0.178138D-02  0.299019D-02  0.172226D-02  0.153241D-02
     25  0.118639D-01 -0.398186D-01  0.226157D-01 -0.104937D-01 -0.226955D-03
     26 -0.686414D-01  0.116441D-01 -0.421834D-02 -0.361218D-02 -0.270301D-02
     27 -0.308315D-01 -0.781639D-02  0.864538D-02 -0.467564D-03 -0.703629D-03
     28 -0.107303D-01 -0.911927D-03  0.937656D-02  0.134008D-01 -0.267959D+00
     29  0.326083D-02 -0.106934D-01 -0.131119D-01  0.117492D-01 -0.208812D+00
     30 -0.226935D-03  0.304317D-01  0.385508D-01 -0.214091D-01 -0.438744D-01
     31  0.233246D-02 -0.404034D-04 -0.724776D-04 -0.146478D-02  0.362935D-03
     32  0.349388D-02  0.150940D-03 -0.278569D-03 -0.138566D-02 -0.255552D-03
     33  0.202537D-02 -0.484578D-04 -0.761639D-05 -0.248414D-03  0.196832D-03
     34 -0.524245D-03 -0.255894D-03  0.247675D-05 -0.128512D-02  0.976488D-03
     35 -0.239325D-03 -0.266101D-03 -0.386937D-03  0.891991D-03  0.161571D-03
     36  0.105899D-02  0.266389D-03  0.114843D-02 -0.209528D-02 -0.234668D-03
     37 -0.101249D-02 -0.297083D-03 -0.189566D-03 -0.126022D-03  0.734634D-04
     38 -0.512708D-03 -0.849475D-04  0.465914D-04 -0.157597D-03 -0.119083D-03
     39  0.176045D-02  0.955683D-04  0.216809D-03  0.134157D-03  0.525595D-04
     40 -0.198101D-02  0.733067D-03  0.103561D-03 -0.151927D-02 -0.832625D-03
     41  0.908561D-03 -0.185491D-03  0.121725D-03 -0.819533D-04  0.160087D-03
     42  0.155104D-02  0.634353D-04  0.295439D-03 -0.478689D-03 -0.279271D-03
     43  0.110298D-02  0.221937D-03 -0.488913D-03  0.396818D-05  0.104560D-03
     44 -0.497635D-04 -0.448805D-03  0.167306D-03 -0.360859D-03 -0.973647D-04
     45  0.133231D-02 -0.894467D-04 -0.212217D-03 -0.215481D-03  0.152467D-03
     46  0.475953D-03  0.449385D-03 -0.270031D-03 -0.766809D-03 -0.290608D-04
     47  0.438413D-03  0.233967D-03 -0.102915D-04 -0.132190D-03  0.902632D-04
     48  0.734794D-03  0.562210D-03 -0.994828D-04 -0.592802D-03 -0.562409D-04
               11            12            13            14            15
     11  0.240916D+00
     12 -0.771328D-01  0.253909D+00
     13 -0.809895D-02  0.182735D-01  0.221627D+00
     14  0.372271D-02  0.105650D-01  0.153427D+00  0.218818D+00
     15 -0.979355D-02  0.514535D-02 -0.768460D-01 -0.113888D+00  0.124426D+00
     16  0.343761D-03 -0.397987D-03  0.680473D-03  0.190418D-03 -0.175341D-03
     17  0.241313D-03 -0.378254D-03 -0.414309D-03  0.131094D-02  0.758794D-03
     18  0.124888D-02 -0.109122D-02 -0.362745D-02 -0.336009D-02  0.349869D-02
     19 -0.647785D-03  0.161822D-02 -0.825290D-03 -0.123334D-02 -0.319016D-03
     20  0.506069D-03 -0.704238D-03 -0.497438D-03  0.459787D-03  0.104599D-03
     21  0.109284D-02 -0.161522D-02 -0.435023D-02 -0.163953D-02  0.105758D-02
     22 -0.234180D-03 -0.121156D-02  0.488149D-03  0.101790D-02  0.235746D-03
     23  0.474303D-03 -0.961321D-03 -0.102472D-02  0.167011D-02  0.251126D-03
     24  0.644259D-03 -0.155872D-02 -0.146718D-02  0.385450D-02 -0.356669D-02
     25 -0.197287D-02  0.105010D-01 -0.336980D-02 -0.199952D-01  0.392840D-02
     26  0.281891D-03  0.218393D-02 -0.191134D-01 -0.517315D-01  0.976780D-02
     27 -0.162023D-02  0.170836D-02  0.414251D-02  0.126490D-01 -0.318637D-02
     28 -0.224792D+00 -0.169623D-01  0.476236D-02  0.200438D-02  0.805132D-02
     29 -0.188448D+00  0.842572D-02  0.640089D-03 -0.466144D-02 -0.290356D-02
     30 -0.193015D-01 -0.464912D-01  0.583293D-02 -0.417973D-02  0.973381D-03
     31  0.482847D-04  0.709319D-03  0.349493D-03 -0.987329D-03  0.722797D-03
     32 -0.253192D-03  0.920949D-03  0.370217D-03 -0.775102D-03  0.298853D-03
     33  0.178807D-03  0.204094D-04  0.367634D-03  0.576674D-03 -0.100526D-02
     34  0.380077D-03  0.345140D-03  0.338770D-03 -0.200599D-04 -0.100876D-04
     35 -0.280294D-03  0.146131D-03  0.114101D-03 -0.134090D-05 -0.874288D-04
     36 -0.833428D-05 -0.443361D-03 -0.294976D-03 -0.744699D-04  0.578804D-04
     37 -0.666909D-04 -0.354251D-04 -0.316969D-03  0.295063D-04 -0.736558D-04
     38 -0.178220D-04  0.416598D-03 -0.478992D-04  0.531489D-03 -0.219133D-03
     39 -0.132354D-03 -0.262323D-03  0.328137D-03  0.153335D-04 -0.274801D-04
     40  0.518889D-03 -0.795708D-03 -0.881874D-05 -0.406787D-03  0.101871D-02
     41  0.488164D-05  0.283451D-03  0.898568D-03  0.219315D-03  0.284983D-03
     42  0.144083D-04 -0.345849D-03 -0.404153D-03 -0.797951D-04 -0.195557D-03
     43 -0.727219D-04 -0.109044D-03 -0.403397D-04  0.579005D-04  0.148502D-04
     44 -0.955458D-04  0.417908D-03 -0.186423D-03  0.110276D-03  0.337441D-03
     45 -0.100130D-03  0.201219D-03  0.272530D-03 -0.349435D-04 -0.276454D-03
     46  0.734232D-04  0.620803D-03  0.606019D-03  0.253722D-03  0.818198D-03
     47  0.635220D-04  0.000000D+00  0.143930D-02 -0.230971D-04  0.992207D-03
     48 -0.792088D-04  0.596413D-03 -0.611048D-03  0.884340D-04 -0.130784D-02
               16            17            18            19            20
     16  0.851044D-01
     17 -0.812071D-01  0.281530D+00
     18 -0.241817D-01  0.656133D-01  0.747869D-01
     19 -0.123437D-01  0.156275D-02 -0.449385D-02  0.480126D+00
     20  0.282724D-01 -0.252991D-02  0.111656D-01  0.196461D-01  0.568379D+00
     21  0.776886D-02 -0.538773D-03  0.335095D-02 -0.378554D-01 -0.162731D-02
     22  0.619180D-02  0.581263D-02 -0.352379D-02 -0.274440D-01 -0.249243D-01
     23 -0.204411D-01 -0.214580D-01  0.119975D-01 -0.106305D-02  0.292751D-02
     24 -0.568603D-02 -0.564688D-02  0.335336D-02 -0.569964D-02 -0.850901D-02
     25  0.399386D-03 -0.702576D-05  0.343551D-03  0.845591D-03 -0.774557D-03
     26  0.633498D-04  0.245206D-03 -0.104564D-02  0.246107D-03  0.351199D-03
     27 -0.404940D-04  0.151525D-03 -0.360455D-02  0.619771D-03 -0.511291D-03
     28 -0.251295D-03 -0.765413D-04  0.511593D-04  0.176546D-03 -0.886573D-04
     29  0.532847D-04 -0.607359D-04 -0.235726D-03  0.168459D-03 -0.424969D-04
     30 -0.108864D-03 -0.103149D-03  0.384994D-04 -0.221879D-03 -0.180929D-04
     31  0.666901D-03  0.377710D-03 -0.507669D-03  0.955423D-03  0.697135D-03
     32  0.820763D-03  0.645908D-03 -0.142722D-03  0.909560D-03  0.709366D-03
     33 -0.125166D-03  0.451571D-03  0.495548D-03 -0.960836D-03 -0.673195D-03
     34  0.744357D-03 -0.187151D-03 -0.627383D-04 -0.125922D-02 -0.382236D-02
     35  0.434024D-03  0.742886D-03 -0.608610D-03 -0.223074D-02 -0.352518D-02
     36 -0.633139D-03 -0.319929D-03  0.207429D-03  0.118454D-02  0.196214D-02
     37 -0.226917D-02 -0.320872D-02  0.155672D-02  0.185172D-02 -0.778312D-03
     38 -0.352906D-02 -0.183281D-02  0.225844D-02  0.140433D-02  0.872504D-03
     39  0.169273D-02  0.209797D-02  0.564910D-04 -0.450887D-03 -0.412099D-03
     40  0.132990D-02  0.144938D-03  0.474875D-03 -0.457009D-01 -0.469893D-03
     41 -0.339391D-03  0.113022D-03  0.254541D-03 -0.451161D-03 -0.477907D-01
     42 -0.165328D-03  0.418595D-03  0.521390D-03 -0.220421D-02 -0.198361D-01
     43 -0.548104D-02  0.197093D-03 -0.263342D-02 -0.772582D-01  0.773399D-01
     44  0.495506D-03  0.134680D-02  0.672310D-03  0.786503D-01 -0.258223D+00
     45 -0.236204D-02  0.410883D-03  0.110120D-03  0.220837D-01 -0.589592D-01
     46  0.906449D-03  0.356270D-03  0.397840D-03 -0.145965D+00 -0.111452D+00
     47 -0.329570D-03  0.618655D-03 -0.486598D-03 -0.113961D+00 -0.178451D+00
     48  0.666870D-03  0.112500D-03  0.203697D-03  0.648542D-01  0.728317D-01
               21            22            23            24            25
     21  0.557983D+00
     22  0.114591D-01  0.538504D+00
     23 -0.227599D-02 -0.479570D-01  0.511062D+00
     24  0.573335D-02  0.318131D-01  0.268892D-01  0.551079D+00
     25 -0.127764D-02  0.424447D-04  0.393107D-03 -0.348201D-03  0.651852D-01
     26  0.416978D-03 -0.176552D-03  0.948734D-03  0.146171D-02 -0.628402D-01
     27  0.205145D-02 -0.718667D-04 -0.440902D-03  0.394754D-02 -0.185529D-01
     28  0.281254D-03 -0.390562D-03 -0.200929D-03 -0.442710D-03  0.304543D-02
     29 -0.728541D-03 -0.802152D-04  0.243604D-04  0.132137D-03  0.765967D-03
     30  0.374197D-03  0.373941D-03  0.174191D-03  0.971669D-04  0.117951D-02
     31  0.732279D-03 -0.459099D-01  0.582879D-03 -0.221765D-03  0.142289D-04
     32 -0.330617D-05  0.710181D-03 -0.464353D-01 -0.128850D-01 -0.597650D-04
     33  0.497833D-03  0.515803D-03 -0.130820D-01 -0.306543D+00 -0.111502D-03
[...]
    X6        0.74414   0.00001   0.00000   0.00094   0.00052   0.74466
    Y6       -1.99226   0.00000   0.00000   0.00016   0.00009  -1.99217
    Z6       -0.41003   0.00001   0.00000   0.00046   0.00042  -0.40961
    X7       -2.63740   0.00001   0.00000   0.00011  -0.00001  -2.63741
    Y7        0.24682   0.00000   0.00000  -0.00111  -0.00071   0.24610
    Z7       -0.81982  -0.00001   0.00000  -0.00012  -0.00007  -0.81989
    X8        1.88321   0.00000   0.00000  -0.00035  -0.00025   1.88296
    Y8        1.89073  -0.00001   0.00000   0.00044   0.00021   1.89094
    Z8       -0.89431   0.00000   0.00000  -0.00007  -0.00014  -0.89445
    X9       -0.59020   0.00001   0.00000   0.00262   0.00283  -0.58737
    Y9        1.76223   0.00000   0.00000   0.00156   0.00167   1.76389
    Z9        3.73875   0.00000   0.00000  -0.00036  -0.00036   3.73839
   X10        1.42381   0.00000   0.00000  -0.00081  -0.00111   1.42270
   Y10       -2.48115   0.00000   0.00000   0.00030   0.00013  -2.48102
   Z10        6.35010   0.00000   0.00000   0.00071   0.00066   6.35076
   X11        1.90178   0.00000   0.00000  -0.00058  -0.00055   1.90124
   Y11        1.81091   0.00001   0.00000   0.00100   0.00077   1.81168
   Z11       -2.95901   0.00000   0.00000  -0.00009  -0.00016  -2.95917
   X12        3.80668   0.00000   0.00000  -0.00023  -0.00015   3.80653
   Y12        1.60020  -0.00001   0.00000   0.00047  -0.00003   1.60017
   Z12       -0.21785   0.00000   0.00000  -0.00034  -0.00046  -0.21831
   X13        1.28208   0.00000   0.00000  -0.00046  -0.00008   1.28200
   Y13        3.79126   0.00000   0.00000   0.00024   0.00009   3.79135
   Z13       -0.34219   0.00001   0.00000   0.00057   0.00052  -0.34167
   X14       -2.67810   0.00000   0.00000   0.00085   0.00065  -2.67745
   Y14        0.09927   0.00001   0.00000   0.00242   0.00282   0.10209
   Z14       -2.87977   0.00000   0.00000  -0.00038  -0.00033  -2.88010
   X15       -3.36488   0.00000   0.00000  -0.00198  -0.00184  -3.36672
   Y15        2.11511   0.00000   0.00000  -0.00274  -0.00224   2.11287
   Z15       -0.31039   0.00001   0.00000   0.00288   0.00296  -0.30743
   X16       -3.90758   0.00000   0.00000   0.00131   0.00101  -3.90657
   Y16       -1.17386   0.00000   0.00000  -0.00368  -0.00312  -1.17698
   Z16       -0.03717  -0.00001   0.00000  -0.00288  -0.00279  -0.03996
         Item               Value     Threshold  Converged?
 Maximum Force            0.000015     0.000450     YES
 RMS     Force            0.000006     0.000300     YES
 Maximum Displacement     0.003117     0.001800     NO 
 RMS     Displacement     0.001270     0.001200     NO 
 Predicted change in Energy=-9.338190D-08
 GradGradGradGradGradGradGradGradGradGradGradGradGradGradGradGradGradGrad


 Test job not archived.
 1\1\GINC-NODE39\Freq\UB3LYP\CBSB7\C4H9O3(2)\GOLDMANM\16-Aug-2019\0\\# 
 freq nosymm b3lyp/cbsb7 iop(7/33=1)\\NBO NRT\\0,2\C,0.03574,-0.06086,0
 .07002\C,0.04629,-0.07373,1.64079\O,1.42951,-0.14991,2.04499\O,1.50658
 ,-0.68847,3.36596\O,-0.73692,-0.96439,2.19306\H,0.39378,-1.05426,-0.21
 698\C,-1.39565,0.13061,-0.43383\C,0.99655,1.00053,-0.47325\H,-0.31232,
 0.93253,1.97846\H,0.75345,-1.31297,3.36033\H,1.00638,0.95829,-1.56584\
 H,2.01441,0.84679,-0.11528\H,0.67845,2.00625,-0.18108\H,-1.41719,0.052
 53,-1.52391\H,-1.78062,1.11927,-0.16425\H,-2.0678,-0.62118,-0.01967\\V
 ersion=AM64L-G03RevD.01\HF=-383.4680277\S2=0.754844\S2-1=0.\S2A=0.7500
 15\RMSD=5.753e-09\RMSF=6.188e-06\ZeroPoint=0.129352\Thermal=0.1371686\
 Dipole=-0.4873743,0.2556854,-0.7871587\DipoleDeriv=0.2624578,0.0214321
 ,0.112726,0.0667156,0.1768517,-0.0622773,0.0340732,-0.1689014,0.59102,
 0.2447331,-0.2159273,0.0568979,-0.5325856,0.0909059,-0.000025,0.009510
 6,0.1836224,-0.1492837,-0.462538,0.0119597,-0.1206336,0.147386,-0.1566
 995,-0.0303674,0.5153577,0.0672654,0.1253148,-0.107266,0.1157622,0.116
 6294,0.2225634,-0.2541376,0.1831102,-0.6144453,-0.0177946,-0.6010577,-
 0.2455966,0.1360392,-0.1373361,0.0284791,-0.2291923,0.0183493,0.122938
 3,0.0104807,-0.2602316,-0.0257111,0.0340586,0.008805,0.0332615,-0.1103
 021,-0.0208275,-0.0042343,0.0236755,-0.0518328,-0.012196,-0.0422096,0.
 0239467,-0.0621822,0.0908387,0.0131171,-0.0270646,0.0569542,-0.0247283
 ,-0.0470217,-0.0522111,-0.040306,-0.0467499,0.0976946,-0.0206892,-0.03
 33132,0.0653406,-0.081862,0.2461649,0.0563111,0.0540693,0.1375015,0.06
 07537,-0.0497946,0.0187292,-0.0601603,0.196692,0.0359516,-0.1350608,-0
 .074488,-0.0684312,0.2969539,-0.0513978,-0.0640639,-0.0656009,0.285187
 1,0.0888138,-0.0180314,0.0098503,-0.0102553,0.0391636,0.0348121,0.0149
 701,0.0127656,-0.1510938,-0.0710029,0.0013438,-0.039884,0.0244658,0.05
 85768,0.0073051,-0.0687644,-0.0017075,0.0879587,0.0310149,0.08375,0.03
 58163,0.0272838,-0.114882,-0.0187748,0.0329904,-0.0739357,0.0453536,0.
 0448501,0.0241353,-0.0187717,0.0182705,0.0770408,-0.0032461,-0.0347972
 ,-0.0103406,-0.1477257,0.0234203,0.0294025,-0.0131029,0.0945502,-0.113
 2283,-0.0347552,0.0238371,-0.0757945,0.0533061,-0.0060742,-0.0507541,0
 .0257813,-0.0802731,-0.0103378,0.035461,0.0742765,0.054131,0.0829832\P
 olar=69.904287,3.3182216,53.9785992,9.9154491,-9.0144158,73.1420034\PG
 =C01 [X(C4H9O3)]\NImag=1\\0.48200937,-0.03798471,0.56046471,-0.0120340
 8,0.02736934,0.38497130,-0.05965251,-0.00227766,-0.01804026,0.35309709
 ,0.00899577,-0.03769902,-0.02128684,-0.01002238,0.40556808,0.01517347,
 -0.01045043,-0.05994951,-0.04084421,-0.04593631,0.34814061,-0.00424761
 ,0.00693751,-0.01380245,-0.11186424,-0.00279172,0.02869707,0.29262795,
 0.00092280,-0.00287148,0.00140145,0.03735909,-0.04052435,0.01502780,0.
 02357684,0.11885994,-0.03988275,0.00342421,-0.02583994,0.02699697,0.04
 384537,-0.06042493,-0.00824546,-0.13785282,0.28560062,-0.00898577,-0.0
 0083539,0.00200915,-0.00274854,0.02649079,-0.04056146,-0.06458727,-0.0
 4497422,0.03024055,0.35494472,-0.00022505,0.00015754,-0.00616278,0.002
 99996,-0.00414451,0.02065957,0.00022220,-0.05312876,0.09049212,0.23152
 349,0.24091566,0.00007291,0.00173420,0.00797742,-0.04739871,-0.0108787
 7,-0.04368358,-0.03597590,0.06496149,-0.17406635,0.07074587,-0.0771328
 1,0.25390867,-0.00245984,-0.00886751,0.02768312,-0.13754026,-0.0705903
 2,0.03980255,-0.07293625,-0.04804794,-0.00910189,-0.01135488,-0.008098
 95,0.01827346,0.22162718,-0.00901547,-0.01776467,0.02205479,-0.0966500
 0,-0.14619177,0.08368584,-0.02849870,-0.00569382,-0.01023354,-0.000173
 62,0.00372271,0.01056502,0.15342667,0.21881813,0.01757750,0.02617888,-
 0.03634183,0.05708993,0.08321230,-0.09054527,0.00371819,0.00470420,0.0
 0129398,-0.01575160,-0.00979355,0.00514535,-0.07684595,-0.11388751,0.1
 2442589,-0.07465062,0.07638596,0.02301068,-0.00177185,-0.00042723,0.00
 058120,0.00058169,-0.00078594,0.00015573,0.00016233,0.00034376,-0.0003
 9799,0.00068047,0.00019042,-0.00017534,0.08510436,0.07632390,-0.259852
 09,-0.06207212,0.00063061,-0.00188734,-0.00169451,-0.00014816,0.000826
 50,0.00073849,-0.00015691,0.00024131,-0.00037825,-0.00041431,0.0013109
 4,0.00075879,-0.08120709,0.28152969,0.02283453,-0.06335451,-0.06267036
 ,0.01143002,-0.02357446,-0.02224813,0.00243266,-0.00040214,0.00299117,
 -0.00049077,0.00124888,-0.00109122,-0.00362745,-0.00336009,0.00349869,
 -0.02418167,0.06561328,0.07478692,-0.17099828,0.01499134,-0.03052982,-
 0.00272498,0.00218705,-0.00821436,-0.00025293,-0.00017860,0.00058951,0
 .00081755,-0.00064778,0.00161822,-0.00082529,-0.00123334,-0.00031902,-
 0.01234367,0.00156275,-0.00449385,0.48012557,0.01703623,-0.08279893,0.
 00533504,-0.00049884,-0.00154108,-0.00101518,0.00056833,0.00069691,0.0
 0086668,-0.00025387,0.00050607,-0.00070424,-0.00049744,0.00045979,0.00
 010460,0.02827236,-0.00252991,0.01116558,0.01964607,0.56837913,-0.0312
 7356,0.00382783,-0.08318923,-0.02820498,0.00603712,-0.02189583,0.00149
 224,0.00063233,-0.00590367,-0.00297776,0.00109284,-0.00161522,-0.00435
 023,-0.00163953,0.00105758,0.00776886,-0.00053877,0.00335095,-0.037855
 42,-0.00162731,0.55798335,-0.11671550,-0.04133690,0.02016706,-0.000657
 29,-0.00384914,0.00383856,0.00059813,0.00105064,0.00149829,-0.00071758
 ,-0.00023418,-0.00121156,0.00048815,0.00101790,0.00023575,0.00619180,0
 .00581263,-0.00352379,-0.02744402,-0.02492432,0.01145913,0.53850410,-0
 .04453285,-0.13202975,0.02583652,0.00127120,-0.00309473,0.00106476,-0.
 00021655,-0.00049451,0.00180872,-0.00004481,0.00047430,-0.00096132,-0.
 00102472,0.00167011,0.00025113,-0.02044115,-0.02145803,0.01199746,-0.0
 0106305,0.00292751,-0.00227599,-0.04795699,0.51106154,0.02303577,0.025
 19546,-0.08308071,0.02381405,0.01604061,-0.02679790,-0.00178138,0.0029
 9019,0.00172226,0.00153241,0.00064426,-0.00155872,-0.00146718,0.003854
 50,-0.00356669,-0.00568603,-0.00564688,0.00335336,-0.00569964,-0.00850
 901,0.00573335,0.03181313,0.02688919,0.55107941,0.00067943,0.00390372,
 0.00264945,-0.02600058,0.05824535,0.01186387,-0.03981856,0.02261572,-0
 .01049372,-0.00022695,-0.00197287,0.01050096,-0.00336980,-0.01999518,0
 .00392840,0.00039939,-0.00000703,0.00034355,0.00084559,-0.00077456,-0.
 00127764,0.00004244,0.00039311,-0.00034820,0.06518519,0.00206927,-0.00
 556797,-0.00030069,0.06989140,-0.17111704,-0.06864144,0.01164406,-0.00
 421834,-0.00361218,-0.00270301,0.00028189,0.00218393,-0.01911343,-0.05
 173152,0.00976780,0.00006335,0.00024521,-0.00104564,0.00024611,0.00035
 120,0.00041698,-0.00017655,0.00094873,0.00146171,-0.06284016,0.2307329
 5,0.00580628,-0.02521793,-0.02715800,0.01685564,-0.05476854,-0.0308314
 8,-0.00781639,0.00864538,-0.00046756,-0.00070363,-0.00162023,0.0017083
 6,0.00414251,0.01264903,-0.00318637,-0.00004049,0.00015153,-0.00360455
 ,0.00061977,-0.00051129,0.00205145,-0.00007187,-0.00044090,0.00394754,
 -0.01855290,0.05980590,0.05765037,0.00149208,0.00062393,0.00062432,-0.
 00269416,-0.00943652,-0.01073033,-0.00091193,0.00937656,0.01340081,-0.
 26795936,-0.22479185,-0.01696235,0.00476236,0.00200438,0.00805132,-0.0
 0025129,-0.00007654,0.00005116,0.00017655,-0.00008866,0.00028125,-0.00
 039056,-0.00020093,-0.00044271,0.00304543,0.00185995,0.00032844,0.2623
 6181,-0.00172717,-0.00029044,0.00056980,-0.00042318,0.00041259,0.00326
 083,-0.01069338,-0.01311190,0.01174922,-0.20881236,-0.18844775,0.00842
 572,0.00064009,-0.00466144,-0.00290356,0.00005328,-0.00006074,-0.00023
 573,0.00016846,-0.00004250,-0.00072854,-0.00008022,0.00002436,0.000132
 14,0.00076597,-0.00033453,0.00020655,0.22020604,0.20649171,0.00048967,
 0.00049163,-0.00135886,0.00082873,0.00455616,-0.00022694,0.03043173,0.
 03855077,-0.02140907,-0.04387444,-0.01930150,-0.04649122,0.00583293,-0
 .00417973,0.00097338,-0.00010886,-0.00010315,0.00003850,-0.00022188,-0
 .00001809,0.00037420,0.00037394,0.00017419,0.00009717,0.00117951,0.000
 55982,-0.00013404,0.00550283,-0.02045935,0.06813275,-0.00220335,0.0007
 9110,0.02060657,-0.00333199,-0.00127870,0.00233246,-0.00004040,-0.0000
 7248,-0.00146478,0.00036294,0.00004828,0.00070932,0.00034949,-0.000987
 33,0.00072280,0.00066690,0.00037771,-0.00050767,0.00095542,0.00069713,
 0.00073228,-0.04590990,0.00058288,-0.00022176,0.00001423,-0.00021819,-
 0.00075336,0.00014761,-0.00000866,-0.00024357,0.04792280,-0.00121092,-
 0.00060772,0.02318359,-0.00326584,-0.00078648,0.00349388,0.00015094,-0
 .00027857,-0.00138566,-0.00025555,-0.00025319,0.00092095,0.00037022,-0
 .00077510,0.00029885,0.00082076,0.00064591,-0.00014272,0.00090956,0.00
 070937,-0.00000331,0.00071018,-0.04643528,-0.01288503,-0.00005976,0.00
 009095,-0.00060843,0.00021699,0.00000404,-0.00009701,0.00265408,0.0489
 6143,0.00041357,-0.00012866,-0.01289938,0.00050952,0.00139504,0.002025
 37,-0.00004846,-0.00000762,-0.00024841,0.00019683,0.00017881,0.0000204
 1,0.00036763,0.00057667,-0.00100526,-0.00012517,0.00045157,0.00049555,
 -0.00096084,-0.00067319,0.00049783,0.00051580,-0.01308202,-0.30654297,
 -0.00011150,-0.00009055,0.00028439,0.00005276,-0.00004955,-0.00002280,
 -0.00133547,0.01252993,0.33385584,-0.01779555,0.00391812,-0.00644703,-
 0.00095226,0.00066127,-0.00052424,-0.00025589,0.00000248,-0.00128512,0
 .00097649,0.00038008,0.00034514,0.00033877,-0.00002006,-0.00001009,0.0
 0074436,-0.00018715,-0.00006274,-0.00125922,-0.00382236,0.00242112,-0.
 28048188,0.03718127,-0.08221405,-0.00021833,-0.00013124,-0.00004801,0.
 00010184,0.00002793,-0.00028485,0.00216659,-0.00030034,0.00025779,0.30
 477710,-0.02264372,0.00425031,-0.00972577,0.00048049,0.00092228,-0.000
 23933,-0.00026610,-0.00038694,0.00089199,0.00016157,-0.00028029,0.0001
 4613,0.00011410,-0.00000134,-0.00008743,0.00043402,0.00074289,-0.00060
 861,-0.00223074,-0.00352518,0.00249460,0.03971752,-0.05467745,0.013651
 53,-0.00010814,-0.00013559,0.00005932,0.00009876,-0.00000839,0.0000454
 7,-0.00244491,-0.00070146,-0.00079616,-0.03924294,0.05688619,0.0132647
 0,-0.00310895,0.00351738,0.00046753,-0.00093311,0.00105899,0.00026639,
 0.00114843,-0.00209528,-0.00023467,-0.00000833,-0.00044336,-0.00029498
 ,-0.00007447,0.00005788,-0.00063314,-0.00031993,0.00020743,0.00118454,
 0.00196214,-0.00090555,-0.08590104,0.01324571,-0.07715730,0.00015928,0
 .00006535,-0.00002824,-0.00012911,0.00005984,0.00004183,-0.03014139,0.
 00519573,-0.00956636,0.09118574,-0.01655648,0.08164247,0.00553608,-0.0
 2027856,-0.00626264,0.00127887,0.00055735,-0.00101249,-0.00029708,-0.0
 0018957,-0.00012602,0.00007346,-0.00006669,-0.00003543,-0.00031697,0.0
 0002951,-0.00007366,-0.00226917,-0.00320872,0.00155672,0.00185172,-0.0
 0077831,-0.00044215,-0.07155478,0.07190840,0.02149564,0.00004079,0.000
 28387,0.00015115,0.00007141,-0.00000404,0.00001551,-0.00086738,-0.0007
 6967,-0.00025813,-0.00763280,0.02751039,0.01004547,0.07436360,0.006591
 71,-0.02362967,-0.00665732,0.00073855,0.00036675,-0.00051271,-0.000084
 95,0.00004659,-0.00015760,-0.00011908,-0.00001782,0.00041660,-0.000047
 90,0.00053149,-0.00021913,-0.00352906,-0.00183281,0.00225844,0.0014043
 3,0.00087250,-0.00000797,0.07053119,-0.26034895,-0.06406961,-0.0002566
 9,0.00020026,0.00071461,0.00015017,-0.00002763,-0.00006979,0.00011763,
 -0.00058150,-0.00051140,0.00127701,-0.00365791,-0.00108896,-0.07565103
 ,0.28707975,-0.00375112,0.01282139,0.00187540,-0.00122224,0.00045275,0
 .00176045,0.00009557,0.00021681,0.00013416,0.00005256,-0.00013235,-0.0
 0026232,0.00032814,0.00001533,-0.00002748,0.00169273,0.00209797,0.0000
 5649,-0.00045089,-0.00041210,-0.00011870,0.02124022,-0.06516486,-0.066
 63477,0.00021848,-0.00023618,-0.00023366,-0.00010471,0.00001030,-0.000
 01988,0.01017284,-0.02997698,-0.00781458,-0.00269229,0.01080559,0.0027
 1654,-0.02534649,0.06977596,0.06846973,-0.00194533,-0.00309321,-0.0312
 3107,-0.00502387,0.00072251,-0.00198101,0.00073307,0.00010356,-0.00151
 927,-0.00083263,0.00051889,-0.00079571,-0.00000882,-0.00040679,0.00101
 871,0.00132990,0.00014494,0.00047487,-0.04570089,-0.00046989,-0.001088
 56,0.00161767,0.00024507,-0.00072726,-0.00037205,-0.00027216,0.0005673
 8,-0.00004074,-0.00020446,0.00012021,-0.00043925,-0.00025151,0.0005183
 8,0.00025070,0.00029416,0.00024059,-0.00010598,-0.00002511,0.00004981,
 0.05079674,-0.00010442,-0.00113202,0.00458270,0.00034177,-0.00016421,0
 .00090856,-0.00018549,0.00012172,-0.00008195,0.00016009,0.00000488,0.0
 0028345,0.00089857,0.00021932,0.00028498,-0.00033939,0.00011302,0.0002
 5454,-0.00045116,-0.04779067,-0.01981542,-0.00005748,-0.00001356,-0.00
 045929,-0.00008984,0.00016811,0.00027217,-0.00002327,0.00006788,-0.000
 06002,-0.00030149,0.00018863,0.00005307,0.00003885,-0.00011150,0.00014
 069,-0.00002254,-0.00000756,-0.00013924,-0.00066798,0.04732930,-0.0000
 9237,-0.00059523,-0.01160793,-0.00161100,0.00072433,0.00155104,0.00006
 344,0.00029544,-0.00047869,-0.00027927,0.00001441,-0.00034585,-0.00040
 415,-0.00007980,-0.00019556,-0.00016533,0.00041860,0.00052139,-0.00220
 421,-0.01983609,-0.30674304,0.00098326,0.00011513,0.00039285,0.0002385
 0,0.00004831,0.00021984,-0.00002381,-0.00014948,0.00011352,-0.00041858
 ,-0.00032113,0.00061000,-0.00006090,0.00008589,0.00036703,-0.00002181,
 0.00003499,-0.00001095,0.00385923,0.02108192,0.33375611,-0.01198186,0.
 02956899,0.00885461,0.00048531,0.00055729,0.00110298,0.00022194,-0.000
 48891,0.00000397,0.00010456,-0.00007272,-0.00010904,-0.00004034,0.0000
 5790,0.00001485,-0.00548104,0.00019709,-0.00263342,-0.07725824,0.07733
 993,0.02156891,0.00188765,0.00145582,0.00026102,0.00003663,-0.00032781
 ,-0.00060689,-0.00004483,0.00004212,0.00005390,-0.00007578,-0.00003669
 ,0.00002741,0.00036314,-0.00028333,-0.00025091,-0.00033508,-0.00102507
 ,-0.00012459,-0.00063767,-0.00076859,0.00028299,0.08513125,0.00175244,
 -0.00452888,-0.00084211,0.00046261,0.00025078,-0.00004976,-0.00044881,
 0.00016731,-0.00036086,-0.00009736,-0.00009555,0.00041791,-0.00018642,
 0.00011028,0.00033744,0.00049551,0.00134680,0.00067231,0.07865034,-0.2
 5822303,-0.05874188,-0.00075576,0.00101444,0.00041472,0.00029915,0.000
 22431,0.00053105,0.00017869,-0.00003747,-0.00005032,-0.00002968,-0.000
 06059,0.00003758,0.00001375,0.00022981,0.00009749,0.00040014,0.0005614
 8,-0.00022689,-0.00010377,-0.00157200,-0.00051203,-0.08855771,0.279867
 43,-0.00414639,0.01161055,0.00184870,-0.00027725,0.00094226,0.00133231
 ,-0.00008945,-0.00021222,-0.00021548,0.00015247,-0.00010013,0.00020122
 ,0.00027253,-0.00003494,-0.00027645,-0.00236204,0.00041088,0.00011012,
 0.02208372,-0.05895921,-0.06397807,0.00053628,-0.00004452,-0.00009653,
 -0.00022671,-0.00018553,-0.00013909,-0.00000930,0.00005536,-0.00002450
 ,0.00006242,-0.00015175,-0.00004295,0.00004513,0.00016324,-0.00010609,
 0.00020698,-0.00009433,0.00018175,0.01108469,-0.02998939,-0.00717969,-
 0.02194782,0.06498641,0.06521120,-0.01808073,-0.02244673,0.01274242,0.
 00010126,-0.00002138,0.00047595,0.00044938,-0.00027003,-0.00076681,-0.
 00002906,0.00007342,0.00062080,0.00060602,0.00025372,0.00081820,0.0009
 0645,0.00035627,0.00039784,-0.14596487,-0.11145181,0.06174650,-0.00545
 843,0.00244331,-0.00336380,-0.00028284,-0.00027546,0.00012236,0.000133
 78,0.00004957,-0.00009537,0.00028207,0.00031756,-0.00002013,-0.0011230
 5,-0.00159115,0.00077100,0.00016330,-0.00007170,-0.00015802,0.00037913
 ,0.00157237,-0.00014599,0.00762438,0.00792687,-0.00538523,0.16029319,0
 .00375219,0.00390009,-0.00328558,-0.00103778,-0.00036998,0.00043841,0.
 00023397,-0.00001029,-0.00013219,0.00009026,0.00006352,0.,0.00143930,-
 0.00002310,0.00099221,-0.00032957,0.00061865,-0.00048660,-0.11396135,-
 0.17845117,0.07087703,0.00053147,0.00043126,0.00029552,-0.00011878,-0.
 00013863,0.00013180,-0.00009771,0.00002220,-0.00003906,0.00007260,-0.0
 0012045,0.00011649,0.00020335,0.00045458,0.00017485,0.00027947,0.00044
 503,0.00009248,0.00346575,0.00257868,-0.00132525,-0.01765832,-0.019255
 11,0.01160331,0.12313517,0.18985471,-0.00748812,-0.00979779,0.00390555
 ,-0.00039373,0.00017210,0.00073479,0.00056221,-0.00009948,-0.00059280,
 -0.00005624,-0.00007921,0.00059641,-0.00061105,0.00008843,-0.00130784,
 0.00066687,0.00011250,0.00020370,0.06485417,0.07283167,-0.08669941,-0.
 00195317,0.00058681,-0.00089033,-0.00007132,-0.00019759,-0.00007896,0.
 00010943,0.00005644,-0.00008405,-0.00025209,-0.00005091,0.00035333,-0.
 00062561,-0.00032998,0.00069263,0.00010736,0.00018821,-0.00007217,0.01
 940901,0.02268324,-0.01097008,-0.00649796,-0.00671105,0.00317354,-0.06
 775973,-0.07945340,0.09103567\\0.00001521,-0.00000951,0.00000917,0.000
 00552,-0.00000458,0.00000371,0.00000315,0.00001195,-0.00000185,0.00000
 923,0.00000622,0.00000186,0.00000742,-0.00000476,0.00000232,-0.0000073
 7,0.00000119,-0.00001180,-0.00001365,0.00000384,0.00000532,0.00000052,
 0.00000790,0.00000247,-0.00000773,-0.00000066,-0.00000091,0.00000138,0
 .00000186,0.00000126,-0.00000362,-0.00000625,0.00000178,-0.00000185,0.
 00000703,-0.00000405,-0.00000337,-0.00000230,-0.00000903,-0.00000191,-
 0.00001062,-0.00000120,-0.00000031,-0.00000230,-0.00000604,-0.00000261
 ,0.00000098,0.00000698\\\@


 The mind is not a vessel to be filled but a fire to be kindled.
                                  -- Plutarch
 Job cpu time:  0 days  1 hours  8 minutes  0.2 seconds.
 File lengths (MBytes):  RWF=    125 Int=      0 D2E=      0 Chk=      8 Scr=      1
 Normal termination of Gaussian 03 at Fri Aug 16 17:11:28 2019.
