 Entering Gaussian System, Link 0=g03
 Input=p6_3.gjf
 Output=p6_3.log
 Initial command:
 /opt/g03/l1.exe /scratch/nyee/Gau-23554.inp -scrdir=/scratch/nyee/
 Entering Link 1 = /opt/g03/l1.exe PID=     23556.
  
 Copyright (c) 1988,1990,1992,1993,1995,1998,2003,2004, Gaussian, Inc.
                  All Rights Reserved.
  
 This is the Gaussian(R) 03 program.  It is based on the
 the Gaussian(R) 98 system (copyright 1998, Gaussian, Inc.),
 the Gaussian(R) 94 system (copyright 1995, Gaussian, Inc.),
 the Gaussian 92(TM) system (copyright 1992, Gaussian, Inc.),
 the Gaussian 90(TM) system (copyright 1990, Gaussian, Inc.),
 the Gaussian 88(TM) system (copyright 1988, Gaussian, Inc.),
 the Gaussian 86(TM) system (copyright 1986, Carnegie Mellon
 University), and the Gaussian 82(TM) system (copyright 1983,
 Carnegie Mellon University). Gaussian is a federally registered
 trademark of Gaussian, Inc.
  
 This software contains proprietary and confidential information,
 including trade secrets, belonging to Gaussian, Inc.
  
 This software is provided under written license and may be
 used, copied, transmitted, or stored only in accord with that
 written license.
  
 The following legend is applicable only to US Government
 contracts under FAR:
  
                    RESTRICTED RIGHTS LEGEND
  
 Use, reproduction and disclosure by the US Government is
 subject to restrictions as set forth in subparagraphs (a)
 and (c) of the Commercial Computer Software - Restricted
 Rights clause in FAR 52.227-19.
  
 Gaussian, Inc.
 340 Quinnipiac St., Bldg. 40, Wallingford CT 06492
  
  
 ---------------------------------------------------------------
 Warning -- This program may not be used in any manner that
 competes with the business of Gaussian, Inc. or will provide
 assistance to any competitor of Gaussian, Inc.  The licensee
 of this program is prohibited from giving any competitor of
 Gaussian, Inc. access to this program.  By using this program,
 the user acknowledges that Gaussian, Inc. is engaged in the
 business of creating and licensing software in the field of
 computational chemistry and represents and warrants to the
 licensee that it is not a competitor of Gaussian, Inc. and that
 it will not use this program in any manner prohibited above.
 ---------------------------------------------------------------
  

 Cite this work as:
 Gaussian 03, Revision D.01,
 M. J. Frisch, G. W. Trucks, H. B. Schlegel, G. E. Scuseria, 
 M. A. Robb, J. R. Cheeseman, J. A. Montgomery, Jr., T. Vreven, 
 K. N. Kudin, J. C. Burant, J. M. Millam, S. S. Iyengar, J. Tomasi, 
 V. Barone, B. Mennucci, M. Cossi, G. Scalmani, N. Rega, 
 G. A. Petersson, H. Nakatsuji, M. Hada, M. Ehara, K. Toyota, 
 R. Fukuda, J. Hasegawa, M. Ishida, T. Nakajima, Y. Honda, O. Kitao, 
 H. Nakai, M. Klene, X. Li, J. E. Knox, H. P. Hratchian, J. B. Cross, 
 V. Bakken, C. Adamo, J. Jaramillo, R. Gomperts, R. E. Stratmann, 
 O. Yazyev, A. J. Austin, R. Cammi, C. Pomelli, J. W. Ochterski, 
 P. Y. Ayala, K. Morokuma, G. A. Voth, P. Salvador, J. J. Dannenberg, 
 V. G. Zakrzewski, S. Dapprich, A. D. Daniels, M. C. Strain, 
 O. Farkas, D. K. Malick, A. D. Rabuck, K. Raghavachari, 
 J. B. Foresman, J. V. Ortiz, Q. Cui, A. G. Baboul, S. Clifford, 
 J. Cioslowski, B. B. Stefanov, G. Liu, A. Liashenko, P. Piskorz, 
 I. Komaromi, R. L. Martin, D. J. Fox, T. Keith, M. A. Al-Laham, 
 C. Y. Peng, A. Nanayakkara, M. Challacombe, P. M. W. Gill, 
 B. Johnson, W. Chen, M. W. Wong, C. Gonzalez, and J. A. Pople, 
 Gaussian, Inc., Wallingford CT, 2004.
 
 ******************************************
 Gaussian 03:  AM64L-G03RevD.01 13-Oct-2005
                11-Jul-2013 
 ******************************************
 %chk=p6_3.chk
 %mem=1000mb
 %nproc=8
 Will use up to    8 processors via shared memory.
 ------------------------------------
 # opt=(addred) b3lyp/6-31g(d) nosymm
 ------------------------------------
 1/14=-1,18=120,26=3,38=1/1,3;
 2/9=110,15=1,17=6,18=5,40=1/2;
 3/5=1,6=6,7=1,11=2,16=1,25=1,30=1,74=-5/1,2,3;
 4//1;
 5/5=2,38=5/2;
 6/7=2,8=2,9=2,10=2,28=1/1;
 7/30=1/1,2,3,16;
 1/14=-1,18=20/3(3);
 2/9=110,15=1/2;
 6/7=2,8=2,9=2,10=2,19=2,28=1/1;
 99//99;
 2/9=110,15=1/2;
 3/5=1,6=6,7=1,11=2,16=1,25=1,30=1,74=-5/1,2,3;
 4/5=5,16=3/1;
 5/5=2,38=5/2;
 7/30=1/1,2,3,16;
 1/14=-1,18=20/3(-5);
 2/9=110,15=1/2;
 6/7=2,8=2,9=2,10=2,19=2,28=1/1;
 99/9=1/99;
 -------------------
 Title Card Required
 -------------------
 Symbolic Z-matrix:
 Charge =  0 Multiplicity = 2
 C                    -3.22809   0.87799   0.58139 
 H                    -4.29915   0.91765   0.756 
 O                    -2.77877   1.90895  -0.19242 
 H                    -1.81395   1.78724  -0.28402 
 C                    -2.52192  -0.44766   0.55381 
 C                    -3.15609  -1.40709   1.5653 
 H                    -3.15446  -0.96304   2.56457 
 H                    -4.19039  -1.61985   1.27662 
 H                    -2.60374  -2.35107   1.5966 
 C                    -2.46329  -1.06658  -0.855 
 H                    -2.01817  -0.37019  -1.57183 
 H                    -1.88004  -1.99555  -0.84653 
 H                    -3.47392  -1.29593  -1.20782 
 O                    -1.1553   -0.32825   1.0794 
 O                    -0.39868   0.617     0.26553 
 H                     0.10469   0.00979  -0.30629 
 
 The following ModRedundant input section has been read:
 D    3    1    5   14 S  36 10.000                                            
 D    2    1    3    4 F                                                       

 GradGradGradGradGradGradGradGradGradGradGradGradGradGradGradGradGradGrad
 Berny optimization.
 Initialization pass.
                           ----------------------------
                           !    Initial Parameters    !
                           ! (Angstroms and Degrees)  !
 --------------------------                            --------------------------
 ! Name  Definition              Value          Derivative Info.                !
 --------------------------------------------------------------------------------
 ! R1    R(1,2)                  1.0859         estimate D2E/DX2                !
 ! R2    R(1,3)                  1.3651         estimate D2E/DX2                !
 ! R3    R(1,5)                  1.5023         estimate D2E/DX2                !
 ! R4    R(3,4)                  0.9768         estimate D2E/DX2                !
 ! R5    R(5,6)                  1.5316         estimate D2E/DX2                !
 ! R6    R(5,10)                 1.5399         estimate D2E/DX2                !
 ! R7    R(5,14)                 1.4691         estimate D2E/DX2                !
 ! R8    R(6,7)                  1.0935         estimate D2E/DX2                !
 ! R9    R(6,8)                  1.0947         estimate D2E/DX2                !
 ! R10   R(6,9)                  1.0942         estimate D2E/DX2                !
 ! R11   R(10,11)                1.094          estimate D2E/DX2                !
 ! R12   R(10,12)                1.0969         estimate D2E/DX2                !
 ! R13   R(10,13)                1.0947         estimate D2E/DX2                !
 ! R14   R(14,15)                1.4589         estimate D2E/DX2                !
 ! R15   R(15,16)                0.9742         estimate D2E/DX2                !
 ! A1    A(2,1,3)              112.8422         estimate D2E/DX2                !
 ! A2    A(2,1,5)              119.9221         estimate D2E/DX2                !
 ! A3    A(3,1,5)              120.0863         estimate D2E/DX2                !
 ! A4    A(1,3,4)              106.5093         estimate D2E/DX2                !
 ! A5    A(1,5,6)              110.2438         estimate D2E/DX2                !
 ! A6    A(1,5,10)             112.9154         estimate D2E/DX2                !
 ! A7    A(1,5,14)             111.0384         estimate D2E/DX2                !
 ! A8    A(6,5,10)             111.6041         estimate D2E/DX2                !
 ! A9    A(6,5,14)             101.5267         estimate D2E/DX2                !
 ! A10   A(10,5,14)            108.9393         estimate D2E/DX2                !
 ! A11   A(5,6,7)              110.3966         estimate D2E/DX2                !
 ! A12   A(5,6,8)              109.8043         estimate D2E/DX2                !
 ! A13   A(5,6,9)              110.5068         estimate D2E/DX2                !
 ! A14   A(7,6,8)              108.742          estimate D2E/DX2                !
 ! A15   A(7,6,9)              108.872          estimate D2E/DX2                !
 ! A16   A(8,6,9)              108.471          estimate D2E/DX2                !
 ! A17   A(5,10,11)            111.0447         estimate D2E/DX2                !
 ! A18   A(5,10,12)            110.706          estimate D2E/DX2                !
 ! A19   A(5,10,13)            110.1152         estimate D2E/DX2                !
 ! A20   A(11,10,12)           109.1349         estimate D2E/DX2                !
 ! A21   A(11,10,13)           107.3247         estimate D2E/DX2                !
 ! A22   A(12,10,13)           108.4162         estimate D2E/DX2                !
 ! A23   A(5,14,15)            109.6053         estimate D2E/DX2                !
 ! A24   A(14,15,16)           101.0447         estimate D2E/DX2                !
 ! D1    D(2,1,3,4)            179.5887         Frozen                          !
 ! D2    D(5,1,3,4)            -30.0            estimate D2E/DX2                !
 ! D3    D(2,1,5,6)            -35.2216         estimate D2E/DX2                !
 ! D4    D(2,1,5,10)            90.3669         estimate D2E/DX2                !
 ! D5    D(2,1,5,14)          -146.9399         estimate D2E/DX2                !
 ! D6    D(3,1,5,6)            176.4488         estimate D2E/DX2                !
 ! D7    D(3,1,5,10)           -57.9627         estimate D2E/DX2                !
 ! D8    D(3,1,5,14)            64.7305         Scan                            !
 ! D9    D(1,5,6,7)            -55.7436         estimate D2E/DX2                !
 ! D10   D(1,5,6,8)             64.1405         estimate D2E/DX2                !
 ! D11   D(1,5,6,9)           -176.2418         estimate D2E/DX2                !
 ! D12   D(10,5,6,7)           177.928          estimate D2E/DX2                !
 ! D13   D(10,5,6,8)           -62.1879         estimate D2E/DX2                !
 ! D14   D(10,5,6,9)            57.4299         estimate D2E/DX2                !
 ! D15   D(14,5,6,7)            62.013          estimate D2E/DX2                !
 ! D16   D(14,5,6,8)          -178.1029         estimate D2E/DX2                !
 ! D17   D(14,5,6,9)           -58.4851         estimate D2E/DX2                !
 ! D18   D(1,5,10,11)           54.5791         estimate D2E/DX2                !
 ! D19   D(1,5,10,12)          175.9722         estimate D2E/DX2                !
 ! D20   D(1,5,10,13)          -64.1528         estimate D2E/DX2                !
 ! D21   D(6,5,10,11)          179.4308         estimate D2E/DX2                !
 ! D22   D(6,5,10,12)          -59.1761         estimate D2E/DX2                !
 ! D23   D(6,5,10,13)           60.6989         estimate D2E/DX2                !
 ! D24   D(14,5,10,11)         -69.2777         estimate D2E/DX2                !
 ! D25   D(14,5,10,12)          52.1154         estimate D2E/DX2                !
 ! D26   D(14,5,10,13)         171.9904         estimate D2E/DX2                !
 ! D27   D(1,5,14,15)          -60.1086         estimate D2E/DX2                !
 ! D28   D(6,5,14,15)         -177.2895         estimate D2E/DX2                !
 ! D29   D(10,5,14,15)          64.8541         estimate D2E/DX2                !
 ! D30   D(5,14,15,16)         -99.6964         estimate D2E/DX2                !
 --------------------------------------------------------------------------------
 Trust Radius=3.00D-01 FncErr=1.00D-07 GrdErr=1.00D-06
 Number of optimizations in scan=  37
 Number of steps in this run=  79 maximum allowed number of steps= 100.
 GradGradGradGradGradGradGradGradGradGradGradGradGradGradGradGradGradGrad

                          Input orientation:                          
 ---------------------------------------------------------------------
 Center     Atomic     Atomic              Coordinates (Angstroms)
 Number     Number      Type              X           Y           Z
 ---------------------------------------------------------------------
    1          6             0       -3.228089    0.877989    0.581393
    2          1             0       -4.299151    0.917654    0.755999
    3          8             0       -2.778771    1.908953   -0.192415
    4          1             0       -1.813946    1.787242   -0.284019
    5          6             0       -2.521918   -0.447662    0.553809
    6          6             0       -3.156085   -1.407087    1.565297
    7          1             0       -3.154457   -0.963040    2.564568
    8          1             0       -4.190390   -1.619848    1.276624
    9          1             0       -2.603740   -2.351071    1.596598
   10          6             0       -2.463286   -1.066580   -0.854999
   11          1             0       -2.018167   -0.370193   -1.571829
   12          1             0       -1.880041   -1.995553   -0.846534
   13          1             0       -3.473915   -1.295933   -1.207820
   14          8             0       -1.155297   -0.328250    1.079397
   15          8             0       -0.398676    0.616998    0.265525
   16          1             0        0.104689    0.009785   -0.306289
 ---------------------------------------------------------------------
                    Distance matrix (angstroms):
                    1          2          3          4          5
     1  C    0.000000
     2  H    1.085926   0.000000
     3  O    1.365120   2.047857   0.000000
     4  H    1.890894   2.830912   0.976776   0.000000
     5  C    1.502261   2.250228   2.485248   2.489573   0.000000
     6  C    2.488940   2.714035   3.772007   3.927473   1.531591
     7  H    2.706990   2.849255   3.998805   4.180367   2.169994
     8  H    2.765603   2.592643   4.074700   4.437494   2.163396
     9  H    3.441988   3.776981   4.623744   4.613689   2.171882
    10  C    2.535645   3.146887   3.064693   2.981939   1.539882
    11  H    2.767352   3.504315   2.770525   2.520850   2.185887
    12  H    3.480439   4.111810   4.059650   3.824961   2.183789
    13  H    2.826243   3.072062   3.433011   3.621446   2.174672
    14  O    2.449385   3.397158   3.042737   2.601543   1.469066
    15  O    2.858928   3.942672   2.746581   1.916888   2.392648
    16  H    3.556567   4.620226   3.454584   2.615532   2.801444
                    6          7          8          9         10
     6  C    0.000000
     7  H    1.093491   0.000000
     8  H    1.094708   1.778582   0.000000
     9  H    1.094153   1.779574   1.776099   0.000000
    10  C    2.540423   3.490254   2.798716   2.771276   0.000000
    11  H    3.494505   4.330404   3.793926   3.782288   1.094043
    12  H    2.791328   3.784949   3.160169   2.572747   1.096922
    13  H    2.793483   3.800498   2.605901   3.120141   1.094740
    14  O    2.324466   2.570084   3.304378   2.541120   2.449052
    15  O    3.659185   3.921281   4.516957   3.929821   2.890091
    16  H    4.017836   4.450870   4.858911   4.065736   2.837982
                   11         12         13         14         15
    11  H    0.000000
    12  H    1.785197   0.000000
    13  H    1.763150   1.777760   0.000000
    14  O    2.788423   2.648464   3.397611   0.000000
    15  O    2.640675   3.202583   3.909878   1.458889   0.000000
    16  H    2.500498   2.872699   3.914596   1.903144   0.974195
                   16
    16  H    0.000000
 Symmetry turned off by external request.
 Stoichiometry    C4H9O3(2)
 Framework group  C1[X(C4H9O3)]
 Deg. of freedom    42
 Full point group                 C1
 Rotational constants (GHZ):      2.9914326      2.4872751      1.9371957
 Standard basis: 6-31G(d) (6D, 7F)
 Integral buffers will be    131072 words long.
 Raffenetti 2 integral format.
 Two-electron integral symmetry is turned off.
   123 basis functions,   232 primitive gaussians,   123 cartesian basis functions
    29 alpha electrons       28 beta electrons
       nuclear repulsion energy       338.7811590651 Hartrees.
 NAtoms=   16 NActive=   16 NUniq=   16 SFac= 7.50D-01 NAtFMM=   80 NAOKFM=F Big=F
 One-electron integrals computed using PRISM.
 NBasis=   123 RedAO= T  NBF=   123
 NBsUse=   123 1.00D-06 NBFU=   123
 Harris functional with IExCor=  402 diagonalized for initial guess.
 ExpMin= 1.61D-01 ExpMax= 5.48D+03 ExpMxC= 8.25D+02 IAcc=1 IRadAn=         1 AccDes= 1.00D-06
 HarFok:  IExCor= 402 AccDes= 1.00D-06 IRadAn=         1 IDoV=1
 ScaDFX=  1.000000  1.000000  1.000000  1.000000
 <S**2> of initial guess= 0.7500
 Requested convergence on RMS density matrix=1.00D-08 within 128 cycles.
 Requested convergence on MAX density matrix=1.00D-06.
 Requested convergence on             energy=1.00D-06.
 No special actions if energy rises.
 Keep R1 and R2 integrals in memory in canonical form, NReq=    60141126.
 Integral accuracy reduced to 1.0D-05 until final iterations.
 Initial convergence to 1.0D-05 achieved.  Increase integral accuracy.
 SCF Done:  E(UB+HF-LYP) =  -383.350753531     A.U. after   17 cycles
             Convg  =    0.8206D-08             -V/T =  2.0089
             S**2   =   0.7532
 Annihilation of the first spin contaminant:
 S**2 before annihilation     0.7532,   after     0.7500

 **********************************************************************

            Population analysis using the SCF density.

 **********************************************************************

 Alpha  occ. eigenvalues --  -19.21976 -19.20774 -19.16377 -10.25446 -10.22125
 Alpha  occ. eigenvalues --  -10.18737 -10.18698  -1.12116  -1.04104  -0.92372
 Alpha  occ. eigenvalues --   -0.78204  -0.70188  -0.66753  -0.58510  -0.55158
 Alpha  occ. eigenvalues --   -0.48041  -0.47514  -0.46306  -0.43434  -0.41516
 Alpha  occ. eigenvalues --   -0.40671  -0.40023  -0.38599  -0.36803  -0.36171
 Alpha  occ. eigenvalues --   -0.34215  -0.29652  -0.27611  -0.16068
 Alpha virt. eigenvalues --    0.00843   0.06319   0.10712   0.11623   0.13143
 Alpha virt. eigenvalues --    0.14614   0.16079   0.17036   0.18109   0.19002
 Alpha virt. eigenvalues --    0.21870   0.22408   0.25130   0.27446   0.30096
 Alpha virt. eigenvalues --    0.49117   0.53179   0.55270   0.56276   0.57084
 Alpha virt. eigenvalues --    0.60041   0.63415   0.65533   0.68020   0.69459
 Alpha virt. eigenvalues --    0.73300   0.75750   0.78570   0.79892   0.80606
 Alpha virt. eigenvalues --    0.85205   0.88175   0.89740   0.90086   0.90771
 Alpha virt. eigenvalues --    0.92865   0.93618   0.95990   0.97000   0.98957
 Alpha virt. eigenvalues --    1.03300   1.06409   1.10047   1.12879   1.13855
 Alpha virt. eigenvalues --    1.18909   1.25412   1.31619   1.36944   1.38530
 Alpha virt. eigenvalues --    1.40626   1.50368   1.53004   1.58923   1.62509
 Alpha virt. eigenvalues --    1.65130   1.72221   1.75477   1.76549   1.80840
 Alpha virt. eigenvalues --    1.85395   1.86627   1.89566   1.90299   1.92954
 Alpha virt. eigenvalues --    1.97382   2.04121   2.08684   2.11402   2.14350
 Alpha virt. eigenvalues --    2.21506   2.24214   2.26772   2.27620   2.32111
 Alpha virt. eigenvalues --    2.34257   2.38451   2.42185   2.46921   2.51665
 Alpha virt. eigenvalues --    2.58486   2.65897   2.73258   2.79639   2.88567
 Alpha virt. eigenvalues --    2.93038   3.08112   3.59483   3.84674   3.92055
 Alpha virt. eigenvalues --    4.18779   4.26018   4.30833   4.64327
  Beta  occ. eigenvalues --  -19.21982 -19.20692 -19.15854 -10.25496 -10.20850
  Beta  occ. eigenvalues --  -10.18726 -10.18626  -1.12021  -1.02869  -0.92241
  Beta  occ. eigenvalues --   -0.77783  -0.70053  -0.64815  -0.58166  -0.54975
  Beta  occ. eigenvalues --   -0.47640  -0.47005  -0.46154  -0.42899  -0.40496
  Beta  occ. eigenvalues --   -0.40341  -0.39841  -0.38468  -0.35937  -0.34618
  Beta  occ. eigenvalues --   -0.32806  -0.29363  -0.27306
  Beta virt. eigenvalues --   -0.01856   0.00944   0.06392   0.10862   0.11927
  Beta virt. eigenvalues --    0.13396   0.14835   0.16519   0.17190   0.18424
  Beta virt. eigenvalues --    0.19252   0.22096   0.22963   0.25554   0.29211
  Beta virt. eigenvalues --    0.30878   0.49289   0.54818   0.55900   0.56738
  Beta virt. eigenvalues --    0.58260   0.62500   0.63924   0.65832   0.68561
  Beta virt. eigenvalues --    0.69952   0.73658   0.76149   0.78761   0.80283
  Beta virt. eigenvalues --    0.81005   0.85472   0.88439   0.89976   0.90261
  Beta virt. eigenvalues --    0.91043   0.93134   0.94276   0.96191   0.97309
  Beta virt. eigenvalues --    0.99835   1.03565   1.06809   1.10335   1.13125
  Beta virt. eigenvalues --    1.14234   1.19672   1.25639   1.31926   1.37377
  Beta virt. eigenvalues --    1.38881   1.42164   1.50602   1.54022   1.59650
  Beta virt. eigenvalues --    1.63196   1.65651   1.72673   1.75918   1.77455
  Beta virt. eigenvalues --    1.81582   1.85746   1.86976   1.90539   1.91756
  Beta virt. eigenvalues --    1.93888   1.97571   2.04452   2.08879   2.13628
  Beta virt. eigenvalues --    2.15893   2.21678   2.24327   2.27652   2.28184
  Beta virt. eigenvalues --    2.32404   2.34717   2.39317   2.44632   2.46997
  Beta virt. eigenvalues --    2.52234   2.59456   2.66463   2.73864   2.80365
  Beta virt. eigenvalues --    2.88842   2.93965   3.08187   3.59559   3.85123
  Beta virt. eigenvalues --    3.92568   4.19432   4.27996   4.31239   4.64564
          Condensed to atoms (all electrons):
              1          2          3          4          5          6
     1  C    5.122200   0.361514   0.277694  -0.030912   0.384257  -0.045893
     2  H    0.361514   0.590063  -0.041599   0.005455  -0.050168  -0.002843
     3  O    0.277694  -0.041599   8.156886   0.232104  -0.032011   0.002537
     4  H   -0.030912   0.005455   0.232104   0.330998  -0.009650   0.000107
     5  C    0.384257  -0.050168  -0.032011  -0.009650   4.808269   0.356096
     6  C   -0.045893  -0.002843   0.002537   0.000107   0.356096   5.161104
     7  H   -0.000733   0.000721  -0.000029   0.000008  -0.027774   0.365705
     8  H   -0.002747   0.002337  -0.000002   0.000015  -0.025980   0.364610
     9  H    0.004346  -0.000175  -0.000059   0.000010  -0.022388   0.362102
    10  C   -0.084188   0.001870  -0.001687   0.000377   0.330140  -0.050539
    11  H   -0.008962  -0.000066   0.007002   0.001445  -0.029683   0.005717
    12  H    0.005885  -0.000134   0.000035  -0.000055  -0.024864  -0.005559
    13  H    0.002010   0.000286  -0.000243   0.000037  -0.022383  -0.003322
    14  O   -0.050104   0.003102  -0.000275  -0.002960   0.143214  -0.041831
    15  O   -0.004611  -0.000165  -0.014771   0.042895  -0.029216   0.004050
    16  H    0.000018   0.000013   0.000741  -0.002101  -0.002844  -0.000189
              7          8          9         10         11         12
     1  C   -0.000733  -0.002747   0.004346  -0.084188  -0.008962   0.005885
     2  H    0.000721   0.002337  -0.000175   0.001870  -0.000066  -0.000134
     3  O   -0.000029  -0.000002  -0.000059  -0.001687   0.007002   0.000035
     4  H    0.000008   0.000015   0.000010   0.000377   0.001445  -0.000055
     5  C   -0.027774  -0.025980  -0.022388   0.330140  -0.029683  -0.024864
     6  C    0.365705   0.364610   0.362102  -0.050539   0.005717  -0.005559
     7  H    0.536088  -0.025949  -0.027470   0.006418  -0.000160  -0.000144
     8  H   -0.025949   0.556474  -0.027227  -0.002592  -0.000033   0.000072
     9  H   -0.027470  -0.027227   0.553394  -0.005953  -0.000072   0.003942
    10  C    0.006418  -0.002592  -0.005953   5.248820   0.365173   0.352236
    11  H   -0.000160  -0.000033  -0.000072   0.365173   0.569654  -0.031850
    12  H   -0.000144   0.000072   0.003942   0.352236  -0.031850   0.577678
    13  H   -0.000087   0.001907   0.000256   0.358766  -0.027267  -0.025881
    14  O    0.000021   0.003056   0.000158  -0.060170  -0.004427   0.002951
    15  O   -0.000051  -0.000082  -0.000072  -0.001230   0.006920  -0.000485
    16  H    0.000014   0.000009  -0.000021   0.004551   0.000859   0.000237
             13         14         15         16
     1  C    0.002010  -0.050104  -0.004611   0.000018
     2  H    0.000286   0.003102  -0.000165   0.000013
     3  O   -0.000243  -0.000275  -0.014771   0.000741
     4  H    0.000037  -0.002960   0.042895  -0.002101
     5  C   -0.022383   0.143214  -0.029216  -0.002844
     6  C   -0.003322  -0.041831   0.004050  -0.000189
     7  H   -0.000087   0.000021  -0.000051   0.000014
     8  H    0.001907   0.003056  -0.000082   0.000009
     9  H    0.000256   0.000158  -0.000072  -0.000021
    10  C    0.358766  -0.060170  -0.001230   0.004551
    11  H   -0.027267  -0.004427   0.006920   0.000859
    12  H   -0.025881   0.002951  -0.000485   0.000237
    13  H    0.556096   0.003070   0.000263  -0.000137
    14  O    0.003070   8.259097   0.062499  -0.019943
    15  O    0.000263   0.062499   8.142980   0.219072
    16  H   -0.000137  -0.019943   0.219072   0.378435
 Mulliken atomic charges:
              1
     1  C    0.070226
     2  H    0.129790
     3  O   -0.586322
     4  H    0.432227
     5  C    0.254987
     6  C   -0.471850
     7  H    0.173423
     8  H    0.156133
     9  H    0.159231
    10  C   -0.461992
    11  H    0.145749
    12  H    0.145939
    13  H    0.156629
    14  O   -0.297456
    15  O   -0.427998
    16  H    0.421286
 Sum of Mulliken charges=   0.00000
 Atomic charges with hydrogens summed into heavy atoms:
              1
     1  C    0.200016
     2  H    0.000000
     3  O   -0.154095
     4  H    0.000000
     5  C    0.254987
     6  C    0.016937
     7  H    0.000000
     8  H    0.000000
     9  H    0.000000
    10  C   -0.013676
    11  H    0.000000
    12  H    0.000000
    13  H    0.000000
    14  O   -0.297456
    15  O   -0.006712
    16  H    0.000000
 Sum of Mulliken charges=   0.00000
          Atomic-Atomic Spin Densities.
              1          2          3          4          5          6
     1  C    1.042182  -0.014719  -0.140353  -0.000578   0.023618  -0.011449
     2  H   -0.014719  -0.030818   0.000645  -0.000212   0.006296   0.000254
     3  O   -0.140353   0.000645   0.285075  -0.001175  -0.003667   0.000193
     4  H   -0.000578  -0.000212  -0.001175  -0.002999  -0.000043   0.000006
     5  C    0.023618   0.006296  -0.003667  -0.000043   0.000239  -0.003323
     6  C   -0.011449   0.000254   0.000193   0.000006  -0.003323   0.014502
     7  H    0.005241  -0.000544  -0.000045  -0.000001  -0.001038  -0.003646
     8  H    0.000101   0.000114  -0.000006   0.000000   0.000573  -0.000145
     9  H    0.000167  -0.000038   0.000000  -0.000001   0.000204  -0.000142
    10  C   -0.028504  -0.002286   0.003561  -0.000155  -0.021268   0.004067
    11  H   -0.004089  -0.000122   0.001360  -0.000023   0.000105   0.000113
    12  H    0.001393   0.000062  -0.000128   0.000009   0.001607  -0.000718
    13  H    0.001383   0.000067  -0.000159   0.000001   0.000803  -0.000150
    14  O   -0.017254   0.000508   0.000694   0.000127  -0.014491   0.002643
    15  O    0.000018  -0.000001  -0.000052   0.000320   0.000798  -0.000004
    16  H   -0.000005   0.000000   0.000000  -0.000031  -0.000170   0.000005
              7          8          9         10         11         12
     1  C    0.005241   0.000101   0.000167  -0.028504  -0.004089   0.001393
     2  H   -0.000544   0.000114  -0.000038  -0.002286  -0.000122   0.000062
     3  O   -0.000045  -0.000006   0.000000   0.003561   0.001360  -0.000128
     4  H   -0.000001   0.000000  -0.000001  -0.000155  -0.000023   0.000009
     5  C   -0.001038   0.000573   0.000204  -0.021268   0.000105   0.001607
     6  C   -0.003646  -0.000145  -0.000142   0.004067   0.000113  -0.000718
     7  H    0.001445   0.000018   0.000542   0.000935   0.000015  -0.000086
     8  H    0.000018  -0.000574   0.000193  -0.000428  -0.000008   0.000061
     9  H    0.000542   0.000193  -0.002594   0.000747   0.000015  -0.000297
    10  C    0.000935  -0.000428   0.000747   0.089308   0.003412  -0.008386
    11  H    0.000015  -0.000008   0.000015   0.003412   0.000400  -0.002442
    12  H   -0.000086   0.000061  -0.000297  -0.008386  -0.002442   0.015911
    13  H   -0.000018   0.000002  -0.000019  -0.001460   0.000009   0.000588
    14  O   -0.001354   0.000049  -0.000217  -0.012388  -0.000839   0.001430
    15  O    0.000002   0.000000   0.000004   0.000177   0.000077  -0.000030
    16  H   -0.000001   0.000000  -0.000002  -0.000083  -0.000008   0.000050
             13         14         15         16
     1  C    0.001383  -0.017254   0.000018  -0.000005
     2  H    0.000067   0.000508  -0.000001   0.000000
     3  O   -0.000159   0.000694  -0.000052   0.000000
     4  H    0.000001   0.000127   0.000320  -0.000031
     5  C    0.000803  -0.014491   0.000798  -0.000170
     6  C   -0.000150   0.002643  -0.000004   0.000005
     7  H   -0.000018  -0.001354   0.000002  -0.000001
     8  H    0.000002   0.000049   0.000000   0.000000
     9  H   -0.000019  -0.000217   0.000004  -0.000002
    10  C   -0.001460  -0.012388   0.000177  -0.000083
    11  H    0.000009  -0.000839   0.000077  -0.000008
    12  H    0.000588   0.001430  -0.000030   0.000050
    13  H   -0.001530   0.000103  -0.000002   0.000001
    14  O    0.000103   0.059912  -0.000720   0.000088
    15  O   -0.000002  -0.000720  -0.002793   0.000179
    16  H    0.000001   0.000088   0.000179  -0.000130
 Mulliken atomic spin densities:
              1
     1  C    0.857152
     2  H   -0.040793
     3  O    0.145945
     4  H   -0.004756
     5  C   -0.009757
     6  C    0.002206
     7  H    0.001466
     8  H   -0.000050
     9  H   -0.001437
    10  C    0.027249
    11  H   -0.002024
    12  H    0.009024
    13  H   -0.000381
    14  O    0.018288
    15  O   -0.002026
    16  H   -0.000107
 Sum of Mulliken spin densities=   1.00000
 Electronic spatial extent (au):  <R**2>=  1782.3954
 Charge=     0.0000 electrons
 Dipole moment (field-independent basis, Debye):
    X=     0.4136    Y=    -2.3499    Z=    -1.4349  Tot=     2.7843
 Quadrupole moment (field-independent basis, Debye-Ang):
   XX=   -40.4407   YY=   -45.5621   ZZ=   -43.7017
   XY=     6.9119   XZ=    -1.8490   YZ=    -0.7058
 Traceless Quadrupole moment (field-independent basis, Debye-Ang):
   XX=     2.7941   YY=    -2.3272   ZZ=    -0.4669
   XY=     6.9119   XZ=    -1.8490   YZ=    -0.7058
 Octapole moment (field-independent basis, Debye-Ang**2):
  XXX=   278.5893  YYY=     0.0179  ZZZ=   -51.5917  XYY=   109.4725
  XXY=   -19.4755  XXZ=    -7.7907  XZZ=    98.5760  YZZ=     2.1145
  YYZ=   -16.6060  XYZ=     0.2140
 Hexadecapole moment (field-independent basis, Debye-Ang**3):
 XXXX= -1572.8692 YYYY=  -393.9335 ZZZZ=  -267.5366 XXXY=    27.3592
 XXXZ=    96.1052 YYYX=    -6.3225 YYYZ=    30.7921 ZZZX=   128.7381
 ZZZY=    29.9841 XXYY=  -379.8644 XXZZ=  -322.0392 YYZZ=  -109.8577
 XXYZ=    14.3067 YYXZ=    39.8640 ZZXY=    -8.4120
 N-N= 3.387811590651D+02 E-N=-1.574881811442D+03  KE= 3.799740872492D+02
                          Isotropic Fermi Contact Couplings
        Atom                 a.u.       MegaHertz       Gauss      10(-4) cm-1
     1  C(13)              0.16365     183.97336      65.64627      61.36691
     2  H(1)              -0.01132     -50.57997     -18.04819     -16.87166
     3  O(17)              0.03829     -23.21315      -8.28303      -7.74307
     4  H(1)              -0.00152      -6.80971      -2.42987      -2.27147
     5  C(13)             -0.01738     -19.53847      -6.97181      -6.51733
     6  C(13)              0.00386       4.33999       1.54862       1.44766
     7  H(1)              -0.00005      -0.21915      -0.07820      -0.07310
     8  H(1)               0.00021       0.93455       0.33347       0.31173
     9  H(1)              -0.00051      -2.30125      -0.82114      -0.76762
    10  C(13)              0.02859      32.14083      11.46865      10.72103
    11  H(1)              -0.00063      -2.81502      -1.00447      -0.93899
    12  H(1)               0.00384      17.17695       6.12916       5.72962
    13  H(1)               0.00042       1.87044       0.66742       0.62391
    14  O(17)              0.02188     -13.26616      -4.73369      -4.42511
    15  O(17)             -0.00071       0.42823       0.15280       0.14284
    16  H(1)               0.00003       0.12657       0.04516       0.04222
 --------------------------------------------------------
       Center         ----  Spin Dipole Couplings  ----
                      3XX-RR        3YY-RR        3ZZ-RR
 --------------------------------------------------------
     1   Atom       -0.321935     -0.328454      0.650389
     2   Atom        0.068862     -0.052865     -0.015997
     3   Atom       -0.333278     -0.300408      0.633686
     4   Atom        0.037624     -0.025093     -0.012532
     5   Atom        0.014387      0.005822     -0.020209
     6   Atom       -0.007805      0.013069     -0.005264
     7   Atom       -0.007680      0.005009      0.002671
     8   Atom       -0.003051      0.007204     -0.004153
     9   Atom       -0.003293      0.005464     -0.002171
    10   Atom       -0.017876     -0.008522      0.026398
    11   Atom       -0.004087     -0.000450      0.004537
    12   Atom       -0.002797      0.004283     -0.001486
    13   Atom       -0.003718      0.002490      0.001229
    14   Atom        0.067814     -0.020776     -0.047038
    15   Atom        0.015941     -0.009928     -0.006013
    16   Atom        0.004510     -0.002390     -0.002120
 --------------------------------------------------------
                        XY            XZ            YZ
 --------------------------------------------------------
     1   Atom        0.156004      0.423748      0.426437
     2   Atom       -0.001962     -0.006346      0.017952
     3   Atom        0.101740      0.282153      0.384520
     4   Atom       -0.001008     -0.021068     -0.000031
     5   Atom       -0.033103     -0.000920      0.000232
     6   Atom        0.003224      0.002166     -0.004187
     7   Atom        0.000127     -0.000695     -0.009179
     8   Atom        0.005353     -0.001416     -0.003335
     9   Atom       -0.001360      0.000440     -0.002330
    10   Atom       -0.008381     -0.016255      0.026361
    11   Atom       -0.002684     -0.006491      0.004161
    12   Atom       -0.004811     -0.000939      0.002270
    13   Atom        0.001841      0.004085      0.008662
    14   Atom       -0.063610      0.037993     -0.023737
    15   Atom       -0.005380     -0.000457      0.006203
    16   Atom       -0.001707     -0.002192      0.000403
 --------------------------------------------------------


 ---------------------------------------------------------------------------------
              Anisotropic Spin Dipole Couplings in Principal Axis System
 ---------------------------------------------------------------------------------

       Atom             a.u.   MegaHertz   Gauss  10(-4) cm-1        Axes

              Baa    -0.4888   -65.595   -23.406   -21.880  0.2468  0.8739 -0.4189
     1 C(13)  Bbb    -0.4793   -64.322   -22.952   -21.456  0.9110 -0.3566 -0.2071
              Bcc     0.9682   129.917    46.358    43.336  0.3304  0.3305  0.8841
 
              Baa    -0.0602   -32.101   -11.454   -10.708 -0.0045  0.9262 -0.3771
     2 H(1)   Bbb    -0.0093    -4.941    -1.763    -1.648  0.0844  0.3761  0.9227
              Bcc     0.0694    37.042    13.217    12.356  0.9964 -0.0277 -0.0798
 
              Baa    -0.4383    31.718    11.318    10.580 -0.0164  0.9425 -0.3338
     3 O(17)  Bbb    -0.4094    29.627    10.572     9.882  0.9691 -0.0672 -0.2374
              Bcc     0.8478   -61.345   -21.889   -20.462  0.2461  0.3273  0.9123
 
              Baa    -0.0251   -13.410    -4.785    -4.473  0.0384  0.9970  0.0666
     4 H(1)   Bbb    -0.0202   -10.766    -3.842    -3.591  0.3403 -0.0757  0.9373
              Bcc     0.0453    24.176     8.627     8.064  0.9395 -0.0133 -0.3422
 
              Baa    -0.0233    -3.131    -1.117    -1.044  0.6552  0.7428  0.1379
     5 C(13)  Bbb    -0.0202    -2.705    -0.965    -0.902 -0.0812 -0.1122  0.9904
              Bcc     0.0435     5.837     2.083     1.947  0.7511 -0.6601 -0.0133
 
              Baa    -0.0101    -1.356    -0.484    -0.452  0.8108 -0.2114 -0.5458
     6 C(13)  Bbb    -0.0042    -0.565    -0.202    -0.188  0.5723  0.0907  0.8150
              Bcc     0.0143     1.921     0.685     0.641  0.1228  0.9732 -0.1945
 
              Baa    -0.0078    -4.149    -1.480    -1.384  0.9829  0.1008  0.1540
     7 H(1)   Bbb    -0.0053    -2.845    -1.015    -0.949 -0.1821  0.6540  0.7343
              Bcc     0.0131     6.994     2.496     2.333  0.0267  0.7498 -0.6612
 
              Baa    -0.0053    -2.847    -1.016    -0.950  0.9171 -0.3978 -0.0238
     8 H(1)   Bbb    -0.0051    -2.697    -0.963    -0.900  0.1174  0.2126  0.9701
              Bcc     0.0104     5.545     1.979     1.850  0.3809  0.8925 -0.2417
 
              Baa    -0.0035    -1.872    -0.668    -0.625  0.9859  0.1189 -0.1176
     9 H(1)   Bbb    -0.0028    -1.505    -0.537    -0.502  0.0801  0.2820  0.9561
              Bcc     0.0063     3.378     1.205     1.127 -0.1468  0.9520 -0.2685
 
              Baa    -0.0233    -3.123    -1.114    -1.042  0.8603 -0.2765  0.4283
    10 C(13)  Bbb    -0.0225    -3.024    -1.079    -1.009  0.4286  0.8472 -0.3140
              Bcc     0.0458     6.147     2.193     2.050 -0.2760  0.4537  0.8473
 
              Baa    -0.0076    -4.053    -1.446    -1.352  0.8895  0.0711  0.4514
    11 H(1)   Bbb    -0.0027    -1.436    -0.513    -0.479  0.1320  0.9057 -0.4028
              Bcc     0.0103     5.489     1.959     1.831 -0.4375  0.4179  0.7962
 
              Baa    -0.0052    -2.796    -0.998    -0.933  0.8856  0.4610 -0.0573
    12 H(1)   Bbb    -0.0022    -1.148    -0.409    -0.383  0.1720 -0.2109  0.9623
              Bcc     0.0074     3.944     1.407     1.316 -0.4315  0.8620  0.2660
 
              Baa    -0.0078    -4.155    -1.483    -1.386 -0.4814 -0.5129  0.7108
    13 H(1)   Bbb    -0.0039    -2.069    -0.738    -0.690  0.8365 -0.5110  0.1978
              Bcc     0.0117     6.224     2.221     2.076  0.2618  0.6898  0.6750
 
              Baa    -0.0610     4.417     1.576     1.473 -0.0152  0.4899  0.8717
    14 O(17)  Bbb    -0.0524     3.794     1.354     1.265  0.5244  0.7462 -0.4102
              Bcc     0.1135    -8.210    -2.930    -2.739  0.8514 -0.4508  0.2682
 
              Baa    -0.0150     1.087     0.388     0.363  0.1342  0.8195 -0.5572
    15 O(17)  Bbb    -0.0021     0.153     0.055     0.051  0.1797  0.5328  0.8269
              Bcc     0.0171    -1.240    -0.443    -0.414  0.9745 -0.2111 -0.0758
 
              Baa    -0.0029    -1.537    -0.549    -0.513  0.3480  0.6857  0.6393
    16 H(1)   Bbb    -0.0027    -1.427    -0.509    -0.476  0.0534 -0.6954  0.7167
              Bcc     0.0056     2.964     1.058     0.989  0.9360 -0.2152 -0.2787
 

 ---------------------------------------------------------------------------------

 -------------------------------------------------------------------
 Center     Atomic                   Forces (Hartrees/Bohr)
 Number     Number              X              Y              Z
 -------------------------------------------------------------------
    1          6           0.000555516    0.000367192    0.000811860
    2          1           0.000009201    0.000008351    0.000009397
    3          8          -0.000316027   -0.000627653   -0.001024515
    4          1           0.000120796    0.000434736    0.000661174
    5          6          -0.000347947   -0.000184618   -0.000437855
    6          6           0.000004114   -0.000000825   -0.000005383
    7          1           0.000003870    0.000002707    0.000001665
    8          1          -0.000004224    0.000008167    0.000003633
    9          1          -0.000008811   -0.000000322   -0.000000246
   10          6          -0.000000413    0.000004954   -0.000005132
   11          1          -0.000007943   -0.000000726    0.000000988
   12          1          -0.000011475   -0.000001698   -0.000003063
   13          1          -0.000008612    0.000005305    0.000000482
   14          8           0.000003508    0.000002234   -0.000004177
   15          8           0.000007445   -0.000008481   -0.000004961
   16          1           0.000001002   -0.000009321   -0.000003868
 -------------------------------------------------------------------
 Cartesian Forces:  Max     0.001024515 RMS     0.000275180

 GradGradGradGradGradGradGradGradGradGradGradGradGradGradGradGradGradGrad
 Berny optimization.
 Internal  Forces:  Max     0.000892041 RMS     0.000135238
 Search for a local minimum.
 Step number   1 out of a maximum of  79 on scan point     1 out of    37
 All quantities printed in internal units (Hartrees-Bohrs-Radians)
 Second derivative matrix not updated -- first step.
     Eigenvalues ---    0.00238   0.00348   0.00516   0.00778   0.01343
     Eigenvalues ---    0.04396   0.05182   0.05430   0.05582   0.05608
     Eigenvalues ---    0.05694   0.07085   0.14499   0.16000   0.16000
     Eigenvalues ---    0.16000   0.16000   0.16000   0.16000   0.16000
     Eigenvalues ---    0.16000   0.16476   0.17030   0.22318   0.25000
     Eigenvalues ---    0.28529   0.29277   0.32141   0.34025   0.34271
     Eigenvalues ---    0.34274   0.34337   0.34350   0.34412   0.35288
     Eigenvalues ---    0.35852   0.37104   0.51926   0.52016   0.52529
     Eigenvalues --- 1000.000001000.000001000.000001000.000001000.00000
     Eigenvalues --- 1000.000001000.000001000.000001000.000001000.00000
     Eigenvalues --- 1000.000001000.000001000.000001000.000001000.00000
     Eigenvalues --- 1000.000001000.000001000.000001000.000001000.00000
     Eigenvalues --- 1000.000001000.000001000.000001000.000001000.00000
     Eigenvalues --- 1000.000001000.000001000.000001000.00000
 RFO step:  Lambda=-3.32157506D-05.
 Linear search not attempted -- first point.
 Iteration  1 RMS(Cart)=  0.00650413 RMS(Int)=  0.00007393
 Iteration  2 RMS(Cart)=  0.00006040 RMS(Int)=  0.00002013
 Iteration  3 RMS(Cart)=  0.00000000 RMS(Int)=  0.00002013
 Iteration  1 RMS(Cart)=  0.00000223 RMS(Int)=  0.00000144
 Iteration  2 RMS(Cart)=  0.00000122 RMS(Int)=  0.00000159
 Iteration  3 RMS(Cart)=  0.00000072 RMS(Int)=  0.00000182
 Variable       Old X    -DE/DX   Delta X   Delta X   Delta X     New X
                                 (Linear)    (Quad)   (Total)
    R1        2.05210   0.00000   0.00000  -0.00001  -0.00001   2.05210
    R2        2.57970  -0.00001   0.00000  -0.00001  -0.00001   2.57969
    R3        2.83886   0.00000   0.00000   0.00000   0.00000   2.83886
    R4        1.84584   0.00000   0.00000  -0.00001  -0.00001   1.84583
    R5        2.89429   0.00000   0.00000  -0.00001  -0.00001   2.89427
    R6        2.90996   0.00000   0.00000   0.00001   0.00001   2.90996
    R7        2.77613   0.00001   0.00000   0.00002   0.00002   2.77615
    R8        2.06640   0.00000   0.00000   0.00001   0.00001   2.06640
    R9        2.06870   0.00000   0.00000   0.00000   0.00000   2.06870
   R10        2.06765   0.00000   0.00000  -0.00001  -0.00001   2.06764
   R11        2.06744   0.00000   0.00000  -0.00001  -0.00001   2.06743
   R12        2.07288   0.00000   0.00000   0.00000   0.00000   2.07288
   R13        2.06876   0.00000   0.00000   0.00000   0.00000   2.06876
   R14        2.75690   0.00000   0.00000   0.00001   0.00001   2.75691
   R15        1.84096   0.00000   0.00000   0.00000   0.00000   1.84096
    A1        1.96947   0.00009   0.00000  -0.00314  -0.00325   1.96622
    A2        2.09304  -0.00020   0.00000  -0.00575  -0.00584   2.08719
    A3        2.09590  -0.00005   0.00000  -0.00259  -0.00268   2.09322
    A4        1.85894  -0.00001   0.00000  -0.00007  -0.00007   1.85887
    A5        1.92412   0.00000   0.00000   0.00038   0.00038   1.92450
    A6        1.97074   0.00001   0.00000  -0.00034  -0.00034   1.97041
    A7        1.93799  -0.00001   0.00000  -0.00013  -0.00013   1.93786
    A8        1.94786   0.00000   0.00000   0.00009   0.00009   1.94795
    A9        1.77198   0.00000   0.00000   0.00084   0.00084   1.77281
   A10        1.90135   0.00000   0.00000  -0.00074  -0.00074   1.90061
   A11        1.92678   0.00000   0.00000  -0.00004  -0.00004   1.92675
   A12        1.91645   0.00000   0.00000  -0.00001  -0.00001   1.91644
   A13        1.92871   0.00001   0.00000   0.00005   0.00005   1.92876
   A14        1.89791   0.00000   0.00000  -0.00002  -0.00002   1.89789
   A15        1.90017   0.00000   0.00000   0.00000   0.00000   1.90018
   A16        1.89318   0.00000   0.00000   0.00001   0.00001   1.89318
   A17        1.93809   0.00000   0.00000   0.00000   0.00000   1.93810
   A18        1.93218   0.00000   0.00000  -0.00001  -0.00001   1.93218
   A19        1.92187   0.00000   0.00000   0.00001   0.00001   1.92188
   A20        1.90476   0.00000   0.00000   0.00001   0.00001   1.90478
   A21        1.87317   0.00000   0.00000   0.00000   0.00000   1.87316
   A22        1.89222   0.00000   0.00000  -0.00001  -0.00001   1.89221
   A23        1.91297   0.00001   0.00000   0.00005   0.00005   1.91302
   A24        1.76356   0.00000   0.00000   0.00000   0.00000   1.76356
    D1        3.13441  -0.00052   0.00000   0.00000   0.00000   3.13441
    D2       -0.52360  -0.00089   0.00000  -0.02354  -0.02355  -0.54714
    D3       -0.61473  -0.00015   0.00000  -0.02319  -0.02318  -0.63791
    D4        1.57720  -0.00015   0.00000  -0.02303  -0.02302   1.55418
    D5       -2.56459  -0.00015   0.00000  -0.02435  -0.02433  -2.58891
    D6        3.07961   0.00015   0.00000   0.00115   0.00115   3.08076
    D7       -1.01164   0.00015   0.00000   0.00132   0.00131  -1.01033
    D8        1.12976   0.00016   0.00000   0.00000   0.00000   1.12976
    D9       -0.97291   0.00000   0.00000  -0.00027  -0.00027  -0.97318
   D10        1.11946   0.00000   0.00000  -0.00032  -0.00032   1.11914
   D11       -3.07600   0.00000   0.00000  -0.00028  -0.00028  -3.07628
   D12        3.10543   0.00000   0.00000  -0.00019  -0.00019   3.10524
   D13       -1.08538   0.00000   0.00000  -0.00023  -0.00023  -1.08562
   D14        1.00234   0.00000   0.00000  -0.00020  -0.00020   1.00214
   D15        1.08233   0.00000   0.00000   0.00018   0.00018   1.08251
   D16       -3.10848  -0.00001   0.00000   0.00013   0.00013  -3.10835
   D17       -1.02076   0.00000   0.00000   0.00017   0.00017  -1.02059
   D18        0.95258   0.00000   0.00000  -0.00050  -0.00050   0.95208
   D19        3.07129   0.00000   0.00000  -0.00048  -0.00048   3.07081
   D20       -1.11968   0.00000   0.00000  -0.00050  -0.00050  -1.12018
   D21        3.13166   0.00000   0.00000  -0.00019  -0.00018   3.13147
   D22       -1.03282   0.00000   0.00000  -0.00017  -0.00017  -1.03299
   D23        1.05940   0.00000   0.00000  -0.00019  -0.00019   1.05921
   D24       -1.20912   0.00000   0.00000   0.00045   0.00045  -1.20867
   D25        0.90959   0.00000   0.00000   0.00047   0.00047   0.91005
   D26        3.00180   0.00000   0.00000   0.00045   0.00045   3.00225
   D27       -1.04909   0.00000   0.00000   0.00065   0.00065  -1.04845
   D28       -3.09429   0.00000   0.00000  -0.00018  -0.00018  -3.09447
   D29        1.13192   0.00000   0.00000  -0.00040  -0.00040   1.13152
   D30       -1.74003   0.00000   0.00000  -0.00084  -0.00084  -1.74087
         Item               Value     Threshold  Converged?
 Maximum Force            0.000480     0.000450     NO 
 RMS     Force            0.000101     0.000300     YES
 Maximum Displacement     0.035245     0.001800     NO 
 RMS     Displacement     0.006505     0.001200     NO 
 Predicted change in Energy=-1.646425D-05
 GradGradGradGradGradGradGradGradGradGradGradGradGradGradGradGradGradGrad

                          Input orientation:                          
 ---------------------------------------------------------------------
 Center     Atomic     Atomic              Coordinates (Angstroms)
 Number     Number      Type              X           Y           Z
 ---------------------------------------------------------------------
    1          6             0       -3.227487    0.878404    0.582859
    2          1             0       -4.301872    0.910951    0.737348
    3          8             0       -2.776543    1.906460   -0.193856
    4          1             0       -1.809073    1.794404   -0.268209
    5          6             0       -2.521977   -0.447589    0.554845
    6          6             0       -3.155252   -1.406929    1.566961
    7          1             0       -3.152184   -0.963015    2.566291
    8          1             0       -4.190015   -1.619194    1.279564
    9          1             0       -2.603281   -2.351155    1.597445
   10          6             0       -2.465048   -1.066280   -0.854137
   11          1             0       -2.020716   -0.369817   -1.571373
   12          1             0       -1.881882   -1.995311   -0.846500
   13          1             0       -3.476108   -1.295496   -1.205816
   14          8             0       -1.154287   -0.328232    1.077685
   15          8             0       -0.399135    0.616792    0.262184
   16          1             0        0.103620    0.009412   -0.309987
 ---------------------------------------------------------------------
                    Distance matrix (angstroms):
                    1          2          3          4          5
     1  C    0.000000
     2  H    1.085923   0.000000
     3  O    1.365113   2.045680   0.000000
     4  H    1.890838   2.829430   0.976772   0.000000
     5  C    1.502261   2.246545   2.483325   2.492425   0.000000
     6  C    2.489262   2.715799   3.771265   3.927923   1.531584
     7  H    2.707489   2.859819   3.999175   4.176325   2.169963
     8  H    2.765837   2.590008   4.074200   4.440398   2.163384
     9  H    3.442247   3.777077   4.622343   4.614877   2.171909
    10  C    2.535364   3.133080   3.061076   2.992846   1.539887
    11  H    2.766779   3.489159   2.765911   2.535130   2.185890
    12  H    3.480224   4.100156   4.055881   3.834274   2.183788
    13  H    2.826130   3.053880   3.430156   3.633950   2.174681
    14  O    2.449282   3.399808   3.040128   2.597260   1.469075
    15  O    2.858470   3.942545   2.742861   1.912071   2.392700
    16  H    3.556487   4.617147   3.450742   2.616551   2.801882
                    6          7          8          9         10
     6  C    0.000000
     7  H    1.093494   0.000000
     8  H    1.094709   1.778575   0.000000
     9  H    1.094149   1.779575   1.776102   0.000000
    10  C    2.540500   3.490293   2.798912   2.771329   0.000000
    11  H    3.494555   4.330400   3.794028   3.782392   1.094038
    12  H    2.791497   3.785028   3.160553   2.572918   1.096922
    13  H    2.793503   3.800560   2.606062   3.120018   1.094742
    14  O    2.325261   2.571087   3.304994   2.542037   2.448416
    15  O    3.659791   3.922241   4.517241   3.930635   2.889100
    16  H    4.018608   4.451836   4.859459   4.066680   2.837476
                   11         12         13         14         15
    11  H    0.000000
    12  H    1.785201   0.000000
    13  H    1.763144   1.777752   0.000000
    14  O    2.787460   2.647835   3.397179   0.000000
    15  O    2.639101   3.201686   3.908917   1.458892   0.000000
    16  H    2.499543   2.872103   3.914045   1.903147   0.974193
                   16
    16  H    0.000000
 Symmetry turned off by external request.
 Stoichiometry    C4H9O3(2)
 Framework group  C1[X(C4H9O3)]
 Deg. of freedom    42
 Full point group                 C1
 Rotational constants (GHZ):      2.9948266      2.4879034      1.9381596
 Standard basis: 6-31G(d) (6D, 7F)
 Integral buffers will be    131072 words long.
 Raffenetti 2 integral format.
 Two-electron integral symmetry is turned off.
   123 basis functions,   232 primitive gaussians,   123 cartesian basis functions
    29 alpha electrons       28 beta electrons
       nuclear repulsion energy       338.8448221509 Hartrees.
 NAtoms=   16 NActive=   16 NUniq=   16 SFac= 7.50D-01 NAtFMM=   80 NAOKFM=F Big=F
 One-electron integrals computed using PRISM.
 NBasis=   123 RedAO= T  NBF=   123
 NBsUse=   123 1.00D-06 NBFU=   123
 Initial guess read from the read-write file:
 <S**2> of initial guess= 0.7532
 Harris functional with IExCor=  402 diagonalized for initial guess.
 ExpMin= 1.61D-01 ExpMax= 5.48D+03 ExpMxC= 8.25D+02 IAcc=1 IRadAn=         1 AccDes= 1.00D-06
 HarFok:  IExCor= 402 AccDes= 1.00D-06 IRadAn=         1 IDoV=1
 ScaDFX=  1.000000  1.000000  1.000000  1.000000
 Requested convergence on RMS density matrix=1.00D-08 within 128 cycles.
 Requested convergence on MAX density matrix=1.00D-06.
 Requested convergence on             energy=1.00D-06.
 No special actions if energy rises.
 Keep R1 and R2 integrals in memory in canonical form, NReq=    60141126.
 Integral accuracy reduced to 1.0D-05 until final iterations.
 Initial convergence to 1.0D-05 achieved.  Increase integral accuracy.
 SCF Done:  E(UB+HF-LYP) =  -383.350772975     A.U. after   12 cycles
             Convg  =    0.9242D-08             -V/T =  2.0089
             S**2   =   0.7531
 Annihilation of the first spin contaminant:
 S**2 before annihilation     0.7531,   after     0.7500
 -------------------------------------------------------------------
 Center     Atomic                   Forces (Hartrees/Bohr)
 Number     Number              X              Y              Z
 -------------------------------------------------------------------
    1          6           0.000251168    0.000390200    0.000267632
    2          1          -0.000212979    0.000045497    0.000237352
    3          8          -0.000200341   -0.000166384   -0.000646475
    4          1           0.000069781    0.000234708    0.000276659
    5          6           0.000237949   -0.000531477   -0.000445226
    6          6           0.000114288    0.000044197    0.000037798
    7          1          -0.000009778   -0.000001247    0.000006212
    8          1          -0.000001962    0.000017517    0.000000031
    9          1          -0.000013371   -0.000013960   -0.000004363
   10          6          -0.000108646    0.000019586   -0.000077643
   11          1          -0.000033018    0.000030173    0.000065757
   12          1          -0.000044282   -0.000016845    0.000034997
   13          1          -0.000017894   -0.000021972   -0.000024764
   14          8          -0.000186687    0.000009653    0.000122857
   15          8           0.000206621   -0.000105701    0.000200788
   16          1          -0.000050849    0.000066055   -0.000051611
 -------------------------------------------------------------------
 Cartesian Forces:  Max     0.000646475 RMS     0.000190986

 GradGradGradGradGradGradGradGradGradGradGradGradGradGradGradGradGradGrad
 Berny optimization.
 Internal  Forces:  Max     0.000555438 RMS     0.000140686
 Search for a local minimum.
 Step number   2 out of a maximum of  79 on scan point     1 out of    37
 All quantities printed in internal units (Hartrees-Bohrs-Radians)
 Update second derivatives using D2CorX and points  1  2
 Trust test= 1.18D+00 RLast= 4.77D-02 DXMaxT set to 3.00D-01
     Eigenvalues ---    0.00238   0.00348   0.00472   0.00700   0.01201
     Eigenvalues ---    0.04498   0.05285   0.05431   0.05583   0.05612
     Eigenvalues ---    0.05694   0.07062   0.14046   0.16000   0.16000
     Eigenvalues ---    0.16000   0.16000   0.16000   0.16000   0.16000
     Eigenvalues ---    0.16080   0.16617   0.17241   0.22443   0.26044
     Eigenvalues ---    0.28530   0.29282   0.33123   0.34025   0.34273
     Eigenvalues ---    0.34274   0.34337   0.34356   0.34412   0.35650
     Eigenvalues ---    0.35911   0.37108   0.52015   0.52133   0.52542
     Eigenvalues --- 1000.000001000.000001000.000001000.000001000.00000
     Eigenvalues --- 1000.000001000.000001000.000001000.000001000.00000
     Eigenvalues --- 1000.000001000.000001000.000001000.000001000.00000
     Eigenvalues --- 1000.000001000.000001000.000001000.000001000.00000
     Eigenvalues --- 1000.000001000.000001000.000001000.000001000.00000
     Eigenvalues --- 1000.000001000.000001000.000001000.00000
 RFO step:  Lambda=-1.26525210D-05.
 Quartic linear search produced a step of  0.18188.
 Iteration  1 RMS(Cart)=  0.00797849 RMS(Int)=  0.00013003
 Iteration  2 RMS(Cart)=  0.00011925 RMS(Int)=  0.00001000
 Iteration  3 RMS(Cart)=  0.00000003 RMS(Int)=  0.00001000
 Iteration  1 RMS(Cart)=  0.00000164 RMS(Int)=  0.00000135
 Iteration  2 RMS(Cart)=  0.00000103 RMS(Int)=  0.00000150
 Iteration  3 RMS(Cart)=  0.00000065 RMS(Int)=  0.00000172
 Variable       Old X    -DE/DX   Delta X   Delta X   Delta X     New X
                                 (Linear)    (Quad)   (Total)
    R1        2.05210   0.00025   0.00000   0.00084   0.00084   2.05294
    R2        2.57969   0.00022   0.00000   0.00049   0.00049   2.58018
    R3        2.83886   0.00049   0.00000   0.00182   0.00182   2.84068
    R4        1.84583   0.00001   0.00000   0.00003   0.00003   1.84586
    R5        2.89427  -0.00004   0.00000  -0.00016  -0.00017   2.89411
    R6        2.90996  -0.00001   0.00000  -0.00004  -0.00004   2.90993
    R7        2.77615   0.00007   0.00000   0.00022   0.00023   2.77638
    R8        2.06640   0.00000   0.00000   0.00002   0.00002   2.06642
    R9        2.06870   0.00000   0.00000  -0.00001  -0.00001   2.06869
   R10        2.06764   0.00001   0.00000   0.00002   0.00002   2.06766
   R11        2.06743  -0.00004   0.00000  -0.00013  -0.00013   2.06730
   R12        2.07288   0.00000   0.00000  -0.00001  -0.00001   2.07287
   R13        2.06876   0.00002   0.00000   0.00008   0.00008   2.06884
   R14        2.75691  -0.00002   0.00000  -0.00007  -0.00007   2.75683
   R15        1.84096  -0.00005   0.00000  -0.00011  -0.00011   1.84085
    A1        1.96622  -0.00004  -0.00059  -0.00085  -0.00149   1.96473
    A2        2.08719  -0.00013  -0.00106  -0.00337  -0.00447   2.08272
    A3        2.09322   0.00012  -0.00049  -0.00026  -0.00080   2.09242
    A4        1.85887   0.00007  -0.00001   0.00053   0.00052   1.85939
    A5        1.92450   0.00003   0.00007   0.00003   0.00010   1.92460
    A6        1.97041  -0.00012  -0.00006  -0.00099  -0.00105   1.96936
    A7        1.93786   0.00007  -0.00002   0.00104   0.00101   1.93887
    A8        1.94795   0.00005   0.00002  -0.00010  -0.00009   1.94786
    A9        1.77281  -0.00024   0.00015  -0.00088  -0.00073   1.77208
   A10        1.90061   0.00020  -0.00013   0.00097   0.00084   1.90145
   A11        1.92675   0.00001  -0.00001   0.00011   0.00011   1.92685
   A12        1.91644  -0.00002   0.00000  -0.00022  -0.00022   1.91621
   A13        1.92876   0.00002   0.00001   0.00017   0.00018   1.92893
   A14        1.89789   0.00000   0.00000  -0.00012  -0.00012   1.89777
   A15        1.90018   0.00000   0.00000   0.00010   0.00010   1.90027
   A16        1.89318   0.00000   0.00000  -0.00004  -0.00004   1.89315
   A17        1.93810  -0.00009   0.00000  -0.00063  -0.00063   1.93747
   A18        1.93218  -0.00003   0.00000  -0.00026  -0.00026   1.93191
   A19        1.92188   0.00006   0.00000   0.00041   0.00041   1.92229
   A20        1.90478   0.00007   0.00000   0.00058   0.00058   1.90536
   A21        1.87316   0.00002   0.00000   0.00012   0.00012   1.87328
   A22        1.89221  -0.00002   0.00000  -0.00019  -0.00019   1.89202
   A23        1.91302   0.00056   0.00001   0.00264   0.00264   1.91567
   A24        1.76356   0.00011   0.00000   0.00080   0.00080   1.76436
    D1        3.13441  -0.00025   0.00000   0.00000   0.00000   3.13441
    D2       -0.54714  -0.00040  -0.00428  -0.00914  -0.01343  -0.56057
    D3       -0.63791  -0.00002  -0.00422  -0.00938  -0.01358  -0.65150
    D4        1.55418  -0.00002  -0.00419  -0.01024  -0.01441   1.53977
    D5       -2.58891   0.00021  -0.00442  -0.00891  -0.01332  -2.60223
    D6        3.08076   0.00010   0.00021  -0.00047  -0.00026   3.08049
    D7       -1.01033   0.00010   0.00024  -0.00133  -0.00109  -1.01143
    D8        1.12976   0.00033   0.00000   0.00000   0.00000   1.12976
    D9       -0.97318  -0.00002  -0.00005  -0.00108  -0.00113  -0.97431
   D10        1.11914  -0.00003  -0.00006  -0.00130  -0.00136   1.11778
   D11       -3.07628  -0.00003  -0.00005  -0.00139  -0.00144  -3.07772
   D12        3.10524   0.00008  -0.00003   0.00026   0.00023   3.10547
   D13       -1.08562   0.00007  -0.00004   0.00004   0.00000  -1.08561
   D14        1.00214   0.00006  -0.00004  -0.00004  -0.00008   1.00207
   D15        1.08251  -0.00004   0.00003  -0.00034  -0.00031   1.08220
   D16       -3.10835  -0.00005   0.00002  -0.00056  -0.00054  -3.10889
   D17       -1.02059  -0.00006   0.00003  -0.00065  -0.00062  -1.02121
   D18        0.95208   0.00006  -0.00009   0.00137   0.00128   0.95336
   D19        3.07081   0.00006  -0.00009   0.00149   0.00140   3.07221
   D20       -1.12018   0.00006  -0.00009   0.00135   0.00126  -1.11892
   D21        3.13147   0.00005  -0.00003   0.00056   0.00053   3.13200
   D22       -1.03299   0.00005  -0.00003   0.00069   0.00066  -1.03233
   D23        1.05921   0.00004  -0.00003   0.00055   0.00051   1.05972
   D24       -1.20867  -0.00010   0.00008   0.00000   0.00008  -1.20859
   D25        0.91005  -0.00010   0.00009   0.00013   0.00021   0.91026
   D26        3.00225  -0.00010   0.00008  -0.00001   0.00007   3.00232
   D27       -1.04845   0.00004   0.00012   0.01154   0.01165  -1.03679
   D28       -3.09447   0.00010  -0.00003   0.01153   0.01149  -3.08297
   D29        1.13152   0.00008  -0.00007   0.01168   0.01161   1.14313
   D30       -1.74087   0.00013  -0.00015   0.02849   0.02834  -1.71253
         Item               Value     Threshold  Converged?
 Maximum Force            0.000555     0.000450     NO 
 RMS     Force            0.000117     0.000300     YES
 Maximum Displacement     0.031437     0.001800     NO 
 RMS     Displacement     0.008011     0.001200     NO 
 Predicted change in Energy=-6.951209D-06
 GradGradGradGradGradGradGradGradGradGradGradGradGradGradGradGradGradGrad

                          Input orientation:                          
 ---------------------------------------------------------------------
 Center     Atomic     Atomic              Coordinates (Angstroms)
 Number     Number      Type              X           Y           Z
 ---------------------------------------------------------------------
    1          6             0       -3.224470    0.878406    0.582226
    2          1             0       -4.301115    0.907041    0.724383
    3          8             0       -2.771085    1.904884   -0.195607
    4          1             0       -1.802228    1.798341   -0.259457
    5          6             0       -2.520345   -0.449433    0.555184
    6          6             0       -3.154748   -1.407164    1.567984
    7          1             0       -3.150018   -0.963105    2.567252
    8          1             0       -4.190221   -1.617038    1.281402
    9          1             0       -2.605000   -2.352708    1.598167
   10          6             0       -2.466172   -1.068563   -0.853692
   11          1             0       -2.020449   -0.373038   -1.570870
   12          1             0       -1.885590   -1.999200   -0.845997
   13          1             0       -3.477990   -1.295287   -1.204940
   14          8             0       -1.152257   -0.333075    1.077994
   15          8             0       -0.396537    0.621265    0.274019
   16          1             0        0.086984    0.022079   -0.322744
 ---------------------------------------------------------------------
                    Distance matrix (angstroms):
                    1          2          3          4          5
     1  C    0.000000
     2  H    1.086367   0.000000
     3  O    1.365371   2.045254   0.000000
     4  H    1.891423   2.829627   0.976786   0.000000
     5  C    1.503223   2.244948   2.483820   2.496360   0.000000
     6  C    2.490062   2.716866   3.771884   3.929900   1.531497
     7  H    2.708696   2.866816   4.000292   4.175213   2.169969
     8  H    2.765639   2.587188   4.074240   4.443148   2.163141
     9  H    3.443251   3.777071   4.623018   4.618053   2.171966
    10  C    2.535264   3.124155   3.060626   3.002178   1.539866
    11  H    2.766153   3.479688   2.764729   2.546038   2.185369
    12  H    3.480379   4.092321   4.055734   3.843474   2.183575
    13  H    2.825451   3.041393   3.429222   3.643165   2.174992
    14  O    2.451028   3.402681   3.041566   2.598879   1.469195
    15  O    2.856277   3.940840   2.739836   1.909469   2.394996
    16  H    3.538078   4.597287   3.424861   2.593884   2.791280
                    6          7          8          9         10
     6  C    0.000000
     7  H    1.093503   0.000000
     8  H    1.094705   1.778500   0.000000
     9  H    1.094160   1.779653   1.776084   0.000000
    10  C    2.540335   3.490219   2.798534   2.771267   0.000000
    11  H    3.494060   4.329915   3.793534   3.782009   1.093969
    12  H    2.790801   3.784513   3.159619   2.572248   1.096914
    13  H    2.793942   3.800967   2.606279   3.120523   1.094785
    14  O    2.324593   2.570190   3.304416   2.541646   2.449231
    15  O    3.660136   3.918010   4.518501   3.933852   2.900110
    16  H    4.015771   4.449814   4.853295   4.071399   2.826661
                   11         12         13         14         15
    11  H    0.000000
    12  H    1.785506   0.000000
    13  H    1.763200   1.777660   0.000000
    14  O    2.787802   2.648677   3.398041   0.000000
    15  O    2.651291   3.215361   3.918653   1.458853   0.000000
    16  H    2.480970   2.872353   3.901637   1.903659   0.974137
                   16
    16  H    0.000000
 Symmetry turned off by external request.
 Stoichiometry    C4H9O3(2)
 Framework group  C1[X(C4H9O3)]
 Deg. of freedom    42
 Full point group                 C1
 Rotational constants (GHZ):      2.9973124      2.4843800      1.9376227
 Standard basis: 6-31G(d) (6D, 7F)
 Integral buffers will be    131072 words long.
 Raffenetti 2 integral format.
 Two-electron integral symmetry is turned off.
   123 basis functions,   232 primitive gaussians,   123 cartesian basis functions
    29 alpha electrons       28 beta electrons
       nuclear repulsion energy       338.8028774430 Hartrees.
 NAtoms=   16 NActive=   16 NUniq=   16 SFac= 7.50D-01 NAtFMM=   80 NAOKFM=F Big=F
 One-electron integrals computed using PRISM.
 NBasis=   123 RedAO= T  NBF=   123
 NBsUse=   123 1.00D-06 NBFU=   123
 Initial guess read from the read-write file:
 <S**2> of initial guess= 0.7531
 Harris functional with IExCor=  402 diagonalized for initial guess.
 ExpMin= 1.61D-01 ExpMax= 5.48D+03 ExpMxC= 8.25D+02 IAcc=1 IRadAn=         1 AccDes= 1.00D-06
 HarFok:  IExCor= 402 AccDes= 1.00D-06 IRadAn=         1 IDoV=1
 ScaDFX=  1.000000  1.000000  1.000000  1.000000
 Requested convergence on RMS density matrix=1.00D-08 within 128 cycles.
 Requested convergence on MAX density matrix=1.00D-06.
 Requested convergence on             energy=1.00D-06.
 No special actions if energy rises.
 Keep R1 and R2 integrals in memory in canonical form, NReq=    60141126.
 Integral accuracy reduced to 1.0D-05 until final iterations.
 Initial convergence to 1.0D-05 achieved.  Increase integral accuracy.
 SCF Done:  E(UB+HF-LYP) =  -383.350772185     A.U. after   12 cycles
             Convg  =    0.5461D-08             -V/T =  2.0089
             S**2   =   0.7531
 Annihilation of the first spin contaminant:
 S**2 before annihilation     0.7531,   after     0.7500
 -------------------------------------------------------------------
 Center     Atomic                   Forces (Hartrees/Bohr)
 Number     Number              X              Y              Z
 -------------------------------------------------------------------
    1          6           0.000213021    0.000189013    0.000010007
    2          1          -0.000036584    0.000118493    0.000306769
    3          8          -0.000471264   -0.000090174   -0.000491874
    4          1           0.000119380   -0.000002812    0.000400597
    5          6           0.000306724   -0.000129592   -0.000238562
    6          6           0.000039313    0.000040200    0.000056340
    7          1           0.000007857    0.000004553   -0.000027485
    8          1          -0.000013692   -0.000016734   -0.000007170
    9          1          -0.000009673   -0.000011009   -0.000001107
   10          6           0.000045736   -0.000018998    0.000090873
   11          1          -0.000015674    0.000083733   -0.000095438
   12          1          -0.000020878    0.000002296   -0.000001674
   13          1           0.000022772    0.000048658   -0.000036863
   14          8          -0.000296299    0.000057644    0.000088987
   15          8          -0.000131902   -0.000182351   -0.000037177
   16          1           0.000241164   -0.000092920   -0.000016222
 -------------------------------------------------------------------
 Cartesian Forces:  Max     0.000491874 RMS     0.000162222

 GradGradGradGradGradGradGradGradGradGradGradGradGradGradGradGradGradGrad
 Berny optimization.
 Internal  Forces:  Max     0.000413991 RMS     0.000130674
 Search for a local minimum.
 Step number   3 out of a maximum of  79 on scan point     1 out of    37
 All quantities printed in internal units (Hartrees-Bohrs-Radians)
 Update second derivatives using D2CorX and points  1  3  2
 Trust test=-1.14D-01 RLast= 4.48D-02 DXMaxT set to 1.50D-01
 Energy Rises -- skip Quadratic search.
 Quartic linear search produced a step of -0.52545.
 Iteration  1 RMS(Cart)=  0.00422612 RMS(Int)=  0.00003600
 Iteration  2 RMS(Cart)=  0.00003266 RMS(Int)=  0.00000158
 Iteration  3 RMS(Cart)=  0.00000000 RMS(Int)=  0.00000158
 Iteration  1 RMS(Cart)=  0.00000025 RMS(Int)=  0.00000017
 Variable       Old X    -DE/DX   Delta X   Delta X   Delta X     New X
                                 (Linear)    (Quad)   (Total)
    R1        2.05294   0.00008  -0.00044   0.00000  -0.00044   2.05249
    R2        2.58018  -0.00014  -0.00026   0.00000  -0.00026   2.57992
    R3        2.84068   0.00028  -0.00096   0.00000  -0.00096   2.83972
    R4        1.84586   0.00008  -0.00001   0.00000  -0.00001   1.84584
    R5        2.89411  -0.00001   0.00009   0.00000   0.00009   2.89420
    R6        2.90993  -0.00001   0.00002   0.00000   0.00002   2.90995
    R7        2.77638  -0.00018  -0.00012   0.00000  -0.00012   2.77626
    R8        2.06642  -0.00002  -0.00001   0.00000  -0.00001   2.06641
    R9        2.06869   0.00002   0.00000   0.00000   0.00000   2.06870
   R10        2.06766   0.00001  -0.00001   0.00000  -0.00001   2.06765
   R11        2.06730   0.00011   0.00007   0.00000   0.00007   2.06737
   R12        2.07287  -0.00001   0.00001   0.00000   0.00001   2.07288
   R13        2.06884  -0.00002  -0.00004   0.00000  -0.00004   2.06880
   R14        2.75683  -0.00009   0.00004   0.00000   0.00004   2.75687
   R15        1.84085   0.00018   0.00006   0.00000   0.00006   1.84091
    A1        1.96473  -0.00006   0.00079   0.00000   0.00079   1.96552
    A2        2.08272  -0.00003   0.00235   0.00000   0.00236   2.08508
    A3        2.09242   0.00009   0.00042   0.00000   0.00043   2.09285
    A4        1.85939  -0.00041  -0.00027   0.00000  -0.00027   1.85911
    A5        1.92460  -0.00013  -0.00005   0.00000  -0.00005   1.92454
    A6        1.96936  -0.00002   0.00055   0.00000   0.00055   1.96991
    A7        1.93887   0.00015  -0.00053   0.00000  -0.00053   1.93834
    A8        1.94786   0.00015   0.00005   0.00000   0.00005   1.94791
    A9        1.77208  -0.00015   0.00038   0.00000   0.00038   1.77247
   A10        1.90145  -0.00001  -0.00044   0.00000  -0.00044   1.90101
   A11        1.92685  -0.00003  -0.00006   0.00000  -0.00006   1.92680
   A12        1.91621   0.00001   0.00012   0.00000   0.00012   1.91633
   A13        1.92893   0.00001  -0.00009   0.00000  -0.00009   1.92884
   A14        1.89777   0.00001   0.00007   0.00000   0.00007   1.89783
   A15        1.90027   0.00001  -0.00005   0.00000  -0.00005   1.90022
   A16        1.89315  -0.00001   0.00002   0.00000   0.00002   1.89317
   A17        1.93747   0.00001   0.00033   0.00000   0.00033   1.93780
   A18        1.93191   0.00000   0.00014   0.00000   0.00014   1.93205
   A19        1.92229   0.00003  -0.00021   0.00000  -0.00021   1.92207
   A20        1.90536   0.00001  -0.00030   0.00000  -0.00030   1.90505
   A21        1.87328  -0.00005  -0.00006   0.00000  -0.00006   1.87322
   A22        1.89202   0.00000   0.00010   0.00000   0.00010   1.89212
   A23        1.91567   0.00032  -0.00139   0.00000  -0.00139   1.91428
   A24        1.76436   0.00008  -0.00042   0.00000  -0.00042   1.76394
    D1        3.13441  -0.00030   0.00000   0.00000   0.00000   3.13441
    D2       -0.56057  -0.00030   0.00706   0.00000   0.00706  -0.55352
    D3       -0.65150   0.00002   0.00714   0.00000   0.00714  -0.64436
    D4        1.53977   0.00010   0.00757   0.00000   0.00757   1.54734
    D5       -2.60223   0.00019   0.00700   0.00000   0.00700  -2.59523
    D6        3.08049   0.00002   0.00014   0.00000   0.00014   3.08063
    D7       -1.01143   0.00010   0.00057   0.00000   0.00058  -1.01085
    D8        1.12976   0.00019   0.00000   0.00000   0.00000   1.12976
    D9       -0.97431  -0.00002   0.00059   0.00000   0.00059  -0.97372
   D10        1.11778  -0.00001   0.00071   0.00000   0.00071   1.11850
   D11       -3.07772  -0.00002   0.00076   0.00000   0.00076  -3.07696
   D12        3.10547   0.00000  -0.00012   0.00000  -0.00012   3.10535
   D13       -1.08561   0.00000   0.00000   0.00000   0.00000  -1.08562
   D14        1.00207   0.00000   0.00004   0.00000   0.00004   1.00211
   D15        1.08220   0.00002   0.00016   0.00000   0.00016   1.08236
   D16       -3.10889   0.00003   0.00028   0.00000   0.00028  -3.10861
   D17       -1.02121   0.00002   0.00032   0.00000   0.00032  -1.02088
   D18        0.95336   0.00006  -0.00067   0.00000  -0.00067   0.95269
   D19        3.07221   0.00009  -0.00074   0.00000  -0.00074   3.07148
   D20       -1.11892   0.00010  -0.00066   0.00000  -0.00066  -1.11958
   D21        3.13200  -0.00001  -0.00028   0.00000  -0.00028   3.13172
   D22       -1.03233   0.00001  -0.00034   0.00000  -0.00034  -1.03267
   D23        1.05972   0.00003  -0.00027   0.00000  -0.00027   1.05945
   D24       -1.20859  -0.00012  -0.00004   0.00000  -0.00004  -1.20864
   D25        0.91026  -0.00009  -0.00011   0.00000  -0.00011   0.91015
   D26        3.00232  -0.00007  -0.00004   0.00000  -0.00004   3.00228
   D27       -1.03679  -0.00030  -0.00612   0.00000  -0.00612  -1.04292
   D28       -3.08297  -0.00013  -0.00604   0.00000  -0.00604  -3.08901
   D29        1.14313  -0.00023  -0.00610   0.00000  -0.00610   1.13703
   D30       -1.71253  -0.00032  -0.01489   0.00000  -0.01489  -1.72742
         Item               Value     Threshold  Converged?
 Maximum Force            0.000414     0.000450     YES
 RMS     Force            0.000115     0.000300     YES
 Maximum Displacement     0.016584     0.001800     NO 
 RMS     Displacement     0.004218     0.001200     NO 
 Predicted change in Energy=-3.317800D-06
 GradGradGradGradGradGradGradGradGradGradGradGradGradGradGradGradGradGrad

                          Input orientation:                          
 ---------------------------------------------------------------------
 Center     Atomic     Atomic              Coordinates (Angstroms)
 Number     Number      Type              X           Y           Z
 ---------------------------------------------------------------------
    1          6             0       -3.226065    0.878407    0.582560
    2          1             0       -4.301541    0.909091    0.731202
    3          8             0       -2.773972    1.905722   -0.194681
    4          1             0       -1.805825    1.796283   -0.264045
    5          6             0       -2.521204   -0.448459    0.555010
    6          6             0       -3.155015   -1.407040    1.567447
    7          1             0       -3.151165   -0.963057    2.566748
    8          1             0       -4.190113   -1.618176    1.280431
    9          1             0       -2.604094   -2.351889    1.597790
   10          6             0       -2.465572   -1.067358   -0.853922
   11          1             0       -2.020580   -0.371336   -1.571128
   12          1             0       -1.883627   -1.997148   -0.846256
   13          1             0       -3.476990   -1.295397   -1.205402
   14          8             0       -1.153328   -0.330518    1.077843
   15          8             0       -0.397909    0.618949    0.267802
   16          1             0        0.095760    0.015330   -0.316094
 ---------------------------------------------------------------------
                    Distance matrix (angstroms):
                    1          2          3          4          5
     1  C    0.000000
     2  H    1.086133   0.000000
     3  O    1.365236   2.045483   0.000000
     4  H    1.891116   2.829528   0.976778   0.000000
     5  C    1.502717   2.245793   2.483565   2.494290   0.000000
     6  C    2.489642   2.716301   3.771562   3.928862   1.531543
     7  H    2.708062   2.863133   3.999707   4.175798   2.169966
     8  H    2.765743   2.588657   4.074220   4.441708   2.163269
     9  H    3.442724   3.777074   4.622668   4.616383   2.171936
    10  C    2.535317   3.128858   3.060868   2.997276   1.539877
    11  H    2.766482   3.484681   2.765357   2.540307   2.185643
    12  H    3.480297   4.096451   4.055818   3.838639   2.183687
    13  H    2.825808   3.047964   3.429716   3.638328   2.174829
    14  O    2.450111   3.401182   3.040818   2.598018   1.469132
    15  O    2.857422   3.941734   2.741414   1.910813   2.393790
    16  H    3.547817   4.607809   3.438558   2.605864   2.796860
                    6          7          8          9         10
     6  C    0.000000
     7  H    1.093498   0.000000
     8  H    1.094707   1.778540   0.000000
     9  H    1.094154   1.779612   1.776094   0.000000
    10  C    2.540422   3.490258   2.798733   2.771299   0.000000
    11  H    3.494320   4.330170   3.793793   3.782210   1.094005
    12  H    2.791167   3.784784   3.160110   2.572600   1.096918
    13  H    2.793711   3.800753   2.606165   3.120257   1.094762
    14  O    2.324944   2.570661   3.304719   2.541851   2.448803
    15  O    3.659965   3.920245   4.517849   3.932175   2.894327
    16  H    4.017263   4.450904   4.856537   4.068893   2.832296
                   11         12         13         14         15
    11  H    0.000000
    12  H    1.785346   0.000000
    13  H    1.763171   1.777708   0.000000
    14  O    2.787623   2.648235   3.397588   0.000000
    15  O    2.644881   3.208185   3.913540   1.458874   0.000000
    16  H    2.490686   2.872127   3.908122   1.903390   0.974166
                   16
    16  H    0.000000
 Symmetry turned off by external request.
 Stoichiometry    C4H9O3(2)
 Framework group  C1[X(C4H9O3)]
 Deg. of freedom    42
 Full point group                 C1
 Rotational constants (GHZ):      2.9960098      2.4862206      1.9379049
 Standard basis: 6-31G(d) (6D, 7F)
 Integral buffers will be    131072 words long.
 Raffenetti 2 integral format.
[...]
    10  C   -0.085914   0.002263  -0.001511   0.000949   0.347209  -0.054562
    11  H   -0.007794  -0.000050   0.006340   0.001386  -0.024779   0.005195
    12  H    0.005746  -0.000135   0.000049  -0.000058  -0.023744  -0.005466
    13  H    0.002073   0.000241  -0.000289  -0.000020  -0.024184  -0.003849
    14  O   -0.049430   0.002992  -0.000354  -0.002502   0.147198  -0.042752
    15  O    0.003739  -0.000073  -0.020110   0.052446  -0.030975   0.003668
    16  H    0.001669   0.000005   0.001169  -0.002110   0.001738  -0.000395
              7          8          9         10         11         12
     1  C   -0.000859  -0.002979   0.004374  -0.085914  -0.007794   0.005746
     2  H    0.000932   0.002103  -0.000157   0.002263  -0.000050  -0.000135
     3  O   -0.000034  -0.000003  -0.000060  -0.001511   0.006340   0.000049
     4  H    0.000011   0.000011   0.000011   0.000949   0.001386  -0.000058
     5  C   -0.027421  -0.026734  -0.022156   0.347209  -0.024779  -0.023744
     6  C    0.363069   0.365353   0.363167  -0.054562   0.005195  -0.005466
     7  H    0.547451  -0.026274  -0.028005   0.006395  -0.000162  -0.000128
     8  H   -0.026274   0.554419  -0.026707  -0.001966   0.000002   0.000025
     9  H   -0.028005  -0.026707   0.547098  -0.006121  -0.000081   0.004018
    10  C    0.006395  -0.001966  -0.006121   5.215630   0.369994   0.356058
    11  H   -0.000162   0.000002  -0.000081   0.369994   0.548578  -0.028025
    12  H   -0.000128   0.000025   0.004018   0.356058  -0.028025   0.564103
    13  H   -0.000094   0.002105   0.000255   0.356263  -0.029053  -0.027391
    14  O   -0.000071   0.003098   0.000266  -0.063805  -0.004701   0.002587
    15  O   -0.000071  -0.000080  -0.000069  -0.003204   0.003552  -0.000365
    16  H    0.000004   0.000005   0.000012   0.000303  -0.000139  -0.000016
             13         14         15         16
     1  C    0.002073  -0.049430   0.003739   0.001669
     2  H    0.000241   0.002992  -0.000073   0.000005
     3  O   -0.000289  -0.000354  -0.020110   0.001169
     4  H   -0.000020  -0.002502   0.052446  -0.002110
     5  C   -0.024184   0.147198  -0.030975   0.001738
     6  C   -0.003849  -0.042752   0.003668  -0.000395
     7  H   -0.000094  -0.000071  -0.000071   0.000004
     8  H    0.002105   0.003098  -0.000080   0.000005
     9  H    0.000255   0.000266  -0.000069   0.000012
    10  C    0.356263  -0.063805  -0.003204   0.000303
    11  H   -0.029053  -0.004701   0.003552  -0.000139
    12  H   -0.027391   0.002587  -0.000365  -0.000016
    13  H    0.574735   0.003345   0.000040  -0.000008
    14  O    0.003345   8.271214   0.054155  -0.016389
    15  O    0.000040   0.054155   8.143843   0.220987
    16  H   -0.000008  -0.016389   0.220987   0.367191
 Mulliken atomic charges:
              1
     1  C    0.051168
     2  H    0.132268
     3  O   -0.585042
     4  H    0.420749
     5  C    0.252342
     6  C   -0.472489
     7  H    0.165256
     8  H    0.157620
     9  H    0.164154
    10  C   -0.437980
    11  H    0.159738
    12  H    0.152744
    13  H    0.145831
    14  O   -0.304851
    15  O   -0.427483
    16  H    0.425974
 Sum of Mulliken charges=   0.00000
 Atomic charges with hydrogens summed into heavy atoms:
              1
     1  C    0.183437
     2  H    0.000000
     3  O   -0.164294
     4  H    0.000000
     5  C    0.252342
     6  C    0.014541
     7  H    0.000000
     8  H    0.000000
     9  H    0.000000
    10  C    0.020333
    11  H    0.000000
    12  H    0.000000
    13  H    0.000000
    14  O   -0.304851
    15  O   -0.001509
    16  H    0.000000
 Sum of Mulliken charges=   0.00000
          Atomic-Atomic Spin Densities.
              1          2          3          4          5          6
     1  C    1.044931  -0.012637  -0.143914  -0.000402   0.023980  -0.012036
     2  H   -0.012637  -0.033781   0.000899  -0.000245   0.005302   0.000398
     3  O   -0.143914   0.000899   0.290485  -0.001332  -0.003593   0.000195
     4  H   -0.000402  -0.000245  -0.001332  -0.003249   0.000045   0.000004
     5  C    0.023980   0.005302  -0.003593   0.000045  -0.004897  -0.002861
     6  C   -0.012036   0.000398   0.000195   0.000004  -0.002861   0.014518
     7  H    0.005237  -0.000532  -0.000049   0.000000  -0.000936  -0.003845
     8  H    0.000163   0.000100  -0.000005   0.000000   0.000491  -0.000100
     9  H    0.000135  -0.000031  -0.000001  -0.000001   0.000374  -0.000062
    10  C   -0.028965  -0.001928   0.003536  -0.000104  -0.018060   0.003763
    11  H   -0.003143  -0.000075   0.000989   0.000005   0.000350   0.000085
    12  H    0.001243   0.000049  -0.000110   0.000005   0.001155  -0.000680
    13  H    0.001479   0.000053  -0.000163  -0.000001   0.000692  -0.000143
    14  O   -0.018685   0.000462   0.000910   0.000036  -0.014716   0.002753
    15  O    0.000113   0.000002  -0.000055   0.000415   0.000369   0.000001
    16  H    0.000323  -0.000006  -0.000192  -0.000061   0.000199  -0.000006
              7          8          9         10         11         12
     1  C    0.005237   0.000163   0.000135  -0.028965  -0.003143   0.001243
     2  H   -0.000532   0.000100  -0.000031  -0.001928  -0.000075   0.000049
     3  O   -0.000049  -0.000005  -0.000001   0.003536   0.000989  -0.000110
     4  H    0.000000   0.000000  -0.000001  -0.000104   0.000005   0.000005
     5  C   -0.000936   0.000491   0.000374  -0.018060   0.000350   0.001155
     6  C   -0.003845  -0.000100  -0.000062   0.003763   0.000085  -0.000680
     7  H    0.001694   0.000017   0.000454   0.000911   0.000013  -0.000081
     8  H    0.000017  -0.000593   0.000209  -0.000409  -0.000007   0.000061
     9  H    0.000454   0.000209  -0.002705   0.000520   0.000009  -0.000237
    10  C    0.000911  -0.000409   0.000520   0.084878   0.002676  -0.006746
    11  H    0.000013  -0.000007   0.000009   0.002676  -0.000477  -0.001853
    12  H   -0.000081   0.000061  -0.000237  -0.006746  -0.001853   0.013704
    13  H   -0.000019  -0.000001  -0.000013  -0.001398   0.000071   0.000561
    14  O   -0.001394   0.000050  -0.000158  -0.011941  -0.000686   0.001276
    15  O    0.000001   0.000000   0.000004   0.000078   0.000028   0.000014
    16  H    0.000005   0.000000   0.000000   0.000045   0.000018  -0.000006
             13         14         15         16
     1  C    0.001479  -0.018685   0.000113   0.000323
     2  H    0.000053   0.000462   0.000002  -0.000006
     3  O   -0.000163   0.000910  -0.000055  -0.000192
     4  H   -0.000001   0.000036   0.000415  -0.000061
     5  C    0.000692  -0.014716   0.000369   0.000199
     6  C   -0.000143   0.002753   0.000001  -0.000006
     7  H   -0.000019  -0.001394   0.000001   0.000005
     8  H   -0.000001   0.000050   0.000000   0.000000
     9  H   -0.000013  -0.000158   0.000004   0.000000
    10  C   -0.001398  -0.011941   0.000078   0.000045
    11  H    0.000071  -0.000686   0.000028   0.000018
    12  H    0.000561   0.001276   0.000014  -0.000006
    13  H   -0.001592   0.000105  -0.000001   0.000000
    14  O    0.000105   0.063538  -0.000406  -0.000217
    15  O   -0.000001  -0.000406  -0.002689  -0.000060
    16  H    0.000000  -0.000217  -0.000060  -0.000026
 Mulliken atomic spin densities:
              1
     1  C    0.857822
     2  H   -0.041971
     3  O    0.147600
     4  H   -0.004883
     5  C   -0.012105
     6  C    0.001984
     7  H    0.001478
     8  H   -0.000025
     9  H   -0.001503
    10  C    0.026856
    11  H   -0.001996
    12  H    0.008355
    13  H   -0.000370
    14  O    0.020928
    15  O   -0.002187
    16  H    0.000016
 Sum of Mulliken spin densities=   1.00000
 Electronic spatial extent (au):  <R**2>=  1843.1913
 Charge=     0.0000 electrons
 Dipole moment (field-independent basis, Debye):
    X=    -0.0429    Y=    -0.7271    Z=     0.5834  Tot=     0.9332
 Quadrupole moment (field-independent basis, Debye-Ang):
   XX=   -40.5148   YY=   -45.3698   ZZ=   -38.7361
   XY=     5.9701   XZ=     1.4678   YZ=     2.9585
 Traceless Quadrupole moment (field-independent basis, Debye-Ang):
   XX=     1.0254   YY=    -3.8296   ZZ=     2.8041
   XY=     5.9701   XZ=     1.4678   YZ=     2.9585
 Octapole moment (field-independent basis, Debye-Ang**2):
  XXX=   279.3818  YYY=     9.4254  ZZZ=   -43.9951  XYY=   110.1338
  XXY=   -11.9254  XXZ=   -25.6455  XZZ=   100.4651  YZZ=    13.6954
  YYZ=   -18.9302  XYZ=    -0.5137
 Hexadecapole moment (field-independent basis, Debye-Ang**3):
 XXXX= -1591.3981 YYYY=  -411.6068 ZZZZ=  -235.2759 XXXY=   -26.8851
 XXXZ=   134.4891 YYYX=   -39.2118 YYYZ=     1.5270 ZZZX=   114.2257
 ZZZY=    17.1054 XXYY=  -378.0326 XXZZ=  -336.3375 YYZZ=  -112.2496
 XXYZ=    -6.0299 YYXZ=    40.5672 ZZXY=   -26.5331
 N-N= 3.385726509104D+02 E-N=-1.574560294683D+03  KE= 3.799727508443D+02
                          Isotropic Fermi Contact Couplings
        Atom                 a.u.       MegaHertz       Gauss      10(-4) cm-1
     1  C(13)              0.15021     168.85953      60.25328      56.32548
     2  H(1)              -0.01194     -53.36101     -19.04054     -17.79932
     3  O(17)              0.03948     -23.93230      -8.53964      -7.98296
     4  H(1)              -0.00180      -8.05534      -2.87434      -2.68697
     5  C(13)             -0.01887     -21.21877      -7.57138      -7.07782
     6  C(13)              0.00333       3.74657       1.33687       1.24972
     7  H(1)              -0.00009      -0.38424      -0.13711      -0.12817
     8  H(1)               0.00025       1.10757       0.39521       0.36944
     9  H(1)              -0.00051      -2.28694      -0.81604      -0.76284
    10  C(13)              0.02722      30.60374      10.92017      10.20831
    11  H(1)              -0.00063      -2.81202      -1.00340      -0.93799
    12  H(1)               0.00377      16.86476       6.01776       5.62548
    13  H(1)               0.00045       1.99550       0.71204       0.66563
    14  O(17)              0.02271     -13.76730      -4.91251      -4.59228
    15  O(17)             -0.00072       0.43363       0.15473       0.14464
    16  H(1)               0.00001       0.06416       0.02289       0.02140
 --------------------------------------------------------
       Center         ----  Spin Dipole Couplings  ----
                      3XX-RR        3YY-RR        3ZZ-RR
 --------------------------------------------------------
     1   Atom       -0.462834     -0.483564      0.946398
     2   Atom        0.057198     -0.057466      0.000268
     3   Atom       -0.367830     -0.441074      0.808904
     4   Atom        0.044086     -0.024065     -0.020021
     5   Atom        0.008315      0.010968     -0.019283
     6   Atom       -0.009129      0.012504     -0.003375
     7   Atom       -0.004467      0.008798     -0.004331
     8   Atom       -0.002315      0.006550     -0.004234
     9   Atom       -0.003377      0.006293     -0.002916
    10   Atom        0.008473     -0.017761      0.009288
    11   Atom        0.003937     -0.001969     -0.001968
    12   Atom       -0.001686      0.004041     -0.002356
    13   Atom       -0.005993     -0.002178      0.008171
    14   Atom        0.015262      0.011822     -0.027085
    15   Atom        0.013117     -0.013574      0.000457
    16   Atom        0.004569     -0.003439     -0.001130
 --------------------------------------------------------
                        XY            XZ            YZ
 --------------------------------------------------------
     1   Atom       -0.012385     -0.166165      0.077664
     2   Atom       -0.018659      0.025425     -0.000628
     3   Atom       -0.014978     -0.242170      0.053434
     4   Atom       -0.004380      0.007712     -0.002175
     5   Atom       -0.030680      0.005049     -0.007613
     6   Atom        0.004152      0.001282      0.002649
     7   Atom        0.005751     -0.003146     -0.005031
     8   Atom        0.005872      0.001494      0.003035
     9   Atom       -0.000092     -0.000232     -0.000254
    10   Atom       -0.012878     -0.032054      0.013333
    11   Atom       -0.002171     -0.007812      0.002592
    12   Atom       -0.004781     -0.002457      0.001466
    13   Atom       -0.002731     -0.001052      0.006850
    14   Atom       -0.072316      0.058130     -0.055078
    15   Atom       -0.009157      0.007746     -0.000327
    16   Atom       -0.000823      0.005583     -0.000587
 --------------------------------------------------------


 ---------------------------------------------------------------------------------
              Anisotropic Spin Dipole Couplings in Principal Axis System
 ---------------------------------------------------------------------------------

       Atom             a.u.   MegaHertz   Gauss  10(-4) cm-1        Axes

              Baa    -0.4893   -65.666   -23.431   -21.904  0.4226  0.9063 -0.0001
     1 C(13)  Bbb    -0.4806   -64.495   -23.013   -21.513  0.8989 -0.4192  0.1275
              Bcc     0.9700   130.161    46.445    43.417 -0.1155  0.0540  0.9918
 
              Baa    -0.0606   -32.349   -11.543   -10.790  0.1688  0.9838 -0.0603
     2 H(1)   Bbb    -0.0087    -4.662    -1.663    -1.555 -0.3292  0.1140  0.9374
              Bcc     0.0694    37.011    13.206    12.346  0.9290 -0.1384  0.3431
 
              Baa    -0.4441    32.134    11.466    10.719  0.1559  0.9877 -0.0120
     3 O(17)  Bbb    -0.4151    30.033    10.717    10.018  0.9685 -0.1505  0.1982
              Bcc     0.8591   -62.167   -22.183   -20.737 -0.1940  0.0425  0.9801
 
              Baa    -0.0250   -13.354    -4.765    -4.454  0.0167  0.9262  0.3766
     4 H(1)   Bbb    -0.0203   -10.819    -3.861    -3.609 -0.1353 -0.3711  0.9187
              Bcc     0.0453    24.173     8.626     8.063  0.9907 -0.0663  0.1192
 
              Baa    -0.0225    -3.014    -1.075    -1.005  0.4815  0.5896  0.6484
     5 C(13)  Bbb    -0.0192    -2.579    -0.920    -0.860 -0.5511 -0.3716  0.7471
              Bcc     0.0417     5.593     1.996     1.866 -0.6815  0.7171 -0.1460
 
              Baa    -0.0100    -1.341    -0.479    -0.447  0.9784 -0.1661 -0.1230
     6 C(13)  Bbb    -0.0038    -0.503    -0.180    -0.168  0.0919 -0.1830  0.9788
              Bcc     0.0137     1.844     0.658     0.615  0.1851  0.9690  0.1638
 
              Baa    -0.0076    -4.052    -1.446    -1.352  0.7770 -0.0810  0.6243
     7 H(1)   Bbb    -0.0053    -2.837    -1.012    -0.946 -0.5237  0.4672  0.7123
              Bcc     0.0129     6.889     2.458     2.298  0.3494  0.8804 -0.3206
 
              Baa    -0.0052    -2.796    -0.998    -0.933  0.8856 -0.4591  0.0699
     8 H(1)   Bbb    -0.0050    -2.680    -0.956    -0.894 -0.1653 -0.1709  0.9713
              Bcc     0.0103     5.476     1.954     1.827  0.4340  0.8718  0.2272
 
              Baa    -0.0035    -1.855    -0.662    -0.619  0.9210  0.0188  0.3890
     9 H(1)   Bbb    -0.0028    -1.507    -0.538    -0.503 -0.3894  0.0217  0.9208
              Bcc     0.0063     3.362     1.200     1.121 -0.0089  0.9996 -0.0273
 
              Baa    -0.0233    -3.133    -1.118    -1.045  0.4072 -0.6329  0.6585
    10 C(13)  Bbb    -0.0230    -3.080    -1.099    -1.027  0.6160  0.7227  0.3136
              Bcc     0.0463     6.213     2.217     2.072 -0.6743  0.2779  0.6841
 
              Baa    -0.0075    -4.018    -1.434    -1.340  0.5305 -0.1791  0.8285
    11 H(1)   Bbb    -0.0027    -1.431    -0.511    -0.477  0.3152  0.9490  0.0033
              Bcc     0.0102     5.448     1.944     1.817  0.7869 -0.2594 -0.5599
 
              Baa    -0.0052    -2.796    -0.998    -0.933  0.7949  0.3288  0.5100
    12 H(1)   Bbb    -0.0022    -1.150    -0.410    -0.384 -0.3391 -0.4563  0.8227
              Bcc     0.0074     3.946     1.408     1.316 -0.5032  0.8269  0.2511
 
              Baa    -0.0079    -4.222    -1.506    -1.408  0.7591  0.6154 -0.2125
    13 H(1)   Bbb    -0.0039    -2.098    -0.749    -0.700 -0.6395  0.6439 -0.4200
              Bcc     0.0118     6.320     2.255     2.108 -0.1216  0.4546  0.8823
 
              Baa    -0.0687     4.971     1.774     1.658 -0.4022  0.2426  0.8828
    14 O(17)  Bbb    -0.0587     4.246     1.515     1.416  0.6573  0.7477  0.0940
              Bcc     0.1274    -9.218    -3.289    -3.075  0.6373 -0.6181  0.4602
 
              Baa    -0.0167     1.206     0.430     0.402  0.3216  0.9382 -0.1275
    15 O(17)  Bbb    -0.0023     0.169     0.060     0.056 -0.3209  0.2347  0.9176
              Bcc     0.0190    -1.375    -0.491    -0.459  0.8908 -0.2542  0.3766
 
              Baa    -0.0046    -2.429    -0.867    -0.810 -0.5163  0.0685  0.8537
    16 H(1)   Bbb    -0.0035    -1.879    -0.671    -0.627  0.1102  0.9938 -0.0131
              Bcc     0.0081     4.309     1.537     1.437  0.8493 -0.0873  0.5206
 

 ---------------------------------------------------------------------------------

 1\1\GINC-NODE02\Scan\UB3LYP\6-31G(d)\C4H9O3(2)\NYEE\12-Jul-2013\0\\# o
 pt=(addred) b3lyp/6-31g(d) nosymm\\Title Card Required\\0,2\C,-3.23428
 67947,0.8109322167,0.4327697791\H,-4.2693983622,0.9463083549,0.1362762
 445\O,-2.4799885136,1.9401211921,0.287000235\H,-1.5808835424,1.7011497
 324,0.5875352509\C,-2.5873059071,-0.5416565248,0.3682025731\C,-3.61985
 87057,-1.6410168852,0.6360642318\H,-4.1345359094,-1.4649421643,1.58506
 41733\H,-4.3613248231,-1.6530495794,-0.169062449\H,-3.1323088605,-2.61
 95280995,0.672864105\C,-1.8320094935,-0.7829328463,-0.952066731\H,-1.0
 787694836,-0.008166058,-1.1179939095\H,-1.3313890858,-1.7570010028,-0.
 9319020393\H,-2.5308620196,-0.7592514563,-1.7950428933\O,-1.6492097419
 ,-0.7424160769,1.478118895\O,-0.6008882491,0.2876835722,1.4108164737\H
 ,-0.6082205077,0.5571696253,2.3466610608\\Version=AM64L-G03RevD.01\HF=
 -383.3507777,-383.3502895,-383.3486608,-383.346537,-383.3447921,-383.3
 438661,-383.3433739,-383.3430391,-383.3428867,-383.342861,-383.3428469
 ,-383.3427563,-383.3424223,-383.3417351,-383.3407146,-383.3397302,-383
 .3394033,-383.3413,-383.3417523,-383.3424273,-383.3432202,-383.3443652
 ,-383.3460315,-383.3479704,-383.3496718,-383.3506008,-383.3504522,-383
 .349399,-383.3479586,-383.3470226,-383.3463738,-383.346119,-383.346315
 1,-383.3469841,-383.3483318,-383.3497556,-383.3508242\S2=0.75313,0.753
 062,0.753062,0.753166,0.753389,0.753595,0.753571,0.753449,0.753326,0.7
 53207,0.753107,0.753036,0.752988,0.752971,0.752989,0.753084,0.75335,0.
 75342,0.753541,0.753629,0.75357,0.753333,0.753147,0.753048,0.75302,0.7
 53069,0.753178,0.753313,0.753282,0.753219,0.7533,0.753402,0.753528,0.7
 53681,0.753481,0.753351,0.753271\S2-1=0.,0.,0.,0.,0.,0.,0.,0.,0.,0.,0.
 ,0.,0.,0.,0.,0.,0.,0.,0.,0.,0.,0.,0.,0.,0.,0.,0.,0.,0.,0.,0.,0.,0.,0.,
 0.,0.,0.\S2A=0.750007,0.750007,0.750007,0.750007,0.750008,0.750009,0.7
 50009,0.750008,0.750008,0.750007,0.750007,0.750006,0.750006,0.750006,0
 .750006,0.750007,0.750008,0.750008,0.750009,0.750009,0.750009,0.750008
 ,0.750007,0.750006,0.750006,0.750007,0.750007,0.750008,0.750008,0.7500
 07,0.750008,0.750008,0.750008,0.750009,0.750008,0.750008,0.750008\RMSD
 =4.059e-09,9.493e-09,4.499e-09,4.940e-09,5.362e-09,7.374e-09,5.451e-09
 ,4.871e-09,7.654e-09,5.337e-09,4.182e-09,4.235e-09,5.323e-09,3.140e-09
 ,6.034e-09,5.498e-09,7.139e-09,6.618e-09,7.304e-09,8.592e-09,5.702e-09
 ,9.702e-09,7.979e-09,9.361e-09,7.552e-09,3.637e-09,4.506e-09,4.245e-09
 ,6.606e-09,4.439e-09,4.994e-09,7.573e-09,5.770e-09,7.927e-09,9.422e-09
 ,5.750e-09,8.557e-09\Thermal=0.,0.,0.,0.,0.,0.,0.,0.,0.,0.,0.,0.,0.,0.
 ,0.,0.,0.,0.,0.,0.,0.,0.,0.,0.,0.,0.,0.,0.,0.,0.,0.,0.,0.,0.,0.,0.,0.\
 PG=C01 [X(C4H9O3)]\\@


 EVERY WORD THAT YOU WRITE IS A BLOW THAT SMITES THE DEVIL.
     -- ST. BERNARD OF CLAIRVAUX
 Job cpu time:  1 days 16 hours 53 minutes 36.6 seconds.
 File lengths (MBytes):  RWF=     28 Int=      0 D2E=      0 Chk=     10 Scr=      1
 Normal termination of Gaussian 03 at Fri Jul 12 02:41:24 2013.
