 Entering Gaussian System, Link 0=g03
 Input=p6_4.gjf
 Output=p6_4.log
 Initial command:
 /opt/g03/l1.exe /scratch/nyee/Gau-11797.inp -scrdir=/scratch/nyee/
 Entering Link 1 = /opt/g03/l1.exe PID=     11799.
  
 Copyright (c) 1988,1990,1992,1993,1995,1998,2003,2004, Gaussian, Inc.
                  All Rights Reserved.
  
 This is the Gaussian(R) 03 program.  It is based on the
 the Gaussian(R) 98 system (copyright 1998, Gaussian, Inc.),
 the Gaussian(R) 94 system (copyright 1995, Gaussian, Inc.),
 the Gaussian 92(TM) system (copyright 1992, Gaussian, Inc.),
 the Gaussian 90(TM) system (copyright 1990, Gaussian, Inc.),
 the Gaussian 88(TM) system (copyright 1988, Gaussian, Inc.),
 the Gaussian 86(TM) system (copyright 1986, Carnegie Mellon
 University), and the Gaussian 82(TM) system (copyright 1983,
 Carnegie Mellon University). Gaussian is a federally registered
 trademark of Gaussian, Inc.
  
 This software contains proprietary and confidential information,
 including trade secrets, belonging to Gaussian, Inc.
  
 This software is provided under written license and may be
 used, copied, transmitted, or stored only in accord with that
 written license.
  
 The following legend is applicable only to US Government
 contracts under FAR:
  
                    RESTRICTED RIGHTS LEGEND
  
 Use, reproduction and disclosure by the US Government is
 subject to restrictions as set forth in subparagraphs (a)
 and (c) of the Commercial Computer Software - Restricted
 Rights clause in FAR 52.227-19.
  
 Gaussian, Inc.
 340 Quinnipiac St., Bldg. 40, Wallingford CT 06492
  
  
 ---------------------------------------------------------------
 Warning -- This program may not be used in any manner that
 competes with the business of Gaussian, Inc. or will provide
 assistance to any competitor of Gaussian, Inc.  The licensee
 of this program is prohibited from giving any competitor of
 Gaussian, Inc. access to this program.  By using this program,
 the user acknowledges that Gaussian, Inc. is engaged in the
 business of creating and licensing software in the field of
 computational chemistry and represents and warrants to the
 licensee that it is not a competitor of Gaussian, Inc. and that
 it will not use this program in any manner prohibited above.
 ---------------------------------------------------------------
  

 Cite this work as:
 Gaussian 03, Revision D.01,
 M. J. Frisch, G. W. Trucks, H. B. Schlegel, G. E. Scuseria, 
 M. A. Robb, J. R. Cheeseman, J. A. Montgomery, Jr., T. Vreven, 
 K. N. Kudin, J. C. Burant, J. M. Millam, S. S. Iyengar, J. Tomasi, 
 V. Barone, B. Mennucci, M. Cossi, G. Scalmani, N. Rega, 
 G. A. Petersson, H. Nakatsuji, M. Hada, M. Ehara, K. Toyota, 
 R. Fukuda, J. Hasegawa, M. Ishida, T. Nakajima, Y. Honda, O. Kitao, 
 H. Nakai, M. Klene, X. Li, J. E. Knox, H. P. Hratchian, J. B. Cross, 
 V. Bakken, C. Adamo, J. Jaramillo, R. Gomperts, R. E. Stratmann, 
 O. Yazyev, A. J. Austin, R. Cammi, C. Pomelli, J. W. Ochterski, 
 P. Y. Ayala, K. Morokuma, G. A. Voth, P. Salvador, J. J. Dannenberg, 
 V. G. Zakrzewski, S. Dapprich, A. D. Daniels, M. C. Strain, 
 O. Farkas, D. K. Malick, A. D. Rabuck, K. Raghavachari, 
 J. B. Foresman, J. V. Ortiz, Q. Cui, A. G. Baboul, S. Clifford, 
 J. Cioslowski, B. B. Stefanov, G. Liu, A. Liashenko, P. Piskorz, 
 I. Komaromi, R. L. Martin, D. J. Fox, T. Keith, M. A. Al-Laham, 
 C. Y. Peng, A. Nanayakkara, M. Challacombe, P. M. W. Gill, 
 B. Johnson, W. Chen, M. W. Wong, C. Gonzalez, and J. A. Pople, 
 Gaussian, Inc., Wallingford CT, 2004.
 
 ******************************************
 Gaussian 03:  AM64L-G03RevD.01 13-Oct-2005
                11-Jul-2013 
 ******************************************
 %chk=p6_4.chk
 %mem=1000mb
 %nproc=8
 Will use up to    8 processors via shared memory.
 ------------------------------------
 # opt=(addred) b3lyp/6-31g(d) nosymm
 ------------------------------------
 1/14=-1,18=120,26=3,38=1/1,3;
 2/9=110,15=1,17=6,18=5,40=1/2;
 3/5=1,6=6,7=1,11=2,16=1,25=1,30=1,74=-5/1,2,3;
 4//1;
 5/5=2,38=5/2;
 6/7=2,8=2,9=2,10=2,28=1/1;
 7/30=1/1,2,3,16;
 1/14=-1,18=20/3(3);
 2/9=110,15=1/2;
 6/7=2,8=2,9=2,10=2,19=2,28=1/1;
 99//99;
 2/9=110,15=1/2;
 3/5=1,6=6,7=1,11=2,16=1,25=1,30=1,74=-5/1,2,3;
 4/5=5,16=3/1;
 5/5=2,38=5/2;
 7/30=1/1,2,3,16;
 1/14=-1,18=20/3(-5);
 2/9=110,15=1/2;
 6/7=2,8=2,9=2,10=2,19=2,28=1/1;
 99/9=1/99;
 -------------------
 Title Card Required
 -------------------
 Symbolic Z-matrix:
 Charge =  0 Multiplicity = 2
 C                    -3.22809   0.87799   0.58139 
 H                    -4.29915   0.91765   0.756 
 O                    -2.77877   1.90895  -0.19242 
 H                    -1.81395   1.78724  -0.28402 
 C                    -2.52192  -0.44766   0.55381 
 C                    -3.15609  -1.40709   1.5653 
 H                    -3.15446  -0.96304   2.56457 
 H                    -4.19039  -1.61985   1.27662 
 H                    -2.60374  -2.35107   1.5966 
 C                    -2.46329  -1.06658  -0.855 
 H                    -2.01817  -0.37019  -1.57183 
 H                    -1.88004  -1.99555  -0.84653 
 H                    -3.47392  -1.29593  -1.20782 
 O                    -1.1553   -0.32825   1.0794 
 O                    -0.39868   0.617     0.26553 
 H                     0.10469   0.00979  -0.30629 
 
 The following ModRedundant input section has been read:
 D    *    3    1    5                                                         
 D    5    1    3    4 S  36 10.000                                            
 D    3    1    5   14 F                                                       

 GradGradGradGradGradGradGradGradGradGradGradGradGradGradGradGradGradGrad
 Berny optimization.
 Initialization pass.
                           ----------------------------
                           !    Initial Parameters    !
                           ! (Angstroms and Degrees)  !
 --------------------------                            --------------------------
 ! Name  Definition              Value          Derivative Info.                !
 --------------------------------------------------------------------------------
 ! R1    R(1,2)                  1.0859         estimate D2E/DX2                !
 ! R2    R(1,3)                  1.3651         estimate D2E/DX2                !
 ! R3    R(1,5)                  1.5023         estimate D2E/DX2                !
 ! R4    R(3,4)                  0.9768         estimate D2E/DX2                !
 ! R5    R(5,6)                  1.5316         estimate D2E/DX2                !
 ! R6    R(5,10)                 1.5399         estimate D2E/DX2                !
 ! R7    R(5,14)                 1.4691         estimate D2E/DX2                !
 ! R8    R(6,7)                  1.0935         estimate D2E/DX2                !
 ! R9    R(6,8)                  1.0947         estimate D2E/DX2                !
 ! R10   R(6,9)                  1.0942         estimate D2E/DX2                !
 ! R11   R(10,11)                1.094          estimate D2E/DX2                !
 ! R12   R(10,12)                1.0969         estimate D2E/DX2                !
 ! R13   R(10,13)                1.0947         estimate D2E/DX2                !
 ! R14   R(14,15)                1.4589         estimate D2E/DX2                !
 ! R15   R(15,16)                0.9742         estimate D2E/DX2                !
 ! A1    A(2,1,3)              112.8422         estimate D2E/DX2                !
 ! A2    A(2,1,5)              119.9221         estimate D2E/DX2                !
 ! A3    A(3,1,5)              120.0863         estimate D2E/DX2                !
 ! A4    A(1,3,4)              106.5093         estimate D2E/DX2                !
 ! A5    A(1,5,6)              110.2438         estimate D2E/DX2                !
 ! A6    A(1,5,10)             112.9154         estimate D2E/DX2                !
 ! A7    A(1,5,14)             111.0384         estimate D2E/DX2                !
 ! A8    A(6,5,10)             111.6041         estimate D2E/DX2                !
 ! A9    A(6,5,14)             101.5267         estimate D2E/DX2                !
 ! A10   A(10,5,14)            108.9393         estimate D2E/DX2                !
 ! A11   A(5,6,7)              110.3966         estimate D2E/DX2                !
 ! A12   A(5,6,8)              109.8043         estimate D2E/DX2                !
 ! A13   A(5,6,9)              110.5068         estimate D2E/DX2                !
 ! A14   A(7,6,8)              108.742          estimate D2E/DX2                !
 ! A15   A(7,6,9)              108.872          estimate D2E/DX2                !
 ! A16   A(8,6,9)              108.471          estimate D2E/DX2                !
 ! A17   A(5,10,11)            111.0447         estimate D2E/DX2                !
 ! A18   A(5,10,12)            110.706          estimate D2E/DX2                !
 ! A19   A(5,10,13)            110.1152         estimate D2E/DX2                !
 ! A20   A(11,10,12)           109.1349         estimate D2E/DX2                !
 ! A21   A(11,10,13)           107.3247         estimate D2E/DX2                !
 ! A22   A(12,10,13)           108.4162         estimate D2E/DX2                !
 ! A23   A(5,14,15)            109.6053         estimate D2E/DX2                !
 ! A24   A(14,15,16)           101.0447         estimate D2E/DX2                !
 ! D1    D(2,1,3,4)            179.5887         estimate D2E/DX2                !
 ! D2    D(5,1,3,4)            -30.0            Scan                            !
 ! D3    D(2,1,5,6)            -35.2216         estimate D2E/DX2                !
 ! D4    D(2,1,5,10)            90.3669         estimate D2E/DX2                !
 ! D5    D(2,1,5,14)          -146.9399         estimate D2E/DX2                !
 ! D6    D(3,1,5,6)            176.4488         estimate D2E/DX2                !
 ! D7    D(3,1,5,10)           -57.9627         estimate D2E/DX2                !
 ! D8    D(3,1,5,14)            64.7305         Frozen                          !
 ! D9    D(1,5,6,7)            -55.7436         estimate D2E/DX2                !
 ! D10   D(1,5,6,8)             64.1405         estimate D2E/DX2                !
 ! D11   D(1,5,6,9)           -176.2418         estimate D2E/DX2                !
 ! D12   D(10,5,6,7)           177.928          estimate D2E/DX2                !
 ! D13   D(10,5,6,8)           -62.1879         estimate D2E/DX2                !
 ! D14   D(10,5,6,9)            57.4299         estimate D2E/DX2                !
 ! D15   D(14,5,6,7)            62.013          estimate D2E/DX2                !
 ! D16   D(14,5,6,8)          -178.1029         estimate D2E/DX2                !
 ! D17   D(14,5,6,9)           -58.4851         estimate D2E/DX2                !
 ! D18   D(1,5,10,11)           54.5791         estimate D2E/DX2                !
 ! D19   D(1,5,10,12)          175.9722         estimate D2E/DX2                !
 ! D20   D(1,5,10,13)          -64.1528         estimate D2E/DX2                !
 ! D21   D(6,5,10,11)          179.4308         estimate D2E/DX2                !
 ! D22   D(6,5,10,12)          -59.1761         estimate D2E/DX2                !
 ! D23   D(6,5,10,13)           60.6989         estimate D2E/DX2                !
 ! D24   D(14,5,10,11)         -69.2777         estimate D2E/DX2                !
 ! D25   D(14,5,10,12)          52.1154         estimate D2E/DX2                !
 ! D26   D(14,5,10,13)         171.9904         estimate D2E/DX2                !
 ! D27   D(1,5,14,15)          -60.1086         estimate D2E/DX2                !
 ! D28   D(6,5,14,15)         -177.2895         estimate D2E/DX2                !
 ! D29   D(10,5,14,15)          64.8541         estimate D2E/DX2                !
 ! D30   D(5,14,15,16)         -99.6964         estimate D2E/DX2                !
 --------------------------------------------------------------------------------
 Trust Radius=3.00D-01 FncErr=1.00D-07 GrdErr=1.00D-06
 Number of optimizations in scan=  37
 Number of steps in this run=  79 maximum allowed number of steps= 100.
 GradGradGradGradGradGradGradGradGradGradGradGradGradGradGradGradGradGrad

                          Input orientation:                          
 ---------------------------------------------------------------------
 Center     Atomic     Atomic              Coordinates (Angstroms)
 Number     Number      Type              X           Y           Z
 ---------------------------------------------------------------------
    1          6             0       -3.228089    0.877989    0.581393
    2          1             0       -4.299151    0.917654    0.755999
    3          8             0       -2.778771    1.908953   -0.192415
    4          1             0       -1.813946    1.787242   -0.284019
    5          6             0       -2.521918   -0.447662    0.553809
    6          6             0       -3.156085   -1.407087    1.565297
    7          1             0       -3.154457   -0.963040    2.564568
    8          1             0       -4.190390   -1.619848    1.276624
    9          1             0       -2.603740   -2.351071    1.596598
   10          6             0       -2.463286   -1.066580   -0.854999
   11          1             0       -2.018167   -0.370193   -1.571829
   12          1             0       -1.880041   -1.995553   -0.846534
   13          1             0       -3.473915   -1.295933   -1.207820
   14          8             0       -1.155297   -0.328250    1.079397
   15          8             0       -0.398676    0.616998    0.265525
   16          1             0        0.104689    0.009785   -0.306289
 ---------------------------------------------------------------------
                    Distance matrix (angstroms):
                    1          2          3          4          5
     1  C    0.000000
     2  H    1.085926   0.000000
     3  O    1.365120   2.047857   0.000000
     4  H    1.890894   2.830912   0.976776   0.000000
     5  C    1.502261   2.250228   2.485248   2.489573   0.000000
     6  C    2.488940   2.714035   3.772007   3.927473   1.531591
     7  H    2.706990   2.849255   3.998805   4.180367   2.169994
     8  H    2.765603   2.592643   4.074700   4.437494   2.163396
     9  H    3.441988   3.776981   4.623744   4.613689   2.171882
    10  C    2.535645   3.146887   3.064693   2.981939   1.539882
    11  H    2.767352   3.504315   2.770525   2.520850   2.185887
    12  H    3.480439   4.111810   4.059650   3.824961   2.183789
    13  H    2.826243   3.072062   3.433011   3.621446   2.174672
    14  O    2.449385   3.397158   3.042737   2.601543   1.469066
    15  O    2.858928   3.942672   2.746581   1.916888   2.392648
    16  H    3.556567   4.620226   3.454584   2.615532   2.801444
                    6          7          8          9         10
     6  C    0.000000
     7  H    1.093491   0.000000
     8  H    1.094708   1.778582   0.000000
     9  H    1.094153   1.779574   1.776099   0.000000
    10  C    2.540423   3.490254   2.798716   2.771276   0.000000
    11  H    3.494505   4.330404   3.793926   3.782288   1.094043
    12  H    2.791328   3.784949   3.160169   2.572747   1.096922
    13  H    2.793483   3.800498   2.605901   3.120141   1.094740
    14  O    2.324466   2.570084   3.304378   2.541120   2.449052
    15  O    3.659185   3.921281   4.516957   3.929821   2.890091
    16  H    4.017836   4.450870   4.858911   4.065736   2.837982
                   11         12         13         14         15
    11  H    0.000000
    12  H    1.785197   0.000000
    13  H    1.763150   1.777760   0.000000
    14  O    2.788423   2.648464   3.397611   0.000000
    15  O    2.640675   3.202583   3.909878   1.458889   0.000000
    16  H    2.500498   2.872699   3.914596   1.903144   0.974195
                   16
    16  H    0.000000
 Symmetry turned off by external request.
 Stoichiometry    C4H9O3(2)
 Framework group  C1[X(C4H9O3)]
 Deg. of freedom    42
 Full point group                 C1
 Rotational constants (GHZ):      2.9914326      2.4872751      1.9371957
 Standard basis: 6-31G(d) (6D, 7F)
 Integral buffers will be    131072 words long.
 Raffenetti 2 integral format.
 Two-electron integral symmetry is turned off.
   123 basis functions,   232 primitive gaussians,   123 cartesian basis functions
    29 alpha electrons       28 beta electrons
       nuclear repulsion energy       338.7811590651 Hartrees.
 NAtoms=   16 NActive=   16 NUniq=   16 SFac= 7.50D-01 NAtFMM=   80 NAOKFM=F Big=F
 One-electron integrals computed using PRISM.
 NBasis=   123 RedAO= T  NBF=   123
 NBsUse=   123 1.00D-06 NBFU=   123
 Harris functional with IExCor=  402 diagonalized for initial guess.
 ExpMin= 1.61D-01 ExpMax= 5.48D+03 ExpMxC= 8.25D+02 IAcc=1 IRadAn=         1 AccDes= 1.00D-06
 HarFok:  IExCor= 402 AccDes= 1.00D-06 IRadAn=         1 IDoV=1
 ScaDFX=  1.000000  1.000000  1.000000  1.000000
 <S**2> of initial guess= 0.7500
 Requested convergence on RMS density matrix=1.00D-08 within 128 cycles.
 Requested convergence on MAX density matrix=1.00D-06.
 Requested convergence on             energy=1.00D-06.
 No special actions if energy rises.
 Keep R1 and R2 integrals in memory in canonical form, NReq=    60141126.
 Integral accuracy reduced to 1.0D-05 until final iterations.
 Initial convergence to 1.0D-05 achieved.  Increase integral accuracy.
 SCF Done:  E(UB+HF-LYP) =  -383.350753531     A.U. after   17 cycles
             Convg  =    0.8206D-08             -V/T =  2.0089
             S**2   =   0.7532
 Annihilation of the first spin contaminant:
 S**2 before annihilation     0.7532,   after     0.7500

 **********************************************************************

            Population analysis using the SCF density.

 **********************************************************************

 Alpha  occ. eigenvalues --  -19.21976 -19.20774 -19.16377 -10.25446 -10.22125
 Alpha  occ. eigenvalues --  -10.18737 -10.18698  -1.12116  -1.04104  -0.92372
 Alpha  occ. eigenvalues --   -0.78204  -0.70188  -0.66753  -0.58510  -0.55158
 Alpha  occ. eigenvalues --   -0.48041  -0.47514  -0.46306  -0.43434  -0.41516
 Alpha  occ. eigenvalues --   -0.40671  -0.40023  -0.38599  -0.36803  -0.36171
 Alpha  occ. eigenvalues --   -0.34215  -0.29652  -0.27611  -0.16068
 Alpha virt. eigenvalues --    0.00843   0.06319   0.10712   0.11623   0.13143
 Alpha virt. eigenvalues --    0.14614   0.16079   0.17036   0.18109   0.19002
 Alpha virt. eigenvalues --    0.21870   0.22408   0.25130   0.27446   0.30096
 Alpha virt. eigenvalues --    0.49117   0.53179   0.55270   0.56276   0.57084
 Alpha virt. eigenvalues --    0.60041   0.63415   0.65533   0.68020   0.69459
 Alpha virt. eigenvalues --    0.73300   0.75750   0.78570   0.79892   0.80606
 Alpha virt. eigenvalues --    0.85205   0.88175   0.89740   0.90086   0.90771
 Alpha virt. eigenvalues --    0.92865   0.93618   0.95990   0.97000   0.98957
 Alpha virt. eigenvalues --    1.03300   1.06409   1.10047   1.12879   1.13855
 Alpha virt. eigenvalues --    1.18909   1.25412   1.31619   1.36944   1.38530
 Alpha virt. eigenvalues --    1.40626   1.50368   1.53004   1.58923   1.62509
 Alpha virt. eigenvalues --    1.65130   1.72221   1.75477   1.76549   1.80840
 Alpha virt. eigenvalues --    1.85395   1.86627   1.89566   1.90299   1.92954
 Alpha virt. eigenvalues --    1.97382   2.04121   2.08684   2.11402   2.14350
 Alpha virt. eigenvalues --    2.21506   2.24214   2.26772   2.27620   2.32111
 Alpha virt. eigenvalues --    2.34257   2.38451   2.42185   2.46921   2.51665
 Alpha virt. eigenvalues --    2.58486   2.65897   2.73258   2.79639   2.88567
 Alpha virt. eigenvalues --    2.93038   3.08112   3.59483   3.84674   3.92055
 Alpha virt. eigenvalues --    4.18779   4.26018   4.30833   4.64327
  Beta  occ. eigenvalues --  -19.21982 -19.20692 -19.15854 -10.25496 -10.20850
  Beta  occ. eigenvalues --  -10.18726 -10.18626  -1.12021  -1.02869  -0.92241
  Beta  occ. eigenvalues --   -0.77783  -0.70053  -0.64815  -0.58166  -0.54975
  Beta  occ. eigenvalues --   -0.47640  -0.47005  -0.46154  -0.42899  -0.40496
  Beta  occ. eigenvalues --   -0.40341  -0.39841  -0.38468  -0.35937  -0.34618
  Beta  occ. eigenvalues --   -0.32806  -0.29363  -0.27306
  Beta virt. eigenvalues --   -0.01856   0.00944   0.06392   0.10862   0.11927
  Beta virt. eigenvalues --    0.13396   0.14835   0.16519   0.17190   0.18424
  Beta virt. eigenvalues --    0.19252   0.22096   0.22963   0.25554   0.29211
  Beta virt. eigenvalues --    0.30878   0.49289   0.54818   0.55900   0.56738
  Beta virt. eigenvalues --    0.58260   0.62500   0.63924   0.65832   0.68561
  Beta virt. eigenvalues --    0.69952   0.73658   0.76149   0.78761   0.80283
  Beta virt. eigenvalues --    0.81005   0.85472   0.88439   0.89976   0.90261
  Beta virt. eigenvalues --    0.91043   0.93134   0.94276   0.96191   0.97309
  Beta virt. eigenvalues --    0.99835   1.03565   1.06809   1.10335   1.13125
  Beta virt. eigenvalues --    1.14234   1.19672   1.25639   1.31926   1.37377
  Beta virt. eigenvalues --    1.38881   1.42164   1.50602   1.54022   1.59650
  Beta virt. eigenvalues --    1.63196   1.65651   1.72673   1.75918   1.77455
  Beta virt. eigenvalues --    1.81582   1.85746   1.86976   1.90539   1.91756
  Beta virt. eigenvalues --    1.93888   1.97571   2.04452   2.08879   2.13628
  Beta virt. eigenvalues --    2.15893   2.21678   2.24327   2.27652   2.28184
  Beta virt. eigenvalues --    2.32404   2.34717   2.39317   2.44632   2.46997
  Beta virt. eigenvalues --    2.52234   2.59456   2.66463   2.73864   2.80365
  Beta virt. eigenvalues --    2.88842   2.93965   3.08187   3.59559   3.85123
  Beta virt. eigenvalues --    3.92568   4.19432   4.27996   4.31239   4.64564
          Condensed to atoms (all electrons):
              1          2          3          4          5          6
     1  C    5.122200   0.361514   0.277694  -0.030912   0.384257  -0.045893
     2  H    0.361514   0.590063  -0.041599   0.005455  -0.050168  -0.002843
     3  O    0.277694  -0.041599   8.156886   0.232104  -0.032011   0.002537
     4  H   -0.030912   0.005455   0.232104   0.330998  -0.009650   0.000107
     5  C    0.384257  -0.050168  -0.032011  -0.009650   4.808269   0.356096
     6  C   -0.045893  -0.002843   0.002537   0.000107   0.356096   5.161104
     7  H   -0.000733   0.000721  -0.000029   0.000008  -0.027774   0.365705
     8  H   -0.002747   0.002337  -0.000002   0.000015  -0.025980   0.364610
     9  H    0.004346  -0.000175  -0.000059   0.000010  -0.022388   0.362102
    10  C   -0.084188   0.001870  -0.001687   0.000377   0.330140  -0.050539
    11  H   -0.008962  -0.000066   0.007002   0.001445  -0.029683   0.005717
    12  H    0.005885  -0.000134   0.000035  -0.000055  -0.024864  -0.005559
    13  H    0.002010   0.000286  -0.000243   0.000037  -0.022383  -0.003322
    14  O   -0.050104   0.003102  -0.000275  -0.002960   0.143214  -0.041831
    15  O   -0.004611  -0.000165  -0.014771   0.042895  -0.029216   0.004050
    16  H    0.000018   0.000013   0.000741  -0.002101  -0.002844  -0.000189
              7          8          9         10         11         12
     1  C   -0.000733  -0.002747   0.004346  -0.084188  -0.008962   0.005885
     2  H    0.000721   0.002337  -0.000175   0.001870  -0.000066  -0.000134
     3  O   -0.000029  -0.000002  -0.000059  -0.001687   0.007002   0.000035
     4  H    0.000008   0.000015   0.000010   0.000377   0.001445  -0.000055
     5  C   -0.027774  -0.025980  -0.022388   0.330140  -0.029683  -0.024864
     6  C    0.365705   0.364610   0.362102  -0.050539   0.005717  -0.005559
     7  H    0.536088  -0.025949  -0.027470   0.006418  -0.000160  -0.000144
     8  H   -0.025949   0.556474  -0.027227  -0.002592  -0.000033   0.000072
     9  H   -0.027470  -0.027227   0.553394  -0.005953  -0.000072   0.003942
    10  C    0.006418  -0.002592  -0.005953   5.248820   0.365173   0.352236
    11  H   -0.000160  -0.000033  -0.000072   0.365173   0.569654  -0.031850
    12  H   -0.000144   0.000072   0.003942   0.352236  -0.031850   0.577678
    13  H   -0.000087   0.001907   0.000256   0.358766  -0.027267  -0.025881
    14  O    0.000021   0.003056   0.000158  -0.060170  -0.004427   0.002951
    15  O   -0.000051  -0.000082  -0.000072  -0.001230   0.006920  -0.000485
    16  H    0.000014   0.000009  -0.000021   0.004551   0.000859   0.000237
             13         14         15         16
     1  C    0.002010  -0.050104  -0.004611   0.000018
     2  H    0.000286   0.003102  -0.000165   0.000013
     3  O   -0.000243  -0.000275  -0.014771   0.000741
     4  H    0.000037  -0.002960   0.042895  -0.002101
     5  C   -0.022383   0.143214  -0.029216  -0.002844
     6  C   -0.003322  -0.041831   0.004050  -0.000189
     7  H   -0.000087   0.000021  -0.000051   0.000014
     8  H    0.001907   0.003056  -0.000082   0.000009
     9  H    0.000256   0.000158  -0.000072  -0.000021
    10  C    0.358766  -0.060170  -0.001230   0.004551
    11  H   -0.027267  -0.004427   0.006920   0.000859
    12  H   -0.025881   0.002951  -0.000485   0.000237
    13  H    0.556096   0.003070   0.000263  -0.000137
    14  O    0.003070   8.259097   0.062499  -0.019943
    15  O    0.000263   0.062499   8.142980   0.219072
    16  H   -0.000137  -0.019943   0.219072   0.378435
 Mulliken atomic charges:
              1
     1  C    0.070226
     2  H    0.129790
     3  O   -0.586322
     4  H    0.432227
     5  C    0.254987
     6  C   -0.471850
     7  H    0.173423
     8  H    0.156133
     9  H    0.159231
    10  C   -0.461992
    11  H    0.145749
    12  H    0.145939
    13  H    0.156629
    14  O   -0.297456
    15  O   -0.427998
    16  H    0.421286
 Sum of Mulliken charges=   0.00000
 Atomic charges with hydrogens summed into heavy atoms:
              1
     1  C    0.200016
     2  H    0.000000
     3  O   -0.154095
     4  H    0.000000
     5  C    0.254987
     6  C    0.016937
     7  H    0.000000
     8  H    0.000000
     9  H    0.000000
    10  C   -0.013676
    11  H    0.000000
    12  H    0.000000
    13  H    0.000000
    14  O   -0.297456
    15  O   -0.006712
    16  H    0.000000
 Sum of Mulliken charges=   0.00000
          Atomic-Atomic Spin Densities.
              1          2          3          4          5          6
     1  C    1.042182  -0.014719  -0.140353  -0.000578   0.023618  -0.011449
     2  H   -0.014719  -0.030818   0.000645  -0.000212   0.006296   0.000254
     3  O   -0.140353   0.000645   0.285075  -0.001175  -0.003667   0.000193
     4  H   -0.000578  -0.000212  -0.001175  -0.002999  -0.000043   0.000006
     5  C    0.023618   0.006296  -0.003667  -0.000043   0.000239  -0.003323
     6  C   -0.011449   0.000254   0.000193   0.000006  -0.003323   0.014502
     7  H    0.005241  -0.000544  -0.000045  -0.000001  -0.001038  -0.003646
     8  H    0.000101   0.000114  -0.000006   0.000000   0.000573  -0.000145
     9  H    0.000167  -0.000038   0.000000  -0.000001   0.000204  -0.000142
    10  C   -0.028504  -0.002286   0.003561  -0.000155  -0.021268   0.004067
    11  H   -0.004089  -0.000122   0.001360  -0.000023   0.000105   0.000113
    12  H    0.001393   0.000062  -0.000128   0.000009   0.001607  -0.000718
    13  H    0.001383   0.000067  -0.000159   0.000001   0.000803  -0.000150
    14  O   -0.017254   0.000508   0.000694   0.000127  -0.014491   0.002643
    15  O    0.000018  -0.000001  -0.000052   0.000320   0.000798  -0.000004
    16  H   -0.000005   0.000000   0.000000  -0.000031  -0.000170   0.000005
              7          8          9         10         11         12
     1  C    0.005241   0.000101   0.000167  -0.028504  -0.004089   0.001393
     2  H   -0.000544   0.000114  -0.000038  -0.002286  -0.000122   0.000062
     3  O   -0.000045  -0.000006   0.000000   0.003561   0.001360  -0.000128
     4  H   -0.000001   0.000000  -0.000001  -0.000155  -0.000023   0.000009
     5  C   -0.001038   0.000573   0.000204  -0.021268   0.000105   0.001607
     6  C   -0.003646  -0.000145  -0.000142   0.004067   0.000113  -0.000718
     7  H    0.001445   0.000018   0.000542   0.000935   0.000015  -0.000086
     8  H    0.000018  -0.000574   0.000193  -0.000428  -0.000008   0.000061
     9  H    0.000542   0.000193  -0.002594   0.000747   0.000015  -0.000297
    10  C    0.000935  -0.000428   0.000747   0.089308   0.003412  -0.008386
    11  H    0.000015  -0.000008   0.000015   0.003412   0.000400  -0.002442
    12  H   -0.000086   0.000061  -0.000297  -0.008386  -0.002442   0.015911
    13  H   -0.000018   0.000002  -0.000019  -0.001460   0.000009   0.000588
    14  O   -0.001354   0.000049  -0.000217  -0.012388  -0.000839   0.001430
    15  O    0.000002   0.000000   0.000004   0.000177   0.000077  -0.000030
    16  H   -0.000001   0.000000  -0.000002  -0.000083  -0.000008   0.000050
             13         14         15         16
     1  C    0.001383  -0.017254   0.000018  -0.000005
     2  H    0.000067   0.000508  -0.000001   0.000000
     3  O   -0.000159   0.000694  -0.000052   0.000000
     4  H    0.000001   0.000127   0.000320  -0.000031
     5  C    0.000803  -0.014491   0.000798  -0.000170
     6  C   -0.000150   0.002643  -0.000004   0.000005
     7  H   -0.000018  -0.001354   0.000002  -0.000001
     8  H    0.000002   0.000049   0.000000   0.000000
     9  H   -0.000019  -0.000217   0.000004  -0.000002
    10  C   -0.001460  -0.012388   0.000177  -0.000083
    11  H    0.000009  -0.000839   0.000077  -0.000008
    12  H    0.000588   0.001430  -0.000030   0.000050
    13  H   -0.001530   0.000103  -0.000002   0.000001
    14  O    0.000103   0.059912  -0.000720   0.000088
    15  O   -0.000002  -0.000720  -0.002793   0.000179
    16  H    0.000001   0.000088   0.000179  -0.000130
 Mulliken atomic spin densities:
              1
     1  C    0.857152
     2  H   -0.040793
     3  O    0.145945
     4  H   -0.004756
     5  C   -0.009757
     6  C    0.002206
     7  H    0.001466
     8  H   -0.000050
     9  H   -0.001437
    10  C    0.027249
    11  H   -0.002024
    12  H    0.009024
    13  H   -0.000381
    14  O    0.018288
    15  O   -0.002026
    16  H   -0.000107
 Sum of Mulliken spin densities=   1.00000
 Electronic spatial extent (au):  <R**2>=  1782.3954
 Charge=     0.0000 electrons
 Dipole moment (field-independent basis, Debye):
    X=     0.4136    Y=    -2.3499    Z=    -1.4349  Tot=     2.7843
 Quadrupole moment (field-independent basis, Debye-Ang):
   XX=   -40.4407   YY=   -45.5621   ZZ=   -43.7017
   XY=     6.9119   XZ=    -1.8490   YZ=    -0.7058
 Traceless Quadrupole moment (field-independent basis, Debye-Ang):
   XX=     2.7941   YY=    -2.3272   ZZ=    -0.4669
   XY=     6.9119   XZ=    -1.8490   YZ=    -0.7058
 Octapole moment (field-independent basis, Debye-Ang**2):
  XXX=   278.5893  YYY=     0.0179  ZZZ=   -51.5917  XYY=   109.4725
  XXY=   -19.4755  XXZ=    -7.7907  XZZ=    98.5760  YZZ=     2.1145
  YYZ=   -16.6060  XYZ=     0.2140
 Hexadecapole moment (field-independent basis, Debye-Ang**3):
 XXXX= -1572.8692 YYYY=  -393.9335 ZZZZ=  -267.5366 XXXY=    27.3592
 XXXZ=    96.1052 YYYX=    -6.3225 YYYZ=    30.7921 ZZZX=   128.7381
 ZZZY=    29.9841 XXYY=  -379.8644 XXZZ=  -322.0392 YYZZ=  -109.8577
 XXYZ=    14.3067 YYXZ=    39.8640 ZZXY=    -8.4120
 N-N= 3.387811590651D+02 E-N=-1.574881811442D+03  KE= 3.799740872492D+02
                          Isotropic Fermi Contact Couplings
        Atom                 a.u.       MegaHertz       Gauss      10(-4) cm-1
     1  C(13)              0.16365     183.97336      65.64627      61.36691
     2  H(1)              -0.01132     -50.57997     -18.04819     -16.87166
     3  O(17)              0.03829     -23.21315      -8.28303      -7.74307
     4  H(1)              -0.00152      -6.80971      -2.42987      -2.27147
     5  C(13)             -0.01738     -19.53847      -6.97181      -6.51733
     6  C(13)              0.00386       4.33999       1.54862       1.44766
     7  H(1)              -0.00005      -0.21915      -0.07820      -0.07310
     8  H(1)               0.00021       0.93455       0.33347       0.31173
     9  H(1)              -0.00051      -2.30125      -0.82114      -0.76762
    10  C(13)              0.02859      32.14083      11.46865      10.72103
    11  H(1)              -0.00063      -2.81502      -1.00447      -0.93899
    12  H(1)               0.00384      17.17695       6.12916       5.72962
    13  H(1)               0.00042       1.87044       0.66742       0.62391
    14  O(17)              0.02188     -13.26616      -4.73369      -4.42511
    15  O(17)             -0.00071       0.42823       0.15280       0.14284
    16  H(1)               0.00003       0.12657       0.04516       0.04222
 --------------------------------------------------------
       Center         ----  Spin Dipole Couplings  ----
                      3XX-RR        3YY-RR        3ZZ-RR
 --------------------------------------------------------
     1   Atom       -0.321935     -0.328454      0.650389
     2   Atom        0.068862     -0.052865     -0.015997
     3   Atom       -0.333278     -0.300408      0.633686
     4   Atom        0.037624     -0.025093     -0.012532
     5   Atom        0.014387      0.005822     -0.020209
     6   Atom       -0.007805      0.013069     -0.005264
     7   Atom       -0.007680      0.005009      0.002671
     8   Atom       -0.003051      0.007204     -0.004153
     9   Atom       -0.003293      0.005464     -0.002171
    10   Atom       -0.017876     -0.008522      0.026398
    11   Atom       -0.004087     -0.000450      0.004537
    12   Atom       -0.002797      0.004283     -0.001486
    13   Atom       -0.003718      0.002490      0.001229
    14   Atom        0.067814     -0.020776     -0.047038
    15   Atom        0.015941     -0.009928     -0.006013
    16   Atom        0.004510     -0.002390     -0.002120
 --------------------------------------------------------
                        XY            XZ            YZ
 --------------------------------------------------------
     1   Atom        0.156004      0.423748      0.426437
     2   Atom       -0.001962     -0.006346      0.017952
     3   Atom        0.101740      0.282153      0.384520
     4   Atom       -0.001008     -0.021068     -0.000031
     5   Atom       -0.033103     -0.000920      0.000232
     6   Atom        0.003224      0.002166     -0.004187
     7   Atom        0.000127     -0.000695     -0.009179
     8   Atom        0.005353     -0.001416     -0.003335
     9   Atom       -0.001360      0.000440     -0.002330
    10   Atom       -0.008381     -0.016255      0.026361
    11   Atom       -0.002684     -0.006491      0.004161
    12   Atom       -0.004811     -0.000939      0.002270
    13   Atom        0.001841      0.004085      0.008662
    14   Atom       -0.063610      0.037993     -0.023737
    15   Atom       -0.005380     -0.000457      0.006203
    16   Atom       -0.001707     -0.002192      0.000403
 --------------------------------------------------------


 ---------------------------------------------------------------------------------
              Anisotropic Spin Dipole Couplings in Principal Axis System
 ---------------------------------------------------------------------------------

       Atom             a.u.   MegaHertz   Gauss  10(-4) cm-1        Axes

              Baa    -0.4888   -65.595   -23.406   -21.880  0.2468  0.8739 -0.4189
     1 C(13)  Bbb    -0.4793   -64.322   -22.952   -21.456  0.9110 -0.3566 -0.2071
              Bcc     0.9682   129.917    46.358    43.336  0.3304  0.3305  0.8841
 
              Baa    -0.0602   -32.101   -11.454   -10.708 -0.0045  0.9262 -0.3771
     2 H(1)   Bbb    -0.0093    -4.941    -1.763    -1.648  0.0844  0.3761  0.9227
              Bcc     0.0694    37.042    13.217    12.356  0.9964 -0.0277 -0.0798
 
              Baa    -0.4383    31.718    11.318    10.580 -0.0164  0.9425 -0.3338
     3 O(17)  Bbb    -0.4094    29.627    10.572     9.882  0.9691 -0.0672 -0.2374
              Bcc     0.8478   -61.345   -21.889   -20.462  0.2461  0.3273  0.9123
 
              Baa    -0.0251   -13.410    -4.785    -4.473  0.0384  0.9970  0.0666
     4 H(1)   Bbb    -0.0202   -10.766    -3.842    -3.591  0.3403 -0.0757  0.9373
              Bcc     0.0453    24.176     8.627     8.064  0.9395 -0.0133 -0.3422
 
              Baa    -0.0233    -3.131    -1.117    -1.044  0.6552  0.7428  0.1379
     5 C(13)  Bbb    -0.0202    -2.705    -0.965    -0.902 -0.0812 -0.1122  0.9904
              Bcc     0.0435     5.837     2.083     1.947  0.7511 -0.6601 -0.0133
 
              Baa    -0.0101    -1.356    -0.484    -0.452  0.8108 -0.2114 -0.5458
     6 C(13)  Bbb    -0.0042    -0.565    -0.202    -0.188  0.5723  0.0907  0.8150
              Bcc     0.0143     1.921     0.685     0.641  0.1228  0.9732 -0.1945
 
              Baa    -0.0078    -4.149    -1.480    -1.384  0.9829  0.1008  0.1540
     7 H(1)   Bbb    -0.0053    -2.845    -1.015    -0.949 -0.1821  0.6540  0.7343
              Bcc     0.0131     6.994     2.496     2.333  0.0267  0.7498 -0.6612
 
              Baa    -0.0053    -2.847    -1.016    -0.950  0.9171 -0.3978 -0.0238
     8 H(1)   Bbb    -0.0051    -2.697    -0.963    -0.900  0.1174  0.2126  0.9701
              Bcc     0.0104     5.545     1.979     1.850  0.3809  0.8925 -0.2417
 
              Baa    -0.0035    -1.872    -0.668    -0.625  0.9859  0.1189 -0.1176
     9 H(1)   Bbb    -0.0028    -1.505    -0.537    -0.502  0.0801  0.2820  0.9561
              Bcc     0.0063     3.378     1.205     1.127 -0.1468  0.9520 -0.2685
 
              Baa    -0.0233    -3.123    -1.114    -1.042  0.8603 -0.2765  0.4283
    10 C(13)  Bbb    -0.0225    -3.024    -1.079    -1.009  0.4286  0.8472 -0.3140
              Bcc     0.0458     6.147     2.193     2.050 -0.2760  0.4537  0.8473
 
              Baa    -0.0076    -4.053    -1.446    -1.352  0.8895  0.0711  0.4514
    11 H(1)   Bbb    -0.0027    -1.436    -0.513    -0.479  0.1320  0.9057 -0.4028
              Bcc     0.0103     5.489     1.959     1.831 -0.4375  0.4179  0.7962
 
              Baa    -0.0052    -2.796    -0.998    -0.933  0.8856  0.4610 -0.0573
    12 H(1)   Bbb    -0.0022    -1.148    -0.409    -0.383  0.1720 -0.2109  0.9623
              Bcc     0.0074     3.944     1.407     1.316 -0.4315  0.8620  0.2660
 
              Baa    -0.0078    -4.155    -1.483    -1.386 -0.4814 -0.5129  0.7108
    13 H(1)   Bbb    -0.0039    -2.069    -0.738    -0.690  0.8365 -0.5110  0.1978
              Bcc     0.0117     6.224     2.221     2.076  0.2618  0.6898  0.6750
 
              Baa    -0.0610     4.417     1.576     1.473 -0.0152  0.4899  0.8717
    14 O(17)  Bbb    -0.0524     3.794     1.354     1.265  0.5244  0.7462 -0.4102
              Bcc     0.1135    -8.210    -2.930    -2.739  0.8514 -0.4508  0.2682
 
              Baa    -0.0150     1.087     0.388     0.363  0.1342  0.8195 -0.5572
    15 O(17)  Bbb    -0.0021     0.153     0.055     0.051  0.1797  0.5328  0.8269
              Bcc     0.0171    -1.240    -0.443    -0.414  0.9745 -0.2111 -0.0758
 
              Baa    -0.0029    -1.537    -0.549    -0.513  0.3480  0.6857  0.6393
    16 H(1)   Bbb    -0.0027    -1.427    -0.509    -0.476  0.0534 -0.6954  0.7167
              Bcc     0.0056     2.964     1.058     0.989  0.9360 -0.2152 -0.2787
 

 ---------------------------------------------------------------------------------

 -------------------------------------------------------------------
 Center     Atomic                   Forces (Hartrees/Bohr)
 Number     Number              X              Y              Z
 -------------------------------------------------------------------
    1          6           0.000555516    0.000367192    0.000811860
    2          1           0.000009201    0.000008351    0.000009397
    3          8          -0.000316027   -0.000627653   -0.001024515
    4          1           0.000120796    0.000434736    0.000661174
    5          6          -0.000347947   -0.000184618   -0.000437855
    6          6           0.000004114   -0.000000825   -0.000005383
    7          1           0.000003870    0.000002707    0.000001665
    8          1          -0.000004224    0.000008167    0.000003633
    9          1          -0.000008811   -0.000000322   -0.000000246
   10          6          -0.000000413    0.000004954   -0.000005132
   11          1          -0.000007943   -0.000000726    0.000000988
   12          1          -0.000011475   -0.000001698   -0.000003063
   13          1          -0.000008612    0.000005305    0.000000482
   14          8           0.000003508    0.000002234   -0.000004177
   15          8           0.000007445   -0.000008481   -0.000004961
   16          1           0.000001002   -0.000009321   -0.000003868
 -------------------------------------------------------------------
 Cartesian Forces:  Max     0.001024515 RMS     0.000275180

 GradGradGradGradGradGradGradGradGradGradGradGradGradGradGradGradGradGrad
 Berny optimization.
 Internal  Forces:  Max     0.000892041 RMS     0.000135238
 Search for a local minimum.
 Step number   1 out of a maximum of  79 on scan point     1 out of    37
 All quantities printed in internal units (Hartrees-Bohrs-Radians)
 Second derivative matrix not updated -- first step.
     Eigenvalues ---    0.00238   0.00348   0.00516   0.00778   0.01343
     Eigenvalues ---    0.04396   0.05182   0.05430   0.05582   0.05608
     Eigenvalues ---    0.05694   0.07085   0.14499   0.16000   0.16000
     Eigenvalues ---    0.16000   0.16000   0.16000   0.16000   0.16000
     Eigenvalues ---    0.16000   0.16476   0.17030   0.22318   0.25000
     Eigenvalues ---    0.28529   0.29277   0.32141   0.34025   0.34271
     Eigenvalues ---    0.34274   0.34337   0.34350   0.34412   0.35288
     Eigenvalues ---    0.35852   0.37104   0.51926   0.52016   0.52529
     Eigenvalues --- 1000.000001000.000001000.000001000.000001000.00000
     Eigenvalues --- 1000.000001000.000001000.000001000.000001000.00000
     Eigenvalues --- 1000.000001000.000001000.000001000.000001000.00000
     Eigenvalues --- 1000.000001000.000001000.000001000.000001000.00000
     Eigenvalues --- 1000.000001000.000001000.000001000.000001000.00000
     Eigenvalues --- 1000.000001000.000001000.000001000.00000
 RFO step:  Lambda=-1.11033799D-08.
 Linear search not attempted -- first point.
 Iteration  1 RMS(Cart)=  0.00020160 RMS(Int)=  0.00000008
 Iteration  2 RMS(Cart)=  0.00000007 RMS(Int)=  0.00000000
 Iteration  1 RMS(Cart)=  0.00000000 RMS(Int)=  0.00000000
 Variable       Old X    -DE/DX   Delta X   Delta X   Delta X     New X
                                 (Linear)    (Quad)   (Total)
    R1        2.05210   0.00000   0.00000  -0.00001  -0.00001   2.05210
    R2        2.57970  -0.00001   0.00000  -0.00001  -0.00001   2.57969
    R3        2.83886   0.00000   0.00000   0.00000   0.00000   2.83886
    R4        1.84584   0.00000   0.00000  -0.00001  -0.00001   1.84583
    R5        2.89429   0.00000   0.00000  -0.00001  -0.00001   2.89427
    R6        2.90996   0.00000   0.00000   0.00001   0.00001   2.90996
    R7        2.77613   0.00001   0.00000   0.00002   0.00002   2.77615
    R8        2.06640   0.00000   0.00000   0.00001   0.00001   2.06640
    R9        2.06870   0.00000   0.00000   0.00000   0.00000   2.06870
   R10        2.06765   0.00000   0.00000  -0.00001  -0.00001   2.06764
   R11        2.06744   0.00000   0.00000  -0.00001  -0.00001   2.06743
   R12        2.07288   0.00000   0.00000   0.00000   0.00000   2.07288
   R13        2.06876   0.00000   0.00000   0.00000   0.00000   2.06876
   R14        2.75690   0.00000   0.00000   0.00001   0.00001   2.75691
   R15        1.84096   0.00000   0.00000   0.00000   0.00000   1.84096
    A1        1.96947   0.00009   0.00000   0.00005   0.00005   1.96951
    A2        2.09304  -0.00020   0.00000   0.00004   0.00004   2.09308
    A3        2.09590  -0.00005   0.00000  -0.00007  -0.00007   2.09584
    A4        1.85894  -0.00001   0.00000  -0.00007  -0.00007   1.85887
    A5        1.92412   0.00000   0.00000  -0.00003  -0.00003   1.92408
    A6        1.97074   0.00001   0.00000   0.00004   0.00004   1.97078
    A7        1.93799  -0.00001   0.00000  -0.00007  -0.00007   1.93791
    A8        1.94786   0.00000   0.00000   0.00003   0.00003   1.94789
    A9        1.77198   0.00000   0.00000   0.00001   0.00001   1.77199
   A10        1.90135   0.00000   0.00000   0.00002   0.00002   1.90137
   A11        1.92678   0.00000   0.00000  -0.00004  -0.00004   1.92675
   A12        1.91645   0.00000   0.00000  -0.00001  -0.00001   1.91644
   A13        1.92871   0.00001   0.00000   0.00005   0.00005   1.92876
   A14        1.89791   0.00000   0.00000  -0.00002  -0.00002   1.89789
   A15        1.90017   0.00000   0.00000   0.00000   0.00000   1.90018
   A16        1.89318   0.00000   0.00000   0.00001   0.00001   1.89318
   A17        1.93809   0.00000   0.00000   0.00000   0.00000   1.93810
   A18        1.93218   0.00000   0.00000  -0.00001  -0.00001   1.93218
   A19        1.92187   0.00000   0.00000   0.00001   0.00001   1.92188
   A20        1.90476   0.00000   0.00000   0.00001   0.00001   1.90478
   A21        1.87317   0.00000   0.00000   0.00000   0.00000   1.87316
   A22        1.89222   0.00000   0.00000  -0.00001  -0.00001   1.89221
   A23        1.91297   0.00001   0.00000   0.00005   0.00005   1.91302
   A24        1.76356   0.00000   0.00000   0.00000   0.00000   1.76356
    D1        3.13441  -0.00052   0.00000  -0.00006  -0.00006   3.13435
    D2       -0.52360  -0.00089   0.00000   0.00000   0.00000  -0.52360
    D3       -0.61473  -0.00015   0.00000   0.00002   0.00002  -0.61471
    D4        1.57720  -0.00015   0.00000   0.00006   0.00006   1.57726
    D5       -2.56459  -0.00015   0.00000   0.00006   0.00006  -2.56452
    D6        3.07961   0.00015   0.00000  -0.00004  -0.00004   3.07957
    D7       -1.01164   0.00015   0.00000   0.00000   0.00000  -1.01164
    D8        1.12976   0.00016   0.00000   0.00000   0.00000   1.12976
    D9       -0.97291   0.00000   0.00000  -0.00005  -0.00005  -0.97296
   D10        1.11946   0.00000   0.00000  -0.00009  -0.00009   1.11937
   D11       -3.07600   0.00000   0.00000  -0.00006  -0.00006  -3.07606
   D12        3.10543   0.00000   0.00000  -0.00010  -0.00010   3.10533
   D13       -1.08538   0.00000   0.00000  -0.00014  -0.00014  -1.08553
   D14        1.00234   0.00000   0.00000  -0.00011  -0.00011   1.00223
   D15        1.08233   0.00000   0.00000  -0.00014  -0.00014   1.08219
   D16       -3.10848  -0.00001   0.00000  -0.00019  -0.00019  -3.10867
   D17       -1.02076   0.00000   0.00000  -0.00015  -0.00015  -1.02091
   D18        0.95258   0.00000   0.00000  -0.00010  -0.00010   0.95248
   D19        3.07129   0.00000   0.00000  -0.00008  -0.00008   3.07121
   D20       -1.11968   0.00000   0.00000  -0.00010  -0.00010  -1.11978
   D21        3.13166   0.00000   0.00000  -0.00009  -0.00009   3.13157
   D22       -1.03282   0.00000   0.00000  -0.00007  -0.00007  -1.03289
   D23        1.05940   0.00000   0.00000  -0.00009  -0.00009   1.05931
   D24       -1.20912   0.00000   0.00000  -0.00005  -0.00005  -1.20917
   D25        0.90959   0.00000   0.00000  -0.00003  -0.00003   0.90956
   D26        3.00180   0.00000   0.00000  -0.00005  -0.00005   3.00175
   D27       -1.04909   0.00000   0.00000   0.00000   0.00000  -1.04910
   D28       -3.09429   0.00000   0.00000   0.00006   0.00006  -3.09422
   D29        1.13192   0.00000   0.00000   0.00001   0.00001   1.13193
   D30       -1.74003   0.00000   0.00000  -0.00084  -0.00084  -1.74087
         Item               Value     Threshold  Converged?
 Maximum Force            0.000016     0.000450     YES
 RMS     Force            0.000004     0.000300     YES
 Maximum Displacement     0.001073     0.001800     YES
 RMS     Displacement     0.000202     0.001200     YES
 Predicted change in Energy=-5.551771D-09
 Optimization completed.
    -- Stationary point found.
                           ----------------------------
                           !   Optimized Parameters   !
                           ! (Angstroms and Degrees)  !
 --------------------------                            --------------------------
 ! Name  Definition              Value          Derivative Info.                !
 --------------------------------------------------------------------------------
 ! R1    R(1,2)                  1.0859         -DE/DX =    0.0                 !
 ! R2    R(1,3)                  1.3651         -DE/DX =    0.0                 !
 ! R3    R(1,5)                  1.5023         -DE/DX =    0.0                 !
 ! R4    R(3,4)                  0.9768         -DE/DX =    0.0                 !
 ! R5    R(5,6)                  1.5316         -DE/DX =    0.0                 !
 ! R6    R(5,10)                 1.5399         -DE/DX =    0.0                 !
 ! R7    R(5,14)                 1.4691         -DE/DX =    0.0                 !
 ! R8    R(6,7)                  1.0935         -DE/DX =    0.0                 !
 ! R9    R(6,8)                  1.0947         -DE/DX =    0.0                 !
 ! R10   R(6,9)                  1.0942         -DE/DX =    0.0                 !
 ! R11   R(10,11)                1.094          -DE/DX =    0.0                 !
 ! R12   R(10,12)                1.0969         -DE/DX =    0.0                 !
 ! R13   R(10,13)                1.0947         -DE/DX =    0.0                 !
 ! R14   R(14,15)                1.4589         -DE/DX =    0.0                 !
 ! R15   R(15,16)                0.9742         -DE/DX =    0.0                 !
 ! A1    A(2,1,3)              112.8422         -DE/DX =    0.0001              !
 ! A2    A(2,1,5)              119.9221         -DE/DX =   -0.0002              !
 ! A3    A(3,1,5)              120.0863         -DE/DX =   -0.0001              !
 ! A4    A(1,3,4)              106.5093         -DE/DX =    0.0                 !
 ! A5    A(1,5,6)              110.2438         -DE/DX =    0.0                 !
 ! A6    A(1,5,10)             112.9154         -DE/DX =    0.0                 !
 ! A7    A(1,5,14)             111.0384         -DE/DX =    0.0                 !
 ! A8    A(6,5,10)             111.6041         -DE/DX =    0.0                 !
 ! A9    A(6,5,14)             101.5267         -DE/DX =    0.0                 !
 ! A10   A(10,5,14)            108.9393         -DE/DX =    0.0                 !
 ! A11   A(5,6,7)              110.3966         -DE/DX =    0.0                 !
 ! A12   A(5,6,8)              109.8043         -DE/DX =    0.0                 !
 ! A13   A(5,6,9)              110.5068         -DE/DX =    0.0                 !
 ! A14   A(7,6,8)              108.742          -DE/DX =    0.0                 !
 ! A15   A(7,6,9)              108.872          -DE/DX =    0.0                 !
 ! A16   A(8,6,9)              108.471          -DE/DX =    0.0                 !
 ! A17   A(5,10,11)            111.0447         -DE/DX =    0.0                 !
 ! A18   A(5,10,12)            110.706          -DE/DX =    0.0                 !
 ! A19   A(5,10,13)            110.1152         -DE/DX =    0.0                 !
 ! A20   A(11,10,12)           109.1349         -DE/DX =    0.0                 !
 ! A21   A(11,10,13)           107.3247         -DE/DX =    0.0                 !
 ! A22   A(12,10,13)           108.4162         -DE/DX =    0.0                 !
 ! A23   A(5,14,15)            109.6053         -DE/DX =    0.0                 !
 ! A24   A(14,15,16)           101.0447         -DE/DX =    0.0                 !
 ! D1    D(2,1,3,4)            179.5887         -DE/DX =   -0.0005              !
 ! D2    D(5,1,3,4)            -30.0            -DE/DX =   -0.0009              !
 ! D3    D(2,1,5,6)            -35.2216         -DE/DX =   -0.0002              !
 ! D4    D(2,1,5,10)            90.3669         -DE/DX =   -0.0002              !
 ! D5    D(2,1,5,14)          -146.9399         -DE/DX =   -0.0002              !
 ! D6    D(3,1,5,6)            176.4488         -DE/DX =    0.0002              !
 ! D7    D(3,1,5,10)           -57.9627         -DE/DX =    0.0002              !
 ! D8    D(3,1,5,14)            64.7305         -DE/DX =    0.0002              !
 ! D9    D(1,5,6,7)            -55.7436         -DE/DX =    0.0                 !
 ! D10   D(1,5,6,8)             64.1405         -DE/DX =    0.0                 !
 ! D11   D(1,5,6,9)           -176.2418         -DE/DX =    0.0                 !
 ! D12   D(10,5,6,7)           177.928          -DE/DX =    0.0                 !
 ! D13   D(10,5,6,8)           -62.1879         -DE/DX =    0.0                 !
 ! D14   D(10,5,6,9)            57.4299         -DE/DX =    0.0                 !
 ! D15   D(14,5,6,7)            62.013          -DE/DX =    0.0                 !
 ! D16   D(14,5,6,8)          -178.1029         -DE/DX =    0.0                 !
 ! D17   D(14,5,6,9)           -58.4851         -DE/DX =    0.0                 !
 ! D18   D(1,5,10,11)           54.5791         -DE/DX =    0.0                 !
 ! D19   D(1,5,10,12)          175.9722         -DE/DX =    0.0                 !
 ! D20   D(1,5,10,13)          -64.1528         -DE/DX =    0.0                 !
 ! D21   D(6,5,10,11)          179.4308         -DE/DX =    0.0                 !
 ! D22   D(6,5,10,12)          -59.1761         -DE/DX =    0.0                 !
 ! D23   D(6,5,10,13)           60.6989         -DE/DX =    0.0                 !
 ! D24   D(14,5,10,11)         -69.2777         -DE/DX =    0.0                 !
 ! D25   D(14,5,10,12)          52.1154         -DE/DX =    0.0                 !
 ! D26   D(14,5,10,13)         171.9904         -DE/DX =    0.0                 !
 ! D27   D(1,5,14,15)          -60.1086         -DE/DX =    0.0                 !
 ! D28   D(6,5,14,15)         -177.2895         -DE/DX =    0.0                 !
 ! D29   D(10,5,14,15)          64.8541         -DE/DX =    0.0                 !
 ! D30   D(5,14,15,16)         -99.6964         -DE/DX =    0.0                 !
 --------------------------------------------------------------------------------
 Iteration  1 RMS(Cart)=  0.01720069 RMS(Int)=  0.01284631
 Iteration  2 RMS(Cart)=  0.00089396 RMS(Int)=  0.01280758
 Iteration  3 RMS(Cart)=  0.00001883 RMS(Int)=  0.01280758
 Iteration  4 RMS(Cart)=  0.00000057 RMS(Int)=  0.01280758
 Iteration  1 RMS(Cart)=  0.00775774 RMS(Int)=  0.00547877
 Iteration  2 RMS(Cart)=  0.00432696 RMS(Int)=  0.00607115
 Iteration  3 RMS(Cart)=  0.00264108 RMS(Int)=  0.00675423
 Iteration  4 RMS(Cart)=  0.00165486 RMS(Int)=  0.00722765
 Iteration  5 RMS(Cart)=  0.00104331 RMS(Int)=  0.00753758
 Iteration  6 RMS(Cart)=  0.00065842 RMS(Int)=  0.00773756
 Iteration  7 RMS(Cart)=  0.00041547 RMS(Int)=  0.00786566
 Iteration  8 RMS(Cart)=  0.00026211 RMS(Int)=  0.00794730
 Iteration  9 RMS(Cart)=  0.00016533 RMS(Int)=  0.00799917
 Iteration 10 RMS(Cart)=  0.00010427 RMS(Int)=  0.00803203
 Iteration 11 RMS(Cart)=  0.00006576 RMS(Int)=  0.00805282
 Iteration 12 RMS(Cart)=  0.00004147 RMS(Int)=  0.00806596
 Iteration 13 RMS(Cart)=  0.00002615 RMS(Int)=  0.00807426
 Iteration 14 RMS(Cart)=  0.00001649 RMS(Int)=  0.00807950
 Iteration 15 RMS(Cart)=  0.00001040 RMS(Int)=  0.00808280
 Iteration 16 RMS(Cart)=  0.00000656 RMS(Int)=  0.00808489
 Iteration 17 RMS(Cart)=  0.00000414 RMS(Int)=  0.00808620
 Iteration 18 RMS(Cart)=  0.00000261 RMS(Int)=  0.00808703
 Iteration 19 RMS(Cart)=  0.00000164 RMS(Int)=  0.00808755
 Iteration 20 RMS(Cart)=  0.00000104 RMS(Int)=  0.00808788
 Iteration 21 RMS(Cart)=  0.00000065 RMS(Int)=  0.00808809
 GradGradGradGradGradGradGradGradGradGradGradGradGradGradGradGradGradGrad

                          Input orientation:                          
 ---------------------------------------------------------------------
 Center     Atomic     Atomic              Coordinates (Angstroms)
 Number     Number      Type              X           Y           Z
 ---------------------------------------------------------------------
    1          6             0       -3.230004    0.876403    0.588700
    2          1             0       -4.294066    0.957754    0.790038
    3          8             0       -2.778571    1.920134   -0.166550
    4          1             0       -1.847329    1.720674   -0.387011
    5          6             0       -2.520762   -0.447403    0.552464
    6          6             0       -3.152872   -1.410971    1.561289
    7          1             0       -3.152362   -0.969567    2.561735
    8          1             0       -4.186669   -1.625265    1.271928
    9          1             0       -2.598429   -2.353798    1.590163
   10          6             0       -2.462110   -1.060617   -0.858842
   11          1             0       -2.016879   -0.361384   -1.572818
   12          1             0       -1.878974   -1.989687   -0.854096
   13          1             0       -3.472741   -1.288438   -1.212655
   14          8             0       -1.159854   -0.330821    1.093351
   15          8             0       -0.394957    0.619886    0.293666
   16          1             0        0.115341    0.016504   -0.276057
 ---------------------------------------------------------------------
                    Distance matrix (angstroms):
                    1          2          3          4          5
     1  C    0.000000
     2  H    1.085994   0.000000
     3  O    1.365126   2.034198   0.000000
     4  H    1.891188   2.820286   0.977548   0.000000
     5  C    1.502265   2.274976   2.487706   2.456966   0.000000
     6  C    2.486756   2.740075   3.771179   3.912481   1.531585
     7  H    2.703054   2.856040   3.991696   4.199477   2.169964
     8  H    2.764118   2.629779   4.076986   4.406801   2.163384
     9  H    3.440351   3.805491   4.624391   4.590717   2.171909
    10  C    2.537141   3.185701   3.076410   2.887241   1.539888
    11  H    2.770550   3.536778   2.786232   2.402051   2.185891
    12  H    3.481582   4.150091   4.070466   3.739779   2.183791
    13  H    2.826718   3.119413   3.445453   3.518296   2.174684
    14  O    2.448996   3.402309   3.045389   2.621588   1.469089
    15  O    2.861876   3.945072   2.753917   1.945363   2.392724
    16  H    3.560697   4.633075   3.465621   2.601649   2.801910
                    6          7          8          9         10
     6  C    0.000000
     7  H    1.093494   0.000000
     8  H    1.094709   1.778576   0.000000
     9  H    1.094150   1.779576   1.776103   0.000000
    10  C    2.541049   3.490714   2.798770   2.772818   0.000000
    11  H    3.494959   4.330558   3.794465   3.783168   1.094038
    12  H    2.791382   3.785507   3.158835   2.573828   1.096923
    13  H    2.795013   3.801361   2.606972   3.123332   1.094743
    14  O    2.314694   2.556215   3.296829   2.531552   2.457546
    15  O    3.652032   3.908168   4.513843   3.921605   2.902669
    16  H    4.011825   4.438838   4.857876   4.057790   2.853609
                   11         12         13         14         15
    11  H    0.000000
    12  H    1.785203   0.000000
    13  H    1.763145   1.777754   0.000000
    14  O    2.800693   2.657352   3.403549   0.000000
    15  O    2.660317   3.213959   3.922175   1.458906   0.000000
    16  H    2.524035   2.887253   3.931212   1.903165   0.974196
                   16
    16  H    0.000000
 Symmetry turned off by external request.
 Stoichiometry    C4H9O3(2)
 Framework group  C1[X(C4H9O3)]
 Deg. of freedom    42
 Full point group                 C1
 Rotational constants (GHZ):      2.9792889      2.4856229      1.9374893
 Standard basis: 6-31G(d) (6D, 7F)
 Integral buffers will be    131072 words long.
 Raffenetti 2 integral format.
 Two-electron integral symmetry is turned off.
   123 basis functions,   232 primitive gaussians,   123 cartesian basis functions
    29 alpha electrons       28 beta electrons
       nuclear repulsion energy       338.6276245288 Hartrees.
 NAtoms=   16 NActive=   16 NUniq=   16 SFac= 7.50D-01 NAtFMM=   80 NAOKFM=F Big=F
 One-electron integrals computed using PRISM.
 NBasis=   123 RedAO= T  NBF=   123
 NBsUse=   123 1.00D-06 NBFU=   123
 Initial guess read from the read-write file:
 <S**2> of initial guess= 0.7532
 Harris functional with IExCor=  402 diagonalized for initial guess.
 ExpMin= 1.61D-01 ExpMax= 5.48D+03 ExpMxC= 8.25D+02 IAcc=1 IRadAn=         1 AccDes= 1.00D-06
 HarFok:  IExCor= 402 AccDes= 1.00D-06 IRadAn=         1 IDoV=1
 ScaDFX=  1.000000  1.000000  1.000000  1.000000
 Requested convergence on RMS density matrix=1.00D-08 within 128 cycles.
 Requested convergence on MAX density matrix=1.00D-06.
 Requested convergence on             energy=1.00D-06.
 No special actions if energy rises.
 Keep R1 and R2 integrals in memory in canonical form, NReq=    60141126.
 Integral accuracy reduced to 1.0D-05 until final iterations.
 Initial convergence to 1.0D-05 achieved.  Increase integral accuracy.
 SCF Done:  E(UB+HF-LYP) =  -383.349799484     A.U. after   14 cycles
             Convg  =    0.8390D-08             -V/T =  2.0089
             S**2   =   0.7533
 Annihilation of the first spin contaminant:
 S**2 before annihilation     0.7533,   after     0.7500
 -------------------------------------------------------------------
 Center     Atomic                   Forces (Hartrees/Bohr)
 Number     Number              X              Y              Z
 -------------------------------------------------------------------
    1          6           0.000419799    0.002953830    0.000712588
    2          1           0.000604256   -0.003133616    0.001617983
    3          8           0.001908841   -0.002855943   -0.004739008
    4          1           0.000180170    0.003203742    0.003669794
    5          6          -0.003231350    0.000359750    0.002027549
    6          6          -0.001216565   -0.000577273   -0.000366157
    7          1           0.000073738    0.000053289   -0.000162409
    8          1          -0.000083288   -0.000083141    0.000098001
    9          1           0.000035118    0.000025255   -0.000042985
   10          6           0.000932093   -0.000005899    0.000669342
   11          1           0.000258134   -0.000250339   -0.000494373
   12          1           0.000156705    0.000158151   -0.000228362
   13          1           0.000035627    0.000183697    0.000219987
   14          8           0.000195685    0.000263478   -0.001898291
   15          8          -0.000727113    0.000313790   -0.001490817
   16          1           0.000458151   -0.000608768    0.000407157
 -------------------------------------------------------------------
 Cartesian Forces:  Max     0.004739008 RMS     0.001486802

 GradGradGradGradGradGradGradGradGradGradGradGradGradGradGradGradGradGrad
 Berny optimization.
 Internal  Forces:  Max     0.005013539 RMS     0.001283069
 Search for a local minimum.
 Step number   1 out of a maximum of  79 on scan point     2 out of    37
 All quantities printed in internal units (Hartrees-Bohrs-Radians)
 Second derivative matrix not updated -- first step.
     Eigenvalues ---    0.00238   0.00348   0.00516   0.00778   0.01269
     Eigenvalues ---    0.04365   0.05165   0.05430   0.05582   0.05608
     Eigenvalues ---    0.05694   0.07150   0.14736   0.16000   0.16000
     Eigenvalues ---    0.16000   0.16000   0.16000   0.16000   0.16000
     Eigenvalues ---    0.16000   0.16451   0.17035   0.22236   0.25000
     Eigenvalues ---    0.28529   0.29277   0.32141   0.34025   0.34271
     Eigenvalues ---    0.34274   0.34337   0.34350   0.34412   0.35288
     Eigenvalues ---    0.35852   0.37104   0.51926   0.52016   0.52529
     Eigenvalues --- 1000.000001000.000001000.000001000.000001000.00000
     Eigenvalues --- 1000.000001000.000001000.000001000.000001000.00000
     Eigenvalues --- 1000.000001000.000001000.000001000.000001000.00000
     Eigenvalues --- 1000.000001000.000001000.000001000.000001000.00000
     Eigenvalues --- 1000.000001000.000001000.000001000.000001000.00000
     Eigenvalues --- 1000.000001000.000001000.000001000.00000
 RFO step:  Lambda=-9.05760923D-04.
 Linear search not attempted -- first point.
 Iteration  1 RMS(Cart)=  0.06344355 RMS(Int)=  0.00686356
 Iteration  2 RMS(Cart)=  0.00597051 RMS(Int)=  0.00006682
 Iteration  3 RMS(Cart)=  0.00008879 RMS(Int)=  0.00004125
 Iteration  4 RMS(Cart)=  0.00000002 RMS(Int)=  0.00004125
 Iteration  1 RMS(Cart)=  0.00002403 RMS(Int)=  0.00001722
 Iteration  2 RMS(Cart)=  0.00001344 RMS(Int)=  0.00001907
 Iteration  3 RMS(Cart)=  0.00000822 RMS(Int)=  0.00002121
 Iteration  4 RMS(Cart)=  0.00000517 RMS(Int)=  0.00002270
 Iteration  5 RMS(Cart)=  0.00000327 RMS(Int)=  0.00002367
 Iteration  6 RMS(Cart)=  0.00000207 RMS(Int)=  0.00002431
 Iteration  7 RMS(Cart)=  0.00000131 RMS(Int)=  0.00002471
 Iteration  8 RMS(Cart)=  0.00000083 RMS(Int)=  0.00002497
 Variable       Old X    -DE/DX   Delta X   Delta X   Delta X     New X
                                 (Linear)    (Quad)   (Total)
    R1        2.05223  -0.00052   0.00000  -0.00148  -0.00148   2.05075
    R2        2.57971   0.00155   0.00000   0.00297   0.00297   2.58269
    R3        2.83887  -0.00129   0.00000  -0.00400  -0.00400   2.83487
    R4        1.84730  -0.00131   0.00000  -0.00252  -0.00252   1.84478
    R5        2.89428   0.00055   0.00000   0.00186   0.00186   2.89613
    R6        2.90997  -0.00013   0.00000  -0.00047  -0.00047   2.90950
    R7        2.77617  -0.00117   0.00000  -0.00325  -0.00325   2.77293
    R8        2.06640  -0.00013   0.00000  -0.00037  -0.00037   2.06603
    R9        2.06870   0.00007   0.00000   0.00020   0.00020   2.06890
   R10        2.06764   0.00000   0.00000  -0.00001  -0.00001   2.06763
   R11        2.06743   0.00027   0.00000   0.00078   0.00078   2.06821
   R12        2.07288  -0.00005   0.00000  -0.00015  -0.00015   2.07274
   R13        2.06876  -0.00014   0.00000  -0.00042  -0.00042   2.06834
   R14        2.75693   0.00026   0.00000   0.00071   0.00071   2.75764
   R15        1.84096   0.00037   0.00000   0.00071   0.00071   1.84168
    A1        1.94906   0.00376   0.00000   0.02403   0.02406   1.97312
    A2        2.13301  -0.00480   0.00000  -0.02061  -0.02075   2.11226
    A3        2.09934   0.00076   0.00000   0.00539   0.00535   2.10469
    A4        1.85854   0.00164   0.00000   0.01019   0.01019   1.86873
    A5        1.92161  -0.00069   0.00000  -0.00346  -0.00346   1.91815
    A6        1.97252   0.00104   0.00000   0.00543   0.00543   1.97794
    A7        1.93750   0.00000   0.00000   0.00071   0.00072   1.93822
    A8        1.94859  -0.00035   0.00000  -0.00196  -0.00195   1.94664
    A9        1.76169   0.00188   0.00000   0.00861   0.00864   1.77033
   A10        1.91108  -0.00184   0.00000  -0.00925  -0.00927   1.90181
   A11        1.92675  -0.00022   0.00000  -0.00160  -0.00160   1.92515
   A12        1.91644   0.00026   0.00000   0.00190   0.00190   1.91834
   A13        1.92876  -0.00009   0.00000  -0.00066  -0.00066   1.92809
   A14        1.89789   0.00000   0.00000   0.00013   0.00014   1.89803
   A15        1.90018   0.00010   0.00000   0.00010   0.00010   1.90028
   A16        1.89318  -0.00004   0.00000   0.00016   0.00016   1.89334
   A17        1.93810   0.00072   0.00000   0.00451   0.00451   1.94260
   A18        1.93218   0.00017   0.00000   0.00090   0.00090   1.93307
   A19        1.92188  -0.00046   0.00000  -0.00273  -0.00273   1.91915
   A20        1.90478  -0.00051   0.00000  -0.00340  -0.00341   1.90137
   A21        1.87316  -0.00009   0.00000  -0.00017  -0.00017   1.87300
   A22        1.89221   0.00014   0.00000   0.00077   0.00077   1.89298
   A23        1.91302  -0.00186   0.00000  -0.00742  -0.00742   1.90561
   A24        1.76357  -0.00084   0.00000  -0.00525  -0.00525   1.75832
    D1       -3.03126  -0.00315   0.00000  -0.01314  -0.01351  -3.04478
    D2       -0.34907  -0.00501   0.00000   0.00000   0.00000  -0.34906
    D3       -0.58468   0.00021   0.00000   0.03618   0.03609  -0.54860
    D4        1.60758  -0.00002   0.00000   0.03497   0.03488   1.64245
    D5       -2.52052  -0.00166   0.00000   0.02738   0.02725  -2.49327
    D6        3.06559  -0.00021   0.00000   0.00880   0.00884   3.07443
    D7       -1.02533  -0.00044   0.00000   0.00759   0.00763  -1.01770
    D8        1.12976  -0.00209   0.00000   0.00000   0.00001   1.12976
    D9       -0.97038  -0.00008   0.00000  -0.00214  -0.00215  -0.97253
   D10        1.12195  -0.00006   0.00000  -0.00178  -0.00178   1.12016
   D11       -3.07348   0.00000   0.00000  -0.00079  -0.00080  -3.07428
   D12        3.10701  -0.00064   0.00000  -0.00516  -0.00516   3.10185
   D13       -1.08385  -0.00062   0.00000  -0.00479  -0.00480  -1.08865
   D14        1.00391  -0.00057   0.00000  -0.00380  -0.00381   1.00010
   D15        1.07793   0.00061   0.00000   0.00167   0.00168   1.07962
   D16       -3.11293   0.00063   0.00000   0.00204   0.00205  -3.11088
   D17       -1.02517   0.00068   0.00000   0.00302   0.00304  -1.02213
   D18        0.95560  -0.00004   0.00000   0.00340   0.00339   0.95899
   D19        3.07433  -0.00008   0.00000   0.00275   0.00274   3.07707
   D20       -1.11666  -0.00009   0.00000   0.00252   0.00251  -1.11414
   D21        3.13327  -0.00044   0.00000   0.00144   0.00143   3.13471
   D22       -1.03118  -0.00048   0.00000   0.00079   0.00079  -1.03040
   D23        1.06101  -0.00049   0.00000   0.00057   0.00056   1.06157
   D24       -1.21400   0.00060   0.00000   0.00555   0.00558  -1.20842
   D25        0.90473   0.00056   0.00000   0.00491   0.00493   0.90966
   D26        2.99692   0.00055   0.00000   0.00468   0.00470   3.00163
   D27       -1.05489  -0.00098   0.00000  -0.12065  -0.12063  -1.17552
   D28       -3.09152  -0.00118   0.00000  -0.12151  -0.12154   3.07013
   D29        1.13501  -0.00098   0.00000  -0.11986  -0.11985   1.01516
   D30       -1.74087  -0.00113   0.00000  -0.18662  -0.18662  -1.92749
         Item               Value     Threshold  Converged?
 Maximum Force            0.003554     0.000450     NO 
 RMS     Force            0.000874     0.000300     NO 
 Maximum Displacement     0.245089     0.001800     NO 
 RMS     Displacement     0.062243     0.001200     NO 
 Predicted change in Energy=-4.924358D-04
 GradGradGradGradGradGradGradGradGradGradGradGradGradGradGradGradGradGrad

                          Input orientation:                          
 ---------------------------------------------------------------------
 Center     Atomic     Atomic              Coordinates (Angstroms)
 Number     Number      Type              X           Y           Z
 ---------------------------------------------------------------------
    1          6             0       -3.259389    0.882350    0.593773
    2          1             0       -4.318186    0.925549    0.827785
    3          8             0       -2.834785    1.939051   -0.161848
    4          1             0       -1.902185    1.768513   -0.394593
    5          6             0       -2.529421   -0.427580    0.552872
    6          6             0       -3.151458   -1.403052    1.558004
    7          1             0       -3.157467   -0.963678    2.559111
    8          1             0       -4.182145   -1.630942    1.267534
    9          1             0       -2.583968   -2.338127    1.585192
   10          6             0       -2.455191   -1.040394   -0.857604
   11          1             0       -2.016883   -0.338243   -1.573629
   12          1             0       -1.858521   -1.960724   -0.850670
   13          1             0       -3.461619   -1.282524   -1.213204
   14          8             0       -1.168957   -0.289713    1.085135
   15          8             0       -0.383499    0.546108    0.182941
   16          1             0        0.232433   -0.113191   -0.185494
 ---------------------------------------------------------------------
                    Distance matrix (angstroms):
                    1          2          3          4          5
     1  C    0.000000
     2  H    1.085209   0.000000
     3  O    1.366700   2.051106   0.000000
     4  H    1.898461   2.835816   0.976215   0.000000
     5  C    1.500147   2.259693   2.490986   2.472638   0.000000
     6  C    2.482832   2.704969   3.771979   3.928376   1.532568
     7  H    2.698289   2.813173   3.991689   4.214851   2.169525
     8  H    2.760810   2.597602   4.074722   4.417825   2.165714
     9  H    3.436652   3.772633   4.627019   4.609649   2.172291
    10  C    2.539719   3.190018   3.083060   2.900026   1.539641
    11  H    2.780522   3.558083   2.801456   2.416960   2.189220
    12  H    3.483090   4.147015   4.078701   3.757275   2.184163
    13  H    2.827144   3.126489   3.446275   3.522894   2.172314
    14  O    2.446440   3.385370   3.049153   2.638846   1.467369
    15  O    2.924480   4.005192   2.840417   2.033280   2.385351
    16  H    3.713647   4.776384   3.690539   2.853266   2.876085
                    6          7          8          9         10
     6  C    0.000000
     7  H    1.093298   0.000000
     8  H    1.094816   1.778589   0.000000
     9  H    1.094143   1.779474   1.776284   0.000000
    10  C    2.539975   3.488985   2.801308   2.769106   0.000000
    11  H    3.496886   4.332625   3.798900   3.781438   1.094451
    12  H    2.790053   3.782587   3.161450   2.569461   1.096845
    13  H    2.791115   3.797965   2.606648   3.116984   1.094520
    14  O    2.322378   2.565347   3.303251   2.539353   2.447888
    15  O    3.653988   3.952283   4.510610   3.889369   2.809205
    16  H    4.019235   4.443828   4.889106   4.002223   2.921431
                   11         12         13         14         15
    11  H    0.000000
    12  H    1.783310   0.000000
    13  H    1.763189   1.778006   0.000000
    14  O    2.791122   2.648607   3.394751   0.000000
    15  O    2.556474   3.086787   3.842908   1.459279   0.000000
    16  H    2.652732   2.868436   4.008683   1.899883   0.974573
                   16
    16  H    0.000000
 Symmetry turned off by external request.
 Stoichiometry    C4H9O3(2)
 Framework group  C1[X(C4H9O3)]
 Deg. of freedom    42
 Full point group                 C1
 Rotational constants (GHZ):      2.9125491      2.5261050      1.9227458
 Standard basis: 6-31G(d) (6D, 7F)
 Integral buffers will be    131072 words long.
 Raffenetti 2 integral format.
 Two-electron integral symmetry is turned off.
   123 basis functions,   232 primitive gaussians,   123 cartesian basis functions
    29 alpha electrons       28 beta electrons
       nuclear repulsion energy       338.1738624235 Hartrees.
 NAtoms=   16 NActive=   16 NUniq=   16 SFac= 7.50D-01 NAtFMM=   80 NAOKFM=F Big=F
 One-electron integrals computed using PRISM.
 NBasis=   123 RedAO= T  NBF=   123
 NBsUse=   123 1.00D-06 NBFU=   123
 Initial guess read from the read-write file:
 <S**2> of initial guess= 0.7533
 Harris functional with IExCor=  402 diagonalized for initial guess.
 ExpMin= 1.61D-01 ExpMax= 5.48D+03 ExpMxC= 8.25D+02 IAcc=1 IRadAn=         1 AccDes= 1.00D-06
 HarFok:  IExCor= 402 AccDes= 1.00D-06 IRadAn=         1 IDoV=1
 ScaDFX=  1.000000  1.000000  1.000000  1.000000
 Requested convergence on RMS density matrix=1.00D-08 within 128 cycles.
 Requested convergence on MAX density matrix=1.00D-06.
 Requested convergence on             energy=1.00D-06.
 No special actions if energy rises.
 Keep R1 and R2 integrals in memory in canonical form, NReq=    60141133.
 Integral accuracy reduced to 1.0D-05 until final iterations.
 Initial convergence to 1.0D-05 achieved.  Increase integral accuracy.
 SCF Done:  E(UB+HF-LYP) =  -383.349450242     A.U. after   14 cycles
             Convg  =    0.7420D-08             -V/T =  2.0089
             S**2   =   0.7533
 Annihilation of the first spin contaminant:
 S**2 before annihilation     0.7533,   after     0.7500
 -------------------------------------------------------------------
 Center     Atomic                   Forces (Hartrees/Bohr)
 Number     Number              X              Y              Z
 -------------------------------------------------------------------
    1          6           0.001988367    0.001150480    0.000802569
    2          1           0.000282935    0.000089464    0.000042031
    3          8           0.001350217   -0.003337525   -0.002767532
    4          1           0.000028047    0.001999774    0.002183720
    5          6          -0.001110699   -0.001862084   -0.000784911
    6          6          -0.000307072   -0.000123165   -0.000287578
    7          1          -0.000071976   -0.000084874    0.000327473
    8          1           0.000005399    0.000216736    0.000137701
    9          1           0.000015931    0.000173219   -0.000085469
   10          6          -0.000998197    0.000470488   -0.001077207
   11          1          -0.000027411   -0.000714205    0.000774657
   12          1           0.000014021    0.000042895    0.000074591
   13          1          -0.000280181   -0.000405775    0.000255623
   14          8           0.000892424   -0.000406919   -0.000332930
   15          8          -0.000062647    0.002348851    0.000957999
   16          1          -0.001719158    0.000442638   -0.000220736
 -------------------------------------------------------------------
 Cartesian Forces:  Max     0.003337525 RMS     0.001076747

 GradGradGradGradGradGradGradGradGradGradGradGradGradGradGradGradGradGrad
 Berny optimization.
 Internal  Forces:  Max     0.003645603 RMS     0.001213588
 Search for a local minimum.
 Step number   2 out of a maximum of  79 on scan point     2 out of    37
 All quantities printed in internal units (Hartrees-Bohrs-Radians)
 Update second derivatives using D2CorX and points  2  1
 Trust test=-7.09D-01 RLast= 2.90D-01 DXMaxT set to 1.50D-01
 Energy Rises -- skip Quadratic search.
 Quartic linear search produced a step of -0.66683.
 Iteration  1 RMS(Cart)=  0.03928402 RMS(Int)=  0.00296546
 Iteration  2 RMS(Cart)=  0.00309480 RMS(Int)=  0.00001681
 Iteration  3 RMS(Cart)=  0.00002127 RMS(Int)=  0.00000917
 Iteration  4 RMS(Cart)=  0.00000000 RMS(Int)=  0.00000917
 Iteration  1 RMS(Cart)=  0.00000554 RMS(Int)=  0.00000392
 Iteration  2 RMS(Cart)=  0.00000311 RMS(Int)=  0.00000434
 Iteration  3 RMS(Cart)=  0.00000190 RMS(Int)=  0.00000483
 Iteration  4 RMS(Cart)=  0.00000119 RMS(Int)=  0.00000518
 Iteration  5 RMS(Cart)=  0.00000075 RMS(Int)=  0.00000540
 Variable       Old X    -DE/DX   Delta X   Delta X   Delta X     New X
                                 (Linear)    (Quad)   (Total)
    R1        2.05075  -0.00026   0.00099   0.00000   0.00099   2.05174
    R2        2.58269  -0.00029  -0.00198   0.00000  -0.00198   2.58071
    R3        2.83487  -0.00185   0.00267   0.00000   0.00267   2.83754
    R4        1.84478  -0.00085   0.00168   0.00000   0.00168   1.84646
    R5        2.89613   0.00009  -0.00124   0.00000  -0.00124   2.89490
    R6        2.90950   0.00015   0.00031   0.00000   0.00031   2.90981
    R7        2.77293  -0.00045   0.00217   0.00000   0.00217   2.77509
    R8        2.06603   0.00026   0.00025   0.00000   0.00025   2.06628
    R9        2.06890  -0.00009  -0.00013   0.00000  -0.00013   2.06877
   R10        2.06763  -0.00014   0.00001   0.00000   0.00001   2.06764
   R11        2.06821  -0.00097  -0.00052   0.00000  -0.00052   2.06769
   R12        2.07274  -0.00003   0.00010   0.00000   0.00010   2.07284
   R13        2.06834   0.00026   0.00028   0.00000   0.00028   2.06862
   R14        2.75764   0.00019  -0.00047   0.00000  -0.00047   2.75717
   R15        1.84168  -0.00131  -0.00048   0.00000  -0.00048   1.84120
    A1        1.97312   0.00157  -0.01605   0.00000  -0.01605   1.95707
    A2        2.11226   0.00058   0.01384   0.00000   0.01387   2.12613
[...]
              7          8          9         10         11         12
     1  C   -0.000818  -0.002799   0.004339  -0.084029  -0.009032   0.005889
     2  H    0.000713   0.002404  -0.000176   0.001883  -0.000066  -0.000134
     3  O   -0.000030   0.000000  -0.000059  -0.001800   0.007106   0.000035
     4  H    0.000009   0.000016   0.000009   0.000384   0.001443  -0.000055
     5  C   -0.027674  -0.025955  -0.022468   0.330055  -0.029714  -0.024869
     6  C    0.365703   0.364590   0.362261  -0.050446   0.005714  -0.005541
     7  H    0.535813  -0.025895  -0.027481   0.006411  -0.000160  -0.000146
     8  H   -0.025895   0.556406  -0.027292  -0.002560  -0.000039   0.000071
     9  H   -0.027481  -0.027292   0.553664  -0.006025  -0.000066   0.003968
    10  C    0.006411  -0.002560  -0.006025   5.248960   0.365232   0.352090
    11  H   -0.000160  -0.000039  -0.000066   0.365232   0.569423  -0.031835
    12  H   -0.000146   0.000071   0.003968   0.352090  -0.031835   0.577807
    13  H   -0.000084   0.001886   0.000259   0.358818  -0.027272  -0.025861
    14  O    0.000057   0.003058   0.000135  -0.060240  -0.004384   0.002971
    15  O   -0.000050  -0.000082  -0.000073  -0.001119   0.006844  -0.000493
    16  H    0.000015   0.000009  -0.000020   0.004595   0.000836   0.000249
             13         14         15         16
     1  C    0.002017  -0.050146  -0.004589   0.000019
     2  H    0.000277   0.003102  -0.000165   0.000013
     3  O   -0.000239  -0.000281  -0.014736   0.000740
     4  H    0.000037  -0.002970   0.042886  -0.002101
     5  C   -0.022401   0.143203  -0.029338  -0.002872
     6  C   -0.003336  -0.041817   0.004042  -0.000190
     7  H   -0.000084   0.000057  -0.000050   0.000015
     8  H    0.001886   0.003058  -0.000082   0.000009
     9  H    0.000259   0.000135  -0.000073  -0.000020
    10  C    0.358818  -0.060240  -0.001119   0.004595
    11  H   -0.027272  -0.004384   0.006844   0.000836
    12  H   -0.025861   0.002971  -0.000493   0.000249
    13  H    0.556041   0.003068   0.000266  -0.000137
    14  O    0.003068   8.259233   0.062510  -0.019983
    15  O    0.000266   0.062510   8.142992   0.219068
    16  H   -0.000137  -0.019983   0.219068   0.378482
 Mulliken atomic charges:
              1
     1  C    0.070501
     2  H    0.129756
     3  O   -0.586361
     4  H    0.432266
     5  C    0.254765
     6  C   -0.471828
     7  H    0.173618
     8  H    0.156182
     9  H    0.159025
    10  C   -0.462210
    11  H    0.145970
    12  H    0.145855
    13  H    0.156661
    14  O   -0.297515
    15  O   -0.427962
    16  H    0.421278
 Sum of Mulliken charges=   0.00000
 Atomic charges with hydrogens summed into heavy atoms:
              1
     1  C    0.200257
     2  H    0.000000
     3  O   -0.154095
     4  H    0.000000
     5  C    0.254765
     6  C    0.016996
     7  H    0.000000
     8  H    0.000000
     9  H    0.000000
    10  C   -0.013724
    11  H    0.000000
    12  H    0.000000
    13  H    0.000000
    14  O   -0.297515
    15  O   -0.006685
    16  H    0.000000
 Sum of Mulliken charges=   0.00000
          Atomic-Atomic Spin Densities.
              1          2          3          4          5          6
     1  C    1.042189  -0.014703  -0.140319  -0.000583   0.023473  -0.011207
     2  H   -0.014703  -0.030853   0.000640  -0.000211   0.006306   0.000212
     3  O   -0.140319   0.000640   0.284952  -0.001172  -0.003669   0.000191
     4  H   -0.000583  -0.000211  -0.001172  -0.002997  -0.000044   0.000005
     5  C    0.023473   0.006306  -0.003669  -0.000044   0.000335  -0.003456
     6  C   -0.011207   0.000212   0.000191   0.000005  -0.003456   0.014311
     7  H    0.005081  -0.000523  -0.000043  -0.000001  -0.000998  -0.003468
     8  H    0.000091   0.000122  -0.000006   0.000000   0.000626  -0.000160
     9  H    0.000170  -0.000039   0.000000  -0.000001   0.000188  -0.000160
    10  C   -0.028363  -0.002274   0.003546  -0.000156  -0.021084   0.004020
    11  H   -0.004158  -0.000124   0.001392  -0.000024   0.000105   0.000113
    12  H    0.001395   0.000062  -0.000130   0.000010   0.001550  -0.000688
    13  H    0.001382   0.000067  -0.000158   0.000001   0.000808  -0.000151
    14  O   -0.017307   0.000508   0.000696   0.000128  -0.014544   0.002635
    15  O    0.000017  -0.000001  -0.000051   0.000319   0.000800  -0.000004
    16  H   -0.000005   0.000000   0.000000  -0.000031  -0.000175   0.000005
              7          8          9         10         11         12
     1  C    0.005081   0.000091   0.000170  -0.028363  -0.004158   0.001395
     2  H   -0.000523   0.000122  -0.000039  -0.002274  -0.000124   0.000062
     3  O   -0.000043  -0.000006   0.000000   0.003546   0.001392  -0.000130
     4  H   -0.000001   0.000000  -0.000001  -0.000156  -0.000024   0.000010
     5  C   -0.000998   0.000626   0.000188  -0.021084   0.000105   0.001550
     6  C   -0.003468  -0.000160  -0.000160   0.004020   0.000113  -0.000688
     7  H    0.001307   0.000003   0.000548   0.000914   0.000015  -0.000085
     8  H    0.000003  -0.000589   0.000193  -0.000457  -0.000009   0.000063
     9  H    0.000548   0.000193  -0.002573   0.000784   0.000015  -0.000309
    10  C    0.000914  -0.000457   0.000784   0.089122   0.003434  -0.008375
    11  H    0.000015  -0.000009   0.000015   0.003434   0.000475  -0.002479
    12  H   -0.000085   0.000063  -0.000309  -0.008375  -0.002479   0.015988
    13  H   -0.000018   0.000003  -0.000021  -0.001467   0.000003   0.000589
    14  O   -0.001337   0.000052  -0.000224  -0.012395  -0.000850   0.001442
    15  O    0.000002   0.000000   0.000004   0.000178   0.000079  -0.000031
    16  H   -0.000001   0.000000  -0.000002  -0.000085  -0.000010   0.000052
             13         14         15         16
     1  C    0.001382  -0.017307   0.000017  -0.000005
     2  H    0.000067   0.000508  -0.000001   0.000000
     3  O   -0.000158   0.000696  -0.000051   0.000000
     4  H    0.000001   0.000128   0.000319  -0.000031
     5  C    0.000808  -0.014544   0.000800  -0.000175
     6  C   -0.000151   0.002635  -0.000004   0.000005
     7  H   -0.000018  -0.001337   0.000002  -0.000001
     8  H    0.000003   0.000052   0.000000   0.000000
     9  H   -0.000021  -0.000224   0.000004  -0.000002
    10  C   -0.001467  -0.012395   0.000178  -0.000085
    11  H    0.000003  -0.000850   0.000079  -0.000010
    12  H    0.000589   0.001442  -0.000031   0.000052
    13  H   -0.001532   0.000104  -0.000002   0.000001
    14  O    0.000104   0.060090  -0.000724   0.000091
    15  O   -0.000002  -0.000724  -0.002791   0.000178
    16  H    0.000001   0.000091   0.000178  -0.000125
 Mulliken atomic spin densities:
              1
     1  C    0.857153
     2  H   -0.040811
     3  O    0.145869
     4  H   -0.004756
     5  C   -0.009778
     6  C    0.002200
     7  H    0.001396
     8  H   -0.000067
     9  H   -0.001426
    10  C    0.027340
    11  H   -0.002021
    12  H    0.009054
    13  H   -0.000389
    14  O    0.018366
    15  O   -0.002025
    16  H   -0.000106
 Sum of Mulliken spin densities=   1.00000
 Electronic spatial extent (au):  <R**2>=  1807.9388
 Charge=     0.0000 electrons
 Dipole moment (field-independent basis, Debye):
    X=     0.6537    Y=    -2.3816    Z=    -1.2871  Tot=     2.7849
 Quadrupole moment (field-independent basis, Debye-Ang):
   XX=   -41.0007   YY=   -45.4079   ZZ=   -44.3602
   XY=     7.2329   XZ=    -1.7906   YZ=    -0.7901
 Traceless Quadrupole moment (field-independent basis, Debye-Ang):
   XX=     2.5889   YY=    -1.8183   ZZ=    -0.7706
   XY=     7.2329   XZ=    -1.7906   YZ=    -0.7901
 Octapole moment (field-independent basis, Debye-Ang**2):
  XXX=   283.7010  YYY=    -0.5008  ZZZ=   -51.4512  XYY=   110.0298
  XXY=   -21.4548  XXZ=    -7.4840  XZZ=   100.5150  YZZ=     1.1346
  YYZ=   -16.0248  XYZ=    -0.4437
 Hexadecapole moment (field-independent basis, Debye-Ang**3):
 XXXX= -1606.7520 YYYY=  -389.4665 ZZZZ=  -269.4775 XXXY=    38.5759
 XXXZ=    92.6947 YYYX=    -5.2216 YYYZ=    33.6304 ZZZX=   124.4352
 ZZZY=    32.7186 XXYY=  -384.6068 XXZZ=  -329.6440 YYZZ=  -110.0249
 XXYZ=    16.9785 YYXZ=    37.2632 ZZXY=    -5.9557
 N-N= 3.387894794981D+02 E-N=-1.574898171324D+03  KE= 3.799740889263D+02
                          Isotropic Fermi Contact Couplings
        Atom                 a.u.       MegaHertz       Gauss      10(-4) cm-1
     1  C(13)              0.16344     183.73457      65.56106      61.28726
     2  H(1)              -0.01132     -50.59867     -18.05486     -16.87790
     3  O(17)              0.03827     -23.20119      -8.27876      -7.73908
     4  H(1)              -0.00152      -6.79798      -2.42569      -2.26756
     5  C(13)             -0.01742     -19.57883      -6.98621      -6.53080
     6  C(13)              0.00379       4.26273       1.52105       1.42189
     7  H(1)              -0.00004      -0.16832      -0.06006      -0.05615
     8  H(1)               0.00020       0.88777       0.31678       0.29613
     9  H(1)              -0.00051      -2.30188      -0.82137      -0.76783
    10  C(13)              0.02859      32.14260      11.46928      10.72162
    11  H(1)              -0.00063      -2.81635      -1.00494      -0.93943
    12  H(1)               0.00385      17.19622       6.13604       5.73604
    13  H(1)               0.00041       1.82045       0.64958       0.60724
    14  O(17)              0.02191     -13.28251      -4.73953      -4.43057
    15  O(17)             -0.00070       0.42475       0.15156       0.14168
    16  H(1)               0.00003       0.13319       0.04753       0.04443
 --------------------------------------------------------
       Center         ----  Spin Dipole Couplings  ----
                      3XX-RR        3YY-RR        3ZZ-RR
 --------------------------------------------------------
     1   Atom       -0.394841     -0.268756      0.663597
     2   Atom        0.069307     -0.051086     -0.018221
     3   Atom       -0.378470     -0.251620      0.630090
     4   Atom        0.040427     -0.025054     -0.015374
     5   Atom        0.018166      0.001755     -0.019921
     6   Atom       -0.008331      0.012893     -0.004562
     7   Atom       -0.007519      0.004155      0.003364
     8   Atom       -0.003462      0.007514     -0.004051
     9   Atom       -0.003191      0.005072     -0.001881
    10   Atom       -0.014005     -0.007429      0.021434
    11   Atom       -0.002727     -0.000467      0.003193
    12   Atom       -0.002011      0.003806     -0.001795
    13   Atom       -0.004407      0.003461      0.000946
    14   Atom        0.068475     -0.030285     -0.038189
    15   Atom        0.016473     -0.009943     -0.006529
    16   Atom        0.004979     -0.002550     -0.002430
 --------------------------------------------------------
                        XY            XZ            YZ
 --------------------------------------------------------
     1   Atom        0.134179      0.312882      0.502878
     2   Atom        0.003677     -0.001039      0.019382
     3   Atom        0.076167      0.178861      0.446264
     4   Atom        0.001969     -0.017070     -0.000625
     5   Atom       -0.032192      0.003372     -0.003254
     6   Atom        0.002410      0.002074     -0.004712
     7   Atom       -0.000019     -0.000864     -0.009229
     8   Atom        0.004971     -0.001409     -0.003601
     9   Atom       -0.001629      0.000554     -0.002719
    10   Atom       -0.011643     -0.020423      0.025981
    11   Atom       -0.003475     -0.007140      0.003717
    12   Atom       -0.005416     -0.000877      0.001580
    13   Atom        0.000932      0.003090      0.008888
    14   Atom       -0.054308      0.050715     -0.026383
    15   Atom       -0.004266      0.001113      0.006040
    16   Atom       -0.001384     -0.001612      0.000183
 --------------------------------------------------------


 ---------------------------------------------------------------------------------
              Anisotropic Spin Dipole Couplings in Principal Axis System
 ---------------------------------------------------------------------------------

       Atom             a.u.   MegaHertz   Gauss  10(-4) cm-1        Axes

              Baa    -0.4888   -65.594   -23.406   -21.880  0.2266  0.8687 -0.4406
     1 C(13)  Bbb    -0.4794   -64.325   -22.953   -21.456  0.9434 -0.3083 -0.1226
              Bcc     0.9682   129.919    46.358    43.336  0.2423  0.3878  0.8893
 
              Baa    -0.0602   -32.106   -11.456   -10.709 -0.0291  0.9071 -0.4198
     2 H(1)   Bbb    -0.0092    -4.934    -1.760    -1.646 -0.0076  0.4198  0.9076
              Bcc     0.0694    37.040    13.217    12.355  0.9995  0.0296 -0.0053
 
              Baa    -0.4381    31.702    11.312    10.575 -0.0450  0.9244 -0.3787
     3 O(17)  Bbb    -0.4092    29.612    10.566     9.878  0.9866 -0.0183 -0.1619
              Bcc     0.8474   -61.315   -21.879   -20.452  0.1566  0.3809  0.9113
 
              Baa    -0.0251   -13.400    -4.782    -4.470 -0.0245  0.9995  0.0211
     4 H(1)   Bbb    -0.0202   -10.767    -3.842    -3.592  0.2715 -0.0136  0.9623
              Bcc     0.0453    24.168     8.624     8.061  0.9621  0.0293 -0.2710
 
              Baa    -0.0233    -3.132    -1.118    -1.045  0.5968  0.7863  0.1598
     5 C(13)  Bbb    -0.0202    -2.708    -0.966    -0.903 -0.1554 -0.0820  0.9844
              Bcc     0.0435     5.840     2.084     1.948  0.7872 -0.6124  0.0732
 
              Baa    -0.0100    -1.348    -0.481    -0.450  0.8535 -0.1894 -0.4855
     6 C(13)  Bbb    -0.0042    -0.562    -0.201    -0.188  0.5147  0.1598  0.8424
              Bcc     0.0142     1.910     0.682     0.637  0.0820  0.9688 -0.2338
 
              Baa    -0.0077    -4.117    -1.469    -1.373  0.9615  0.1697  0.2163
     7 H(1)   Bbb    -0.0053    -2.826    -1.008    -0.943 -0.2735  0.6717  0.6885
              Bcc     0.0130     6.943     2.478     2.316  0.0285  0.7211 -0.6922
 
              Baa    -0.0054    -2.871    -1.024    -0.958  0.9369 -0.3446  0.0595
     8 H(1)   Bbb    -0.0051    -2.711    -0.967    -0.904  0.0351  0.2619  0.9645
              Bcc     0.0105     5.581     1.992     1.862  0.3479  0.9015 -0.2574
 
              Baa    -0.0035    -1.869    -0.667    -0.623  0.9840  0.1716 -0.0484
     9 H(1)   Bbb    -0.0028    -1.503    -0.536    -0.501 -0.0100  0.3240  0.9460
              Bcc     0.0063     3.372     1.203     1.125 -0.1780  0.9304 -0.3205
 
              Baa    -0.0234    -3.135    -1.119    -1.046  0.8442 -0.1964  0.4988
    10 C(13)  Bbb    -0.0226    -3.030    -1.081    -1.011  0.3926  0.8602 -0.3256
              Bcc     0.0459     6.165     2.200     2.056 -0.3651  0.4707  0.8032
 
              Baa    -0.0076    -4.065    -1.450    -1.356  0.8479  0.1473  0.5093
    11 H(1)   Bbb    -0.0027    -1.436    -0.512    -0.479  0.1064  0.8939 -0.4355
              Bcc     0.0103     5.501     1.963     1.835 -0.5194  0.4235  0.7422
 
              Baa    -0.0053    -2.802    -1.000    -0.935  0.8567  0.5155 -0.0184
    12 H(1)   Bbb    -0.0021    -1.146    -0.409    -0.382  0.1149 -0.1559  0.9811
              Bcc     0.0074     3.948     1.409     1.317 -0.5029  0.8426  0.1928
 
              Baa    -0.0078    -4.146    -1.479    -1.383 -0.5002 -0.5114  0.6987
    13 H(1)   Bbb    -0.0039    -2.069    -0.738    -0.690  0.8492 -0.4474  0.2804
              Bcc     0.0116     6.215     2.218     2.073  0.1692  0.7337  0.6581
 
              Baa    -0.0612     4.432     1.581     1.478 -0.1084  0.5277  0.8425
    14 O(17)  Bbb    -0.0527     3.811     1.360     1.271  0.5103  0.7568 -0.4084
              Bcc     0.1139    -8.242    -2.941    -2.749  0.8531 -0.3856  0.3514
 
              Baa    -0.0150     1.089     0.388     0.363  0.1291  0.8007 -0.5850
    15 O(17)  Bbb    -0.0021     0.152     0.054     0.051  0.0844  0.5789  0.8110
              Bcc     0.0171    -1.241    -0.443    -0.414  0.9880 -0.1540  0.0072
 
              Baa    -0.0029    -1.536    -0.548    -0.512  0.2580  0.7358  0.6261
    16 H(1)   Bbb    -0.0027    -1.427    -0.509    -0.476  0.0402 -0.6557  0.7540
              Bcc     0.0056     2.963     1.057     0.989  0.9653 -0.1693 -0.1988
 

 ---------------------------------------------------------------------------------

 1\1\GINC-NODE15\Scan\UB3LYP\6-31G(d)\C4H9O3(2)\NYEE\11-Jul-2013\0\\# o
 pt=(addred) b3lyp/6-31g(d) nosymm\\Title Card Required\\0,2\C,-3.31735
 38022,0.8378726267,0.4643243154\H,-4.399055559,0.8195201327,0.55771913
 82\O,-2.8703485507,1.8600825783,-0.3223097097\H,-1.895953068,1.7936660
 552,-0.3366278074\C,-2.535526786,-0.4416374836,0.5513536593\C,-3.18771
 05205,-1.3949914971,1.5569900739\H,-3.2753981881,-0.914824763,2.535498
 5207\H,-4.1885326564,-1.6715715913,1.210204645\H,-2.5929110969,-2.3072
 778548,1.6622097484\C,-2.3326717906,-1.1148883093,-0.8188420612\H,-1.8
 801251178,-0.4215487898,-1.5339725391\H,-1.6939529822,-2.0015194961,-0
 .7235804566\H,-3.2972193825,-1.4265431292,-1.2324447138\O,-1.222040096
 5,-0.2156633108,1.1700633499\O,-0.4606169218,0.7365489841,0.3691841015
 \H,0.1181765193,0.1361798481,-0.1344652645\\Version=AM64L-G03RevD.01\H
 F=-383.3507535,-383.3500487,-383.3493297,-383.3484808,-383.3474597,-38
 3.3464198,-383.3453297,-383.3441476,-383.3427774,-383.3411688,-383.339
 3433,-383.3374436,-383.3357599,-383.3346821,-383.334559,-383.3353763,-
 383.3367184,-383.338207,-383.339626,-383.3408225,-383.3416874,-383.342
 1663,-383.3422671,-383.3420441,-383.341573,-383.3409569,-383.3402832,-
 383.3396107,-383.3390269,-383.3386587,-383.3387602,-383.3397135,-383.3
 441016,-383.3469303,-383.3491656,-383.350487,-383.3507635\S2=0.753183,
 0.753339,0.753586,0.753511,0.753454,0.753405,0.753363,0.753328,0.75330
 1,0.753289,0.753297,0.753336,0.753416,0.753533,0.753654,0.753703,0.753
 652,0.753553,0.753453,0.753372,0.75332,0.753302,0.753312,0.753342,0.75
 3383,0.753427,0.753471,0.753515,0.753565,0.753633,0.753729,0.753868,0.
 752959,0.752968,0.753011,0.753082,0.753184\S2-1=0.,0.,0.,0.,0.,0.,0.,0
 .,0.,0.,0.,0.,0.,0.,0.,0.,0.,0.,0.,0.,0.,0.,0.,0.,0.,0.,0.,0.,0.,0.,0.
 ,0.,0.,0.,0.,0.,0.\S2A=0.750007,0.750008,0.750009,0.750009,0.750009,0.
 750008,0.750008,0.750008,0.750008,0.750008,0.750008,0.750008,0.750008,
 0.750009,0.750009,0.750009,0.750009,0.750009,0.750008,0.750008,0.75000
 8,0.750008,0.750008,0.750008,0.750008,0.750008,0.750009,0.750009,0.750
 009,0.750009,0.75001,0.75001,0.750006,0.750006,0.750006,0.750007,0.750
 007\RMSD=8.206e-09,4.970e-09,6.345e-09,7.389e-09,8.058e-09,4.248e-09,9
 .231e-09,7.185e-09,7.864e-09,8.232e-09,9.211e-09,9.003e-09,5.290e-09,7
 .203e-09,9.582e-09,5.432e-09,8.195e-09,3.676e-09,7.099e-09,6.627e-09,3
 .248e-09,6.367e-09,7.518e-09,8.940e-09,9.343e-09,8.504e-09,6.192e-09,3
 .860e-09,6.541e-09,8.047e-09,6.983e-09,5.217e-09,9.484e-09,9.996e-09,6
 .803e-09,8.707e-09,7.785e-09\Thermal=0.,0.,0.,0.,0.,0.,0.,0.,0.,0.,0.,
 0.,0.,0.,0.,0.,0.,0.,0.,0.,0.,0.,0.,0.,0.,0.,0.,0.,0.,0.,0.,0.,0.,0.,0
 .,0.,0.\PG=C01 [X(C4H9O3)]\\@


 I (ERNEST RUTHERFORD) CAME INTO THE ROOM, WHICH WAS HALF DARK, AND PRESENTLY
 SPOTTED LORD KELVIN IN THE AUDIENCE AND REALIZED I WAS IN TROUBLE AT
 THE LAST PART OF MY SPEECH DEALING THE AGE OF THE EARTH, WHERE MY VIEWS
 CONFLICTED WITH HIS.  TO MY RELIEF KELVIN FELL FAST ASLEEP, BUT AS I CAME
 TO THE IMPORTANT POINT, I SAW THE OLD BIRD SIT UP AND COCK A BALEFUL GLANCE
 AT ME! THEN A SUDDEN INSPIRATION CAME AND I SAID LORD KELVIN HAD LIMITED
 THE AGE OF THE EARTH PROVIDED NO NEW SOURCE WAS DISCOVERED. THAT
 PROPHETIC UTTERANCE REFERS TO WHAT WE ARE NOW CONSIDERING TONIGHT, RADIUM!
 BEHOLD!  THE OLD BOY BEAMED UPON ME.
 Job cpu time:  1 days  3 hours 47 minutes 24.8 seconds.
 File lengths (MBytes):  RWF=     28 Int=      0 D2E=      0 Chk=     10 Scr=      1
 Normal termination of Gaussian 03 at Thu Jul 11 21:11:24 2013.
