 Entering Gaussian System, Link 0=g03
 Input=p6_2a.gjf
 Output=p6_2a.log
 Initial command:
 /opt/g03/l1.exe /scratch/nyee/Gau-17213.inp -scrdir=/scratch/nyee/
 Entering Link 1 = /opt/g03/l1.exe PID=     17215.
  
 Copyright (c) 1988,1990,1992,1993,1995,1998,2003,2004, Gaussian, Inc.
                  All Rights Reserved.
  
 This is the Gaussian(R) 03 program.  It is based on the
 the Gaussian(R) 98 system (copyright 1998, Gaussian, Inc.),
 the Gaussian(R) 94 system (copyright 1995, Gaussian, Inc.),
 the Gaussian 92(TM) system (copyright 1992, Gaussian, Inc.),
 the Gaussian 90(TM) system (copyright 1990, Gaussian, Inc.),
 the Gaussian 88(TM) system (copyright 1988, Gaussian, Inc.),
 the Gaussian 86(TM) system (copyright 1986, Carnegie Mellon
 University), and the Gaussian 82(TM) system (copyright 1983,
 Carnegie Mellon University). Gaussian is a federally registered
 trademark of Gaussian, Inc.
  
 This software contains proprietary and confidential information,
 including trade secrets, belonging to Gaussian, Inc.
  
 This software is provided under written license and may be
 used, copied, transmitted, or stored only in accord with that
 written license.
  
 The following legend is applicable only to US Government
 contracts under FAR:
  
                    RESTRICTED RIGHTS LEGEND
  
 Use, reproduction and disclosure by the US Government is
 subject to restrictions as set forth in subparagraphs (a)
 and (c) of the Commercial Computer Software - Restricted
 Rights clause in FAR 52.227-19.
  
 Gaussian, Inc.
 340 Quinnipiac St., Bldg. 40, Wallingford CT 06492
  
  
 ---------------------------------------------------------------
 Warning -- This program may not be used in any manner that
 competes with the business of Gaussian, Inc. or will provide
 assistance to any competitor of Gaussian, Inc.  The licensee
 of this program is prohibited from giving any competitor of
 Gaussian, Inc. access to this program.  By using this program,
 the user acknowledges that Gaussian, Inc. is engaged in the
 business of creating and licensing software in the field of
 computational chemistry and represents and warrants to the
 licensee that it is not a competitor of Gaussian, Inc. and that
 it will not use this program in any manner prohibited above.
 ---------------------------------------------------------------
  

 Cite this work as:
 Gaussian 03, Revision D.01,
 M. J. Frisch, G. W. Trucks, H. B. Schlegel, G. E. Scuseria, 
 M. A. Robb, J. R. Cheeseman, J. A. Montgomery, Jr., T. Vreven, 
 K. N. Kudin, J. C. Burant, J. M. Millam, S. S. Iyengar, J. Tomasi, 
 V. Barone, B. Mennucci, M. Cossi, G. Scalmani, N. Rega, 
 G. A. Petersson, H. Nakatsuji, M. Hada, M. Ehara, K. Toyota, 
 R. Fukuda, J. Hasegawa, M. Ishida, T. Nakajima, Y. Honda, O. Kitao, 
 H. Nakai, M. Klene, X. Li, J. E. Knox, H. P. Hratchian, J. B. Cross, 
 V. Bakken, C. Adamo, J. Jaramillo, R. Gomperts, R. E. Stratmann, 
 O. Yazyev, A. J. Austin, R. Cammi, C. Pomelli, J. W. Ochterski, 
 P. Y. Ayala, K. Morokuma, G. A. Voth, P. Salvador, J. J. Dannenberg, 
 V. G. Zakrzewski, S. Dapprich, A. D. Daniels, M. C. Strain, 
 O. Farkas, D. K. Malick, A. D. Rabuck, K. Raghavachari, 
 J. B. Foresman, J. V. Ortiz, Q. Cui, A. G. Baboul, S. Clifford, 
 J. Cioslowski, B. B. Stefanov, G. Liu, A. Liashenko, P. Piskorz, 
 I. Komaromi, R. L. Martin, D. J. Fox, T. Keith, M. A. Al-Laham, 
 C. Y. Peng, A. Nanayakkara, M. Challacombe, P. M. W. Gill, 
 B. Johnson, W. Chen, M. W. Wong, C. Gonzalez, and J. A. Pople, 
 Gaussian, Inc., Wallingford CT, 2004.
 
 ******************************************
 Gaussian 03:  AM64L-G03RevD.01 13-Oct-2005
                 5-Jun-2013 
 ******************************************
 %chk=p6_2a.chk
 %mem=1000mb
 %nproc=8
 Will use up to    8 processors via shared memory.
 ------------------------------------
 # opt=(addred) b3lyp/6-31g(d) nosymm
 ------------------------------------
 1/14=-1,18=120,26=3,38=1/1,3;
 2/9=110,15=1,17=6,18=5,40=1/2;
 3/5=1,6=6,7=1,11=2,16=1,25=1,30=1,74=-5/1,2,3;
 4//1;
 5/5=2,38=5/2;
 6/7=2,8=2,9=2,10=2,28=1/1;
 7/30=1/1,2,3,16;
 1/14=-1,18=20/3(3);
 2/9=110,15=1/2;
 6/7=2,8=2,9=2,10=2,19=2,28=1/1;
 99//99;
 2/9=110,15=1/2;
 3/5=1,6=6,7=1,11=2,16=1,25=1,30=1,74=-5/1,2,3;
 4/5=5,16=3/1;
 5/5=2,38=5/2;
 7/30=1/1,2,3,16;
 1/14=-1,18=20/3(-5);
 2/9=110,15=1/2;
 6/7=2,8=2,9=2,10=2,19=2,28=1/1;
 99/9=1/99;
 -------------------
 Title Card Required
 -------------------
 Symbolic Z-matrix:
 Charge =  0 Multiplicity = 2
 C                    -3.22809   0.87799   0.58139 
 H                    -4.29915   0.91765   0.756 
 O                    -2.77877   1.90895  -0.19242 
 H                    -1.81395   1.78724  -0.28402 
 C                    -2.52192  -0.44766   0.55381 
 C                    -3.15609  -1.40709   1.5653 
 H                    -3.15446  -0.96304   2.56457 
 H                    -4.19039  -1.61985   1.27662 
 H                    -2.60374  -2.35107   1.5966 
 C                    -2.46329  -1.06658  -0.855 
 H                    -2.01817  -0.37019  -1.57183 
 H                    -1.88004  -1.99555  -0.84653 
 H                    -3.47392  -1.29593  -1.20782 
 O                    -1.1553   -0.32825   1.0794 
 O                    -0.39868   0.617     0.26553 
 H                     0.10469   0.00979  -0.30629 
 
 The following ModRedundant input section has been read:
 D    1    5   14   15 S  36 10.000                                            

 GradGradGradGradGradGradGradGradGradGradGradGradGradGradGradGradGradGrad
 Berny optimization.
 Initialization pass.
                           ----------------------------
                           !    Initial Parameters    !
                           ! (Angstroms and Degrees)  !
 --------------------------                            --------------------------
 ! Name  Definition              Value          Derivative Info.                !
 --------------------------------------------------------------------------------
 ! R1    R(1,2)                  1.0859         estimate D2E/DX2                !
 ! R2    R(1,3)                  1.3651         estimate D2E/DX2                !
 ! R3    R(1,5)                  1.5023         estimate D2E/DX2                !
 ! R4    R(3,4)                  0.9768         estimate D2E/DX2                !
 ! R5    R(5,6)                  1.5316         estimate D2E/DX2                !
 ! R6    R(5,10)                 1.5399         estimate D2E/DX2                !
 ! R7    R(5,14)                 1.4691         estimate D2E/DX2                !
 ! R8    R(6,7)                  1.0935         estimate D2E/DX2                !
 ! R9    R(6,8)                  1.0947         estimate D2E/DX2                !
 ! R10   R(6,9)                  1.0942         estimate D2E/DX2                !
 ! R11   R(10,11)                1.094          estimate D2E/DX2                !
 ! R12   R(10,12)                1.0969         estimate D2E/DX2                !
 ! R13   R(10,13)                1.0947         estimate D2E/DX2                !
 ! R14   R(14,15)                1.4589         estimate D2E/DX2                !
 ! R15   R(15,16)                0.9742         estimate D2E/DX2                !
 ! A1    A(2,1,3)              112.8422         estimate D2E/DX2                !
 ! A2    A(2,1,5)              119.9221         estimate D2E/DX2                !
 ! A3    A(3,1,5)              120.0863         estimate D2E/DX2                !
 ! A4    A(1,3,4)              106.5093         estimate D2E/DX2                !
 ! A5    A(1,5,6)              110.2438         estimate D2E/DX2                !
 ! A6    A(1,5,10)             112.9154         estimate D2E/DX2                !
 ! A7    A(1,5,14)             111.0384         estimate D2E/DX2                !
 ! A8    A(6,5,10)             111.6041         estimate D2E/DX2                !
 ! A9    A(6,5,14)             101.5267         estimate D2E/DX2                !
 ! A10   A(10,5,14)            108.9393         estimate D2E/DX2                !
 ! A11   A(5,6,7)              110.3966         estimate D2E/DX2                !
 ! A12   A(5,6,8)              109.8043         estimate D2E/DX2                !
 ! A13   A(5,6,9)              110.5068         estimate D2E/DX2                !
 ! A14   A(7,6,8)              108.742          estimate D2E/DX2                !
 ! A15   A(7,6,9)              108.872          estimate D2E/DX2                !
 ! A16   A(8,6,9)              108.471          estimate D2E/DX2                !
 ! A17   A(5,10,11)            111.0447         estimate D2E/DX2                !
 ! A18   A(5,10,12)            110.706          estimate D2E/DX2                !
 ! A19   A(5,10,13)            110.1152         estimate D2E/DX2                !
 ! A20   A(11,10,12)           109.1349         estimate D2E/DX2                !
 ! A21   A(11,10,13)           107.3247         estimate D2E/DX2                !
 ! A22   A(12,10,13)           108.4162         estimate D2E/DX2                !
 ! A23   A(5,14,15)            109.6053         estimate D2E/DX2                !
 ! A24   A(14,15,16)           101.0447         estimate D2E/DX2                !
 ! D1    D(2,1,3,4)            179.5887         estimate D2E/DX2                !
 ! D2    D(5,1,3,4)            -30.0            estimate D2E/DX2                !
 ! D3    D(2,1,5,6)            -35.2216         estimate D2E/DX2                !
 ! D4    D(2,1,5,10)            90.3669         estimate D2E/DX2                !
 ! D5    D(2,1,5,14)          -146.9399         estimate D2E/DX2                !
 ! D6    D(3,1,5,6)            176.4488         estimate D2E/DX2                !
 ! D7    D(3,1,5,10)           -57.9627         estimate D2E/DX2                !
 ! D8    D(3,1,5,14)            64.7305         estimate D2E/DX2                !
 ! D9    D(1,5,6,7)            -55.7436         estimate D2E/DX2                !
 ! D10   D(1,5,6,8)             64.1405         estimate D2E/DX2                !
 ! D11   D(1,5,6,9)           -176.2418         estimate D2E/DX2                !
 ! D12   D(10,5,6,7)           177.928          estimate D2E/DX2                !
 ! D13   D(10,5,6,8)           -62.1879         estimate D2E/DX2                !
 ! D14   D(10,5,6,9)            57.4299         estimate D2E/DX2                !
 ! D15   D(14,5,6,7)            62.013          estimate D2E/DX2                !
 ! D16   D(14,5,6,8)          -178.1029         estimate D2E/DX2                !
 ! D17   D(14,5,6,9)           -58.4851         estimate D2E/DX2                !
 ! D18   D(1,5,10,11)           54.5791         estimate D2E/DX2                !
 ! D19   D(1,5,10,12)          175.9722         estimate D2E/DX2                !
 ! D20   D(1,5,10,13)          -64.1528         estimate D2E/DX2                !
 ! D21   D(6,5,10,11)          179.4308         estimate D2E/DX2                !
 ! D22   D(6,5,10,12)          -59.1761         estimate D2E/DX2                !
 ! D23   D(6,5,10,13)           60.6989         estimate D2E/DX2                !
 ! D24   D(14,5,10,11)         -69.2777         estimate D2E/DX2                !
 ! D25   D(14,5,10,12)          52.1154         estimate D2E/DX2                !
 ! D26   D(14,5,10,13)         171.9904         estimate D2E/DX2                !
 ! D27   D(1,5,14,15)          -60.1086         Scan                            !
 ! D28   D(6,5,14,15)         -177.2895         estimate D2E/DX2                !
 ! D29   D(10,5,14,15)          64.8541         estimate D2E/DX2                !
 ! D30   D(5,14,15,16)         -99.6964         estimate D2E/DX2                !
 --------------------------------------------------------------------------------
 Trust Radius=3.00D-01 FncErr=1.00D-07 GrdErr=1.00D-06
 Number of optimizations in scan=  37
 Number of steps in this run=  79 maximum allowed number of steps= 100.
 GradGradGradGradGradGradGradGradGradGradGradGradGradGradGradGradGradGrad

                          Input orientation:                          
 ---------------------------------------------------------------------
 Center     Atomic     Atomic              Coordinates (Angstroms)
 Number     Number      Type              X           Y           Z
 ---------------------------------------------------------------------
    1          6             0       -3.228089    0.877989    0.581393
    2          1             0       -4.299151    0.917654    0.755999
    3          8             0       -2.778771    1.908953   -0.192415
    4          1             0       -1.813946    1.787242   -0.284019
    5          6             0       -2.521918   -0.447662    0.553809
    6          6             0       -3.156085   -1.407087    1.565297
    7          1             0       -3.154457   -0.963040    2.564568
    8          1             0       -4.190390   -1.619848    1.276624
    9          1             0       -2.603740   -2.351071    1.596598
   10          6             0       -2.463286   -1.066580   -0.854999
   11          1             0       -2.018167   -0.370193   -1.571829
   12          1             0       -1.880041   -1.995553   -0.846534
   13          1             0       -3.473915   -1.295933   -1.207820
   14          8             0       -1.155297   -0.328250    1.079397
   15          8             0       -0.398676    0.616998    0.265525
   16          1             0        0.104689    0.009785   -0.306289
 ---------------------------------------------------------------------
                    Distance matrix (angstroms):
                    1          2          3          4          5
     1  C    0.000000
     2  H    1.085926   0.000000
     3  O    1.365120   2.047857   0.000000
     4  H    1.890894   2.830912   0.976776   0.000000
     5  C    1.502261   2.250228   2.485248   2.489573   0.000000
     6  C    2.488940   2.714035   3.772007   3.927473   1.531591
     7  H    2.706990   2.849255   3.998805   4.180367   2.169994
     8  H    2.765603   2.592643   4.074700   4.437494   2.163396
     9  H    3.441988   3.776981   4.623744   4.613689   2.171882
    10  C    2.535645   3.146887   3.064693   2.981939   1.539882
    11  H    2.767352   3.504315   2.770525   2.520850   2.185887
    12  H    3.480439   4.111810   4.059650   3.824961   2.183789
    13  H    2.826243   3.072062   3.433011   3.621446   2.174672
    14  O    2.449385   3.397158   3.042737   2.601543   1.469066
    15  O    2.858928   3.942672   2.746581   1.916888   2.392648
    16  H    3.556567   4.620226   3.454584   2.615532   2.801444
                    6          7          8          9         10
     6  C    0.000000
     7  H    1.093491   0.000000
     8  H    1.094708   1.778582   0.000000
     9  H    1.094153   1.779574   1.776099   0.000000
    10  C    2.540423   3.490254   2.798716   2.771276   0.000000
    11  H    3.494505   4.330404   3.793926   3.782288   1.094043
    12  H    2.791328   3.784949   3.160169   2.572747   1.096922
    13  H    2.793483   3.800498   2.605901   3.120141   1.094740
    14  O    2.324466   2.570084   3.304378   2.541120   2.449052
    15  O    3.659185   3.921281   4.516957   3.929821   2.890091
    16  H    4.017836   4.450870   4.858911   4.065736   2.837982
                   11         12         13         14         15
    11  H    0.000000
    12  H    1.785197   0.000000
    13  H    1.763150   1.777760   0.000000
    14  O    2.788423   2.648464   3.397611   0.000000
    15  O    2.640675   3.202583   3.909878   1.458889   0.000000
    16  H    2.500498   2.872699   3.914596   1.903144   0.974195
                   16
    16  H    0.000000
 Symmetry turned off by external request.
 Stoichiometry    C4H9O3(2)
 Framework group  C1[X(C4H9O3)]
 Deg. of freedom    42
 Full point group                 C1
 Rotational constants (GHZ):      2.9914326      2.4872751      1.9371957
 Standard basis: 6-31G(d) (6D, 7F)
 Integral buffers will be    131072 words long.
 Raffenetti 2 integral format.
 Two-electron integral symmetry is turned off.
   123 basis functions,   232 primitive gaussians,   123 cartesian basis functions
    29 alpha electrons       28 beta electrons
       nuclear repulsion energy       338.7811590651 Hartrees.
 NAtoms=   16 NActive=   16 NUniq=   16 SFac= 7.50D-01 NAtFMM=   80 NAOKFM=F Big=F
 One-electron integrals computed using PRISM.
 NBasis=   123 RedAO= T  NBF=   123
 NBsUse=   123 1.00D-06 NBFU=   123
 Harris functional with IExCor=  402 diagonalized for initial guess.
 ExpMin= 1.61D-01 ExpMax= 5.48D+03 ExpMxC= 8.25D+02 IAcc=1 IRadAn=         1 AccDes= 1.00D-06
 HarFok:  IExCor= 402 AccDes= 1.00D-06 IRadAn=         1 IDoV=1
 ScaDFX=  1.000000  1.000000  1.000000  1.000000
 <S**2> of initial guess= 0.7500
 Requested convergence on RMS density matrix=1.00D-08 within 128 cycles.
 Requested convergence on MAX density matrix=1.00D-06.
 Requested convergence on             energy=1.00D-06.
 No special actions if energy rises.
 Keep R1 and R2 integrals in memory in canonical form, NReq=    60141126.
 Integral accuracy reduced to 1.0D-05 until final iterations.
 Initial convergence to 1.0D-05 achieved.  Increase integral accuracy.
 SCF Done:  E(UB+HF-LYP) =  -383.350753531     A.U. after   17 cycles
             Convg  =    0.8206D-08             -V/T =  2.0089
             S**2   =   0.7532
 Annihilation of the first spin contaminant:
 S**2 before annihilation     0.7532,   after     0.7500

 **********************************************************************

            Population analysis using the SCF density.

 **********************************************************************

 Alpha  occ. eigenvalues --  -19.21976 -19.20774 -19.16377 -10.25446 -10.22125
 Alpha  occ. eigenvalues --  -10.18737 -10.18698  -1.12116  -1.04104  -0.92372
 Alpha  occ. eigenvalues --   -0.78204  -0.70188  -0.66753  -0.58510  -0.55158
 Alpha  occ. eigenvalues --   -0.48041  -0.47514  -0.46306  -0.43434  -0.41516
 Alpha  occ. eigenvalues --   -0.40671  -0.40023  -0.38599  -0.36803  -0.36171
 Alpha  occ. eigenvalues --   -0.34215  -0.29652  -0.27611  -0.16068
 Alpha virt. eigenvalues --    0.00843   0.06319   0.10712   0.11623   0.13143
 Alpha virt. eigenvalues --    0.14614   0.16079   0.17036   0.18109   0.19002
 Alpha virt. eigenvalues --    0.21870   0.22408   0.25130   0.27446   0.30096
 Alpha virt. eigenvalues --    0.49117   0.53179   0.55270   0.56276   0.57084
 Alpha virt. eigenvalues --    0.60041   0.63415   0.65533   0.68020   0.69459
 Alpha virt. eigenvalues --    0.73300   0.75750   0.78570   0.79892   0.80606
 Alpha virt. eigenvalues --    0.85205   0.88175   0.89740   0.90086   0.90771
 Alpha virt. eigenvalues --    0.92865   0.93618   0.95990   0.97000   0.98957
 Alpha virt. eigenvalues --    1.03300   1.06409   1.10047   1.12879   1.13855
 Alpha virt. eigenvalues --    1.18909   1.25412   1.31619   1.36944   1.38530
 Alpha virt. eigenvalues --    1.40626   1.50368   1.53004   1.58923   1.62509
 Alpha virt. eigenvalues --    1.65130   1.72221   1.75477   1.76549   1.80840
 Alpha virt. eigenvalues --    1.85395   1.86627   1.89566   1.90299   1.92954
 Alpha virt. eigenvalues --    1.97382   2.04121   2.08684   2.11402   2.14350
 Alpha virt. eigenvalues --    2.21506   2.24214   2.26772   2.27620   2.32111
 Alpha virt. eigenvalues --    2.34257   2.38451   2.42185   2.46921   2.51665
 Alpha virt. eigenvalues --    2.58486   2.65897   2.73258   2.79639   2.88567
 Alpha virt. eigenvalues --    2.93038   3.08112   3.59483   3.84674   3.92055
 Alpha virt. eigenvalues --    4.18779   4.26018   4.30833   4.64327
  Beta  occ. eigenvalues --  -19.21982 -19.20692 -19.15854 -10.25496 -10.20850
  Beta  occ. eigenvalues --  -10.18726 -10.18626  -1.12021  -1.02869  -0.92241
  Beta  occ. eigenvalues --   -0.77783  -0.70053  -0.64815  -0.58166  -0.54975
  Beta  occ. eigenvalues --   -0.47640  -0.47005  -0.46154  -0.42899  -0.40496
  Beta  occ. eigenvalues --   -0.40341  -0.39841  -0.38468  -0.35937  -0.34618
  Beta  occ. eigenvalues --   -0.32806  -0.29363  -0.27306
  Beta virt. eigenvalues --   -0.01856   0.00944   0.06392   0.10862   0.11927
  Beta virt. eigenvalues --    0.13396   0.14835   0.16519   0.17190   0.18424
  Beta virt. eigenvalues --    0.19252   0.22096   0.22963   0.25554   0.29211
  Beta virt. eigenvalues --    0.30878   0.49289   0.54818   0.55900   0.56738
  Beta virt. eigenvalues --    0.58260   0.62500   0.63924   0.65832   0.68561
  Beta virt. eigenvalues --    0.69952   0.73658   0.76149   0.78761   0.80283
  Beta virt. eigenvalues --    0.81005   0.85472   0.88439   0.89976   0.90261
  Beta virt. eigenvalues --    0.91043   0.93134   0.94276   0.96191   0.97309
  Beta virt. eigenvalues --    0.99835   1.03565   1.06809   1.10335   1.13125
  Beta virt. eigenvalues --    1.14234   1.19672   1.25639   1.31926   1.37377
  Beta virt. eigenvalues --    1.38881   1.42164   1.50602   1.54022   1.59650
  Beta virt. eigenvalues --    1.63196   1.65651   1.72673   1.75918   1.77455
  Beta virt. eigenvalues --    1.81582   1.85746   1.86976   1.90539   1.91756
  Beta virt. eigenvalues --    1.93888   1.97571   2.04452   2.08879   2.13628
  Beta virt. eigenvalues --    2.15893   2.21678   2.24327   2.27652   2.28184
  Beta virt. eigenvalues --    2.32404   2.34717   2.39317   2.44632   2.46997
  Beta virt. eigenvalues --    2.52234   2.59456   2.66463   2.73864   2.80365
  Beta virt. eigenvalues --    2.88842   2.93965   3.08187   3.59559   3.85123
  Beta virt. eigenvalues --    3.92568   4.19432   4.27996   4.31239   4.64564
          Condensed to atoms (all electrons):
              1          2          3          4          5          6
     1  C    5.122200   0.361514   0.277694  -0.030912   0.384257  -0.045893
     2  H    0.361514   0.590063  -0.041599   0.005455  -0.050168  -0.002843
     3  O    0.277694  -0.041599   8.156886   0.232104  -0.032011   0.002537
     4  H   -0.030912   0.005455   0.232104   0.330998  -0.009650   0.000107
     5  C    0.384257  -0.050168  -0.032011  -0.009650   4.808269   0.356096
     6  C   -0.045893  -0.002843   0.002537   0.000107   0.356096   5.161104
     7  H   -0.000733   0.000721  -0.000029   0.000008  -0.027774   0.365705
     8  H   -0.002747   0.002337  -0.000002   0.000015  -0.025980   0.364610
     9  H    0.004346  -0.000175  -0.000059   0.000010  -0.022388   0.362102
    10  C   -0.084188   0.001870  -0.001687   0.000377   0.330140  -0.050539
    11  H   -0.008962  -0.000066   0.007002   0.001445  -0.029683   0.005717
    12  H    0.005885  -0.000134   0.000035  -0.000055  -0.024864  -0.005559
    13  H    0.002010   0.000286  -0.000243   0.000037  -0.022383  -0.003322
    14  O   -0.050104   0.003102  -0.000275  -0.002960   0.143214  -0.041831
    15  O   -0.004611  -0.000165  -0.014771   0.042895  -0.029216   0.004050
    16  H    0.000018   0.000013   0.000741  -0.002101  -0.002844  -0.000189
              7          8          9         10         11         12
     1  C   -0.000733  -0.002747   0.004346  -0.084188  -0.008962   0.005885
     2  H    0.000721   0.002337  -0.000175   0.001870  -0.000066  -0.000134
     3  O   -0.000029  -0.000002  -0.000059  -0.001687   0.007002   0.000035
     4  H    0.000008   0.000015   0.000010   0.000377   0.001445  -0.000055
     5  C   -0.027774  -0.025980  -0.022388   0.330140  -0.029683  -0.024864
     6  C    0.365705   0.364610   0.362102  -0.050539   0.005717  -0.005559
     7  H    0.536088  -0.025949  -0.027470   0.006418  -0.000160  -0.000144
     8  H   -0.025949   0.556474  -0.027227  -0.002592  -0.000033   0.000072
     9  H   -0.027470  -0.027227   0.553394  -0.005953  -0.000072   0.003942
    10  C    0.006418  -0.002592  -0.005953   5.248820   0.365173   0.352236
    11  H   -0.000160  -0.000033  -0.000072   0.365173   0.569654  -0.031850
    12  H   -0.000144   0.000072   0.003942   0.352236  -0.031850   0.577678
    13  H   -0.000087   0.001907   0.000256   0.358766  -0.027267  -0.025881
    14  O    0.000021   0.003056   0.000158  -0.060170  -0.004427   0.002951
    15  O   -0.000051  -0.000082  -0.000072  -0.001230   0.006920  -0.000485
    16  H    0.000014   0.000009  -0.000021   0.004551   0.000859   0.000237
             13         14         15         16
     1  C    0.002010  -0.050104  -0.004611   0.000018
     2  H    0.000286   0.003102  -0.000165   0.000013
     3  O   -0.000243  -0.000275  -0.014771   0.000741
     4  H    0.000037  -0.002960   0.042895  -0.002101
     5  C   -0.022383   0.143214  -0.029216  -0.002844
     6  C   -0.003322  -0.041831   0.004050  -0.000189
     7  H   -0.000087   0.000021  -0.000051   0.000014
     8  H    0.001907   0.003056  -0.000082   0.000009
     9  H    0.000256   0.000158  -0.000072  -0.000021
    10  C    0.358766  -0.060170  -0.001230   0.004551
    11  H   -0.027267  -0.004427   0.006920   0.000859
    12  H   -0.025881   0.002951  -0.000485   0.000237
    13  H    0.556096   0.003070   0.000263  -0.000137
    14  O    0.003070   8.259097   0.062499  -0.019943
    15  O    0.000263   0.062499   8.142980   0.219072
    16  H   -0.000137  -0.019943   0.219072   0.378435
 Mulliken atomic charges:
              1
     1  C    0.070226
     2  H    0.129790
     3  O   -0.586322
     4  H    0.432227
     5  C    0.254987
     6  C   -0.471850
     7  H    0.173423
     8  H    0.156133
     9  H    0.159231
    10  C   -0.461992
    11  H    0.145749
    12  H    0.145939
    13  H    0.156629
    14  O   -0.297456
    15  O   -0.427998
    16  H    0.421286
 Sum of Mulliken charges=   0.00000
 Atomic charges with hydrogens summed into heavy atoms:
              1
     1  C    0.200016
     2  H    0.000000
     3  O   -0.154095
     4  H    0.000000
     5  C    0.254987
     6  C    0.016937
     7  H    0.000000
     8  H    0.000000
     9  H    0.000000
    10  C   -0.013676
    11  H    0.000000
    12  H    0.000000
    13  H    0.000000
    14  O   -0.297456
    15  O   -0.006712
    16  H    0.000000
 Sum of Mulliken charges=   0.00000
          Atomic-Atomic Spin Densities.
              1          2          3          4          5          6
     1  C    1.042182  -0.014719  -0.140353  -0.000578   0.023618  -0.011449
     2  H   -0.014719  -0.030818   0.000645  -0.000212   0.006296   0.000254
     3  O   -0.140353   0.000645   0.285075  -0.001175  -0.003667   0.000193
     4  H   -0.000578  -0.000212  -0.001175  -0.002999  -0.000043   0.000006
     5  C    0.023618   0.006296  -0.003667  -0.000043   0.000239  -0.003323
     6  C   -0.011449   0.000254   0.000193   0.000006  -0.003323   0.014502
     7  H    0.005241  -0.000544  -0.000045  -0.000001  -0.001038  -0.003646
     8  H    0.000101   0.000114  -0.000006   0.000000   0.000573  -0.000145
     9  H    0.000167  -0.000038   0.000000  -0.000001   0.000204  -0.000142
    10  C   -0.028504  -0.002286   0.003561  -0.000155  -0.021268   0.004067
    11  H   -0.004089  -0.000122   0.001360  -0.000023   0.000105   0.000113
    12  H    0.001393   0.000062  -0.000128   0.000009   0.001607  -0.000718
    13  H    0.001383   0.000067  -0.000159   0.000001   0.000803  -0.000150
    14  O   -0.017254   0.000508   0.000694   0.000127  -0.014491   0.002643
    15  O    0.000018  -0.000001  -0.000052   0.000320   0.000798  -0.000004
    16  H   -0.000005   0.000000   0.000000  -0.000031  -0.000170   0.000005
              7          8          9         10         11         12
     1  C    0.005241   0.000101   0.000167  -0.028504  -0.004089   0.001393
     2  H   -0.000544   0.000114  -0.000038  -0.002286  -0.000122   0.000062
     3  O   -0.000045  -0.000006   0.000000   0.003561   0.001360  -0.000128
     4  H   -0.000001   0.000000  -0.000001  -0.000155  -0.000023   0.000009
     5  C   -0.001038   0.000573   0.000204  -0.021268   0.000105   0.001607
     6  C   -0.003646  -0.000145  -0.000142   0.004067   0.000113  -0.000718
     7  H    0.001445   0.000018   0.000542   0.000935   0.000015  -0.000086
     8  H    0.000018  -0.000574   0.000193  -0.000428  -0.000008   0.000061
     9  H    0.000542   0.000193  -0.002594   0.000747   0.000015  -0.000297
    10  C    0.000935  -0.000428   0.000747   0.089308   0.003412  -0.008386
    11  H    0.000015  -0.000008   0.000015   0.003412   0.000400  -0.002442
    12  H   -0.000086   0.000061  -0.000297  -0.008386  -0.002442   0.015911
    13  H   -0.000018   0.000002  -0.000019  -0.001460   0.000009   0.000588
    14  O   -0.001354   0.000049  -0.000217  -0.012388  -0.000839   0.001430
    15  O    0.000002   0.000000   0.000004   0.000177   0.000077  -0.000030
    16  H   -0.000001   0.000000  -0.000002  -0.000083  -0.000008   0.000050
             13         14         15         16
     1  C    0.001383  -0.017254   0.000018  -0.000005
     2  H    0.000067   0.000508  -0.000001   0.000000
     3  O   -0.000159   0.000694  -0.000052   0.000000
     4  H    0.000001   0.000127   0.000320  -0.000031
     5  C    0.000803  -0.014491   0.000798  -0.000170
     6  C   -0.000150   0.002643  -0.000004   0.000005
     7  H   -0.000018  -0.001354   0.000002  -0.000001
     8  H    0.000002   0.000049   0.000000   0.000000
     9  H   -0.000019  -0.000217   0.000004  -0.000002
    10  C   -0.001460  -0.012388   0.000177  -0.000083
    11  H    0.000009  -0.000839   0.000077  -0.000008
    12  H    0.000588   0.001430  -0.000030   0.000050
    13  H   -0.001530   0.000103  -0.000002   0.000001
    14  O    0.000103   0.059912  -0.000720   0.000088
    15  O   -0.000002  -0.000720  -0.002793   0.000179
    16  H    0.000001   0.000088   0.000179  -0.000130
 Mulliken atomic spin densities:
              1
     1  C    0.857152
     2  H   -0.040793
     3  O    0.145945
     4  H   -0.004756
     5  C   -0.009757
     6  C    0.002206
     7  H    0.001466
     8  H   -0.000050
     9  H   -0.001437
    10  C    0.027249
    11  H   -0.002024
    12  H    0.009024
    13  H   -0.000381
    14  O    0.018288
    15  O   -0.002026
    16  H   -0.000107
 Sum of Mulliken spin densities=   1.00000
 Electronic spatial extent (au):  <R**2>=  1782.3954
 Charge=     0.0000 electrons
 Dipole moment (field-independent basis, Debye):
    X=     0.4136    Y=    -2.3499    Z=    -1.4349  Tot=     2.7843
 Quadrupole moment (field-independent basis, Debye-Ang):
   XX=   -40.4407   YY=   -45.5621   ZZ=   -43.7017
   XY=     6.9119   XZ=    -1.8490   YZ=    -0.7058
 Traceless Quadrupole moment (field-independent basis, Debye-Ang):
   XX=     2.7941   YY=    -2.3272   ZZ=    -0.4669
   XY=     6.9119   XZ=    -1.8490   YZ=    -0.7058
 Octapole moment (field-independent basis, Debye-Ang**2):
  XXX=   278.5893  YYY=     0.0179  ZZZ=   -51.5917  XYY=   109.4725
  XXY=   -19.4755  XXZ=    -7.7907  XZZ=    98.5760  YZZ=     2.1145
  YYZ=   -16.6060  XYZ=     0.2140
 Hexadecapole moment (field-independent basis, Debye-Ang**3):
 XXXX= -1572.8692 YYYY=  -393.9335 ZZZZ=  -267.5366 XXXY=    27.3592
 XXXZ=    96.1052 YYYX=    -6.3225 YYYZ=    30.7921 ZZZX=   128.7381
 ZZZY=    29.9841 XXYY=  -379.8644 XXZZ=  -322.0392 YYZZ=  -109.8577
 XXYZ=    14.3067 YYXZ=    39.8640 ZZXY=    -8.4120
 N-N= 3.387811590651D+02 E-N=-1.574881811442D+03  KE= 3.799740872492D+02
                          Isotropic Fermi Contact Couplings
        Atom                 a.u.       MegaHertz       Gauss      10(-4) cm-1
     1  C(13)              0.16365     183.97336      65.64627      61.36691
     2  H(1)              -0.01132     -50.57997     -18.04819     -16.87166
     3  O(17)              0.03829     -23.21315      -8.28303      -7.74307
     4  H(1)              -0.00152      -6.80971      -2.42987      -2.27147
     5  C(13)             -0.01738     -19.53847      -6.97181      -6.51733
     6  C(13)              0.00386       4.33999       1.54862       1.44766
     7  H(1)              -0.00005      -0.21915      -0.07820      -0.07310
     8  H(1)               0.00021       0.93455       0.33347       0.31173
     9  H(1)              -0.00051      -2.30125      -0.82114      -0.76762
    10  C(13)              0.02859      32.14083      11.46865      10.72103
    11  H(1)              -0.00063      -2.81502      -1.00447      -0.93899
    12  H(1)               0.00384      17.17695       6.12916       5.72962
    13  H(1)               0.00042       1.87044       0.66742       0.62391
    14  O(17)              0.02188     -13.26616      -4.73369      -4.42511
    15  O(17)             -0.00071       0.42823       0.15280       0.14284
    16  H(1)               0.00003       0.12657       0.04516       0.04222
 --------------------------------------------------------
       Center         ----  Spin Dipole Couplings  ----
                      3XX-RR        3YY-RR        3ZZ-RR
 --------------------------------------------------------
     1   Atom       -0.321935     -0.328454      0.650389
     2   Atom        0.068862     -0.052865     -0.015997
     3   Atom       -0.333278     -0.300408      0.633686
     4   Atom        0.037624     -0.025093     -0.012532
     5   Atom        0.014387      0.005822     -0.020209
     6   Atom       -0.007805      0.013069     -0.005264
     7   Atom       -0.007680      0.005009      0.002671
     8   Atom       -0.003051      0.007204     -0.004153
     9   Atom       -0.003293      0.005464     -0.002171
    10   Atom       -0.017876     -0.008522      0.026398
    11   Atom       -0.004087     -0.000450      0.004537
    12   Atom       -0.002797      0.004283     -0.001486
    13   Atom       -0.003718      0.002490      0.001229
    14   Atom        0.067814     -0.020776     -0.047038
    15   Atom        0.015941     -0.009928     -0.006013
    16   Atom        0.004510     -0.002390     -0.002120
 --------------------------------------------------------
                        XY            XZ            YZ
 --------------------------------------------------------
     1   Atom        0.156004      0.423748      0.426437
     2   Atom       -0.001962     -0.006346      0.017952
     3   Atom        0.101740      0.282153      0.384520
     4   Atom       -0.001008     -0.021068     -0.000031
     5   Atom       -0.033103     -0.000920      0.000232
     6   Atom        0.003224      0.002166     -0.004187
     7   Atom        0.000127     -0.000695     -0.009179
     8   Atom        0.005353     -0.001416     -0.003335
     9   Atom       -0.001360      0.000440     -0.002330
    10   Atom       -0.008381     -0.016255      0.026361
    11   Atom       -0.002684     -0.006491      0.004161
    12   Atom       -0.004811     -0.000939      0.002270
    13   Atom        0.001841      0.004085      0.008662
    14   Atom       -0.063610      0.037993     -0.023737
    15   Atom       -0.005380     -0.000457      0.006203
    16   Atom       -0.001707     -0.002192      0.000403
 --------------------------------------------------------


 ---------------------------------------------------------------------------------
              Anisotropic Spin Dipole Couplings in Principal Axis System
 ---------------------------------------------------------------------------------

       Atom             a.u.   MegaHertz   Gauss  10(-4) cm-1        Axes

              Baa    -0.4888   -65.595   -23.406   -21.880  0.2468  0.8739 -0.4189
     1 C(13)  Bbb    -0.4793   -64.322   -22.952   -21.456  0.9110 -0.3566 -0.2071
              Bcc     0.9682   129.917    46.358    43.336  0.3304  0.3305  0.8841
 
              Baa    -0.0602   -32.101   -11.454   -10.708 -0.0045  0.9262 -0.3771
     2 H(1)   Bbb    -0.0093    -4.941    -1.763    -1.648  0.0844  0.3761  0.9227
              Bcc     0.0694    37.042    13.217    12.356  0.9964 -0.0277 -0.0798
 
              Baa    -0.4383    31.718    11.318    10.580 -0.0164  0.9425 -0.3338
     3 O(17)  Bbb    -0.4094    29.627    10.572     9.882  0.9691 -0.0672 -0.2374
              Bcc     0.8478   -61.345   -21.889   -20.462  0.2461  0.3273  0.9123
 
              Baa    -0.0251   -13.410    -4.785    -4.473  0.0384  0.9970  0.0666
     4 H(1)   Bbb    -0.0202   -10.766    -3.842    -3.591  0.3403 -0.0757  0.9373
              Bcc     0.0453    24.176     8.627     8.064  0.9395 -0.0133 -0.3422
 
              Baa    -0.0233    -3.131    -1.117    -1.044  0.6552  0.7428  0.1379
     5 C(13)  Bbb    -0.0202    -2.705    -0.965    -0.902 -0.0812 -0.1122  0.9904
              Bcc     0.0435     5.837     2.083     1.947  0.7511 -0.6601 -0.0133
 
              Baa    -0.0101    -1.356    -0.484    -0.452  0.8108 -0.2114 -0.5458
     6 C(13)  Bbb    -0.0042    -0.565    -0.202    -0.188  0.5723  0.0907  0.8150
              Bcc     0.0143     1.921     0.685     0.641  0.1228  0.9732 -0.1945
 
              Baa    -0.0078    -4.149    -1.480    -1.384  0.9829  0.1008  0.1540
     7 H(1)   Bbb    -0.0053    -2.845    -1.015    -0.949 -0.1821  0.6540  0.7343
              Bcc     0.0131     6.994     2.496     2.333  0.0267  0.7498 -0.6612
 
              Baa    -0.0053    -2.847    -1.016    -0.950  0.9171 -0.3978 -0.0238
     8 H(1)   Bbb    -0.0051    -2.697    -0.963    -0.900  0.1174  0.2126  0.9701
              Bcc     0.0104     5.545     1.979     1.850  0.3809  0.8925 -0.2417
 
              Baa    -0.0035    -1.872    -0.668    -0.625  0.9859  0.1189 -0.1176
     9 H(1)   Bbb    -0.0028    -1.505    -0.537    -0.502  0.0801  0.2820  0.9561
              Bcc     0.0063     3.378     1.205     1.127 -0.1468  0.9520 -0.2685
 
              Baa    -0.0233    -3.123    -1.114    -1.042  0.8603 -0.2765  0.4283
    10 C(13)  Bbb    -0.0225    -3.024    -1.079    -1.009  0.4286  0.8472 -0.3140
              Bcc     0.0458     6.147     2.193     2.050 -0.2760  0.4537  0.8473
 
              Baa    -0.0076    -4.053    -1.446    -1.352  0.8895  0.0711  0.4514
    11 H(1)   Bbb    -0.0027    -1.436    -0.513    -0.479  0.1320  0.9057 -0.4028
              Bcc     0.0103     5.489     1.959     1.831 -0.4375  0.4179  0.7962
 
              Baa    -0.0052    -2.796    -0.998    -0.933  0.8856  0.4610 -0.0573
    12 H(1)   Bbb    -0.0022    -1.148    -0.409    -0.383  0.1720 -0.2109  0.9623
              Bcc     0.0074     3.944     1.407     1.316 -0.4315  0.8620  0.2660
 
              Baa    -0.0078    -4.155    -1.483    -1.386 -0.4814 -0.5129  0.7108
    13 H(1)   Bbb    -0.0039    -2.069    -0.738    -0.690  0.8365 -0.5110  0.1978
              Bcc     0.0117     6.224     2.221     2.076  0.2618  0.6898  0.6750
 
              Baa    -0.0610     4.417     1.576     1.473 -0.0152  0.4899  0.8717
    14 O(17)  Bbb    -0.0524     3.794     1.354     1.265  0.5244  0.7462 -0.4102
              Bcc     0.1135    -8.210    -2.930    -2.739  0.8514 -0.4508  0.2682
 
              Baa    -0.0150     1.087     0.388     0.363  0.1342  0.8195 -0.5572
    15 O(17)  Bbb    -0.0021     0.153     0.055     0.051  0.1797  0.5328  0.8269
              Bcc     0.0171    -1.240    -0.443    -0.414  0.9745 -0.2111 -0.0758
 
              Baa    -0.0029    -1.537    -0.549    -0.513  0.3480  0.6857  0.6393
    16 H(1)   Bbb    -0.0027    -1.427    -0.509    -0.476  0.0534 -0.6954  0.7167
              Bcc     0.0056     2.964     1.058     0.989  0.9360 -0.2152 -0.2787
 

 ---------------------------------------------------------------------------------

 -------------------------------------------------------------------
 Center     Atomic                   Forces (Hartrees/Bohr)
 Number     Number              X              Y              Z
 -------------------------------------------------------------------
    1          6           0.000555516    0.000367192    0.000811860
    2          1           0.000009201    0.000008351    0.000009397
    3          8          -0.000316027   -0.000627653   -0.001024515
    4          1           0.000120796    0.000434736    0.000661174
    5          6          -0.000347947   -0.000184618   -0.000437855
    6          6           0.000004114   -0.000000825   -0.000005383
    7          1           0.000003870    0.000002707    0.000001665
    8          1          -0.000004224    0.000008167    0.000003633
    9          1          -0.000008811   -0.000000322   -0.000000246
   10          6          -0.000000413    0.000004954   -0.000005132
   11          1          -0.000007943   -0.000000726    0.000000988
   12          1          -0.000011475   -0.000001698   -0.000003063
   13          1          -0.000008612    0.000005305    0.000000482
   14          8           0.000003508    0.000002234   -0.000004177
   15          8           0.000007445   -0.000008481   -0.000004961
   16          1           0.000001002   -0.000009321   -0.000003868
 -------------------------------------------------------------------
 Cartesian Forces:  Max     0.001024515 RMS     0.000275180

 GradGradGradGradGradGradGradGradGradGradGradGradGradGradGradGradGradGrad
 Berny optimization.
 Internal  Forces:  Max     0.000892041 RMS     0.000135238
 Search for a local minimum.
 Step number   1 out of a maximum of  79 on scan point     1 out of    37
 All quantities printed in internal units (Hartrees-Bohrs-Radians)
 Second derivative matrix not updated -- first step.
     Eigenvalues ---    0.00238   0.00348   0.00516   0.00736   0.01662
     Eigenvalues ---    0.02153   0.04394   0.05430   0.05471   0.05582
     Eigenvalues ---    0.05608   0.05694   0.07176   0.15160   0.15305
     Eigenvalues ---    0.16000   0.16000   0.16000   0.16000   0.16000
     Eigenvalues ---    0.16000   0.16000   0.16000   0.17034   0.22329
     Eigenvalues ---    0.25000   0.28529   0.29277   0.32141   0.34025
     Eigenvalues ---    0.34271   0.34274   0.34337   0.34350   0.34412
     Eigenvalues ---    0.35288   0.35852   0.37104   0.51926   0.52016
     Eigenvalues ---    0.525291000.000001000.000001000.000001000.00000
     Eigenvalues --- 1000.000001000.000001000.000001000.000001000.00000
     Eigenvalues --- 1000.000001000.000001000.000001000.000001000.00000
     Eigenvalues --- 1000.000001000.000001000.000001000.000001000.00000
     Eigenvalues --- 1000.000001000.000001000.000001000.000001000.00000
     Eigenvalues --- 1000.000001000.000001000.000001000.00000
 RFO step:  Lambda=-5.93989746D-05.
 Linear search not attempted -- first point.
 Iteration  1 RMS(Cart)=  0.00582574 RMS(Int)=  0.00012955
 Iteration  2 RMS(Cart)=  0.00013090 RMS(Int)=  0.00001253
 Iteration  3 RMS(Cart)=  0.00000005 RMS(Int)=  0.00001253
 Iteration  1 RMS(Cart)=  0.00000000 RMS(Int)=  0.00000000
 Variable       Old X    -DE/DX   Delta X   Delta X   Delta X     New X
                                 (Linear)    (Quad)   (Total)
    R1        2.05210   0.00000   0.00000  -0.00001  -0.00001   2.05210
    R2        2.57970  -0.00001   0.00000  -0.00001  -0.00001   2.57969
    R3        2.83886   0.00000   0.00000   0.00000   0.00000   2.83886
    R4        1.84584   0.00000   0.00000  -0.00001  -0.00001   1.84583
    R5        2.89429   0.00000   0.00000  -0.00001  -0.00001   2.89427
    R6        2.90996   0.00000   0.00000   0.00001   0.00001   2.90996
    R7        2.77613   0.00001   0.00000   0.00002   0.00002   2.77615
    R8        2.06640   0.00000   0.00000   0.00001   0.00001   2.06640
    R9        2.06870   0.00000   0.00000   0.00000   0.00000   2.06870
   R10        2.06765   0.00000   0.00000  -0.00001  -0.00001   2.06764
   R11        2.06744   0.00000   0.00000  -0.00001  -0.00001   2.06743
   R12        2.07288   0.00000   0.00000   0.00000   0.00000   2.07288
   R13        2.06876   0.00000   0.00000   0.00000   0.00000   2.06876
   R14        2.75690   0.00000   0.00000   0.00001   0.00001   2.75691
   R15        1.84096   0.00000   0.00000   0.00000   0.00000   1.84096
    A1        1.96947   0.00009   0.00000  -0.00285  -0.00291   1.96656
    A2        2.09304  -0.00020   0.00000  -0.00416  -0.00422   2.08882
    A3        2.09590  -0.00005   0.00000  -0.00210  -0.00215   2.09375
    A4        1.85894  -0.00001   0.00000  -0.00007  -0.00007   1.85887
    A5        1.92412   0.00000   0.00000  -0.00004  -0.00004   1.92408
    A6        1.97074   0.00001   0.00000   0.00004   0.00004   1.97079
    A7        1.93799  -0.00001   0.00000  -0.00007  -0.00007   1.93791
    A8        1.94786   0.00000   0.00000   0.00003   0.00003   1.94789
    A9        1.77198   0.00000   0.00000   0.00001   0.00001   1.77199
   A10        1.90135   0.00000   0.00000   0.00002   0.00002   1.90137
   A11        1.92678   0.00000   0.00000  -0.00004  -0.00004   1.92675
   A12        1.91645   0.00000   0.00000  -0.00001  -0.00001   1.91644
   A13        1.92871   0.00001   0.00000   0.00005   0.00005   1.92876
   A14        1.89791   0.00000   0.00000  -0.00002  -0.00002   1.89789
   A15        1.90017   0.00000   0.00000   0.00000   0.00000   1.90018
   A16        1.89318   0.00000   0.00000   0.00001   0.00001   1.89318
   A17        1.93809   0.00000   0.00000   0.00000   0.00000   1.93810
   A18        1.93218   0.00000   0.00000  -0.00001  -0.00001   1.93218
   A19        1.92187   0.00000   0.00000   0.00001   0.00001   1.92188
   A20        1.90476   0.00000   0.00000   0.00001   0.00001   1.90478
   A21        1.87317   0.00000   0.00000   0.00000   0.00000   1.87316
   A22        1.89222   0.00000   0.00000  -0.00001  -0.00001   1.89221
   A23        1.91297   0.00001   0.00000   0.00005   0.00005   1.91302
   A24        1.76356   0.00000   0.00000   0.00000   0.00000   1.76356
    D1        3.13441  -0.00052   0.00000  -0.02348  -0.02348   3.11093
    D2       -0.52360  -0.00089   0.00000  -0.04202  -0.04202  -0.56562
    D3       -0.61473  -0.00015   0.00000  -0.00968  -0.00967  -0.62441
    D4        1.57720  -0.00015   0.00000  -0.00964  -0.00963   1.56757
    D5       -2.56459  -0.00015   0.00000  -0.00964  -0.00963  -2.57421
    D6        3.07961   0.00015   0.00000   0.00973   0.00972   3.08933
    D7       -1.01164   0.00015   0.00000   0.00977   0.00976  -1.00188
    D8        1.12976   0.00016   0.00000   0.00977   0.00976   1.13952
    D9       -0.97291   0.00000   0.00000  -0.00004  -0.00004  -0.97295
   D10        1.11946   0.00000   0.00000  -0.00009  -0.00009   1.11937
   D11       -3.07600   0.00000   0.00000  -0.00006  -0.00006  -3.07605
   D12        3.10543   0.00000   0.00000  -0.00009  -0.00009   3.10534
   D13       -1.08538   0.00000   0.00000  -0.00014  -0.00014  -1.08552
   D14        1.00234   0.00000   0.00000  -0.00011  -0.00011   1.00224
   D15        1.08233   0.00000   0.00000  -0.00014  -0.00014   1.08219
   D16       -3.10848  -0.00001   0.00000  -0.00018  -0.00018  -3.10867
   D17       -1.02076   0.00000   0.00000  -0.00015  -0.00015  -1.02091
   D18        0.95258   0.00000   0.00000  -0.00010  -0.00010   0.95249
   D19        3.07129   0.00000   0.00000  -0.00008  -0.00008   3.07121
   D20       -1.11968   0.00000   0.00000  -0.00010  -0.00010  -1.11978
   D21        3.13166   0.00000   0.00000  -0.00009  -0.00009   3.13157
   D22       -1.03282   0.00000   0.00000  -0.00007  -0.00007  -1.03289
   D23        1.05940   0.00000   0.00000  -0.00009  -0.00009   1.05931
   D24       -1.20912   0.00000   0.00000  -0.00005  -0.00005  -1.20917
   D25        0.90959   0.00000   0.00000  -0.00003  -0.00003   0.90956
   D26        3.00180   0.00000   0.00000  -0.00005  -0.00005   3.00175
   D27       -1.04909   0.00000   0.00000   0.00000   0.00000  -1.04909
   D28       -3.09429   0.00000   0.00000   0.00007   0.00007  -3.09422
   D29        1.13192   0.00000   0.00000   0.00002   0.00002   1.13193
   D30       -1.74003   0.00000   0.00000  -0.00083  -0.00083  -1.74086
         Item               Value     Threshold  Converged?
 Maximum Force            0.000892     0.000450     NO 
 RMS     Force            0.000136     0.000300     YES
 Maximum Displacement     0.028657     0.001800     NO 
 RMS     Displacement     0.005841     0.001200     NO 
 Predicted change in Energy=-2.969376D-05
 GradGradGradGradGradGradGradGradGradGradGradGradGradGradGradGradGradGrad

                          Input orientation:                          
 ---------------------------------------------------------------------
 Center     Atomic     Atomic              Coordinates (Angstroms)
 Number     Number      Type              X           Y           Z
 ---------------------------------------------------------------------
    1          6             0       -3.226538    0.878294    0.582088
    2          1             0       -4.298992    0.913656    0.748885
    3          8             0       -2.781749    1.903692   -0.201656
    4          1             0       -1.812674    1.801415   -0.268854
    5          6             0       -2.521437   -0.447915    0.553970
    6          6             0       -3.155583   -1.406773    1.565997
    7          1             0       -3.152748   -0.962667    2.565242
    8          1             0       -4.190318   -1.618626    1.278193
    9          1             0       -2.604053   -2.351242    1.596903
   10          6             0       -2.464335   -1.066932   -0.854862
   11          1             0       -2.019295   -0.370889   -1.572067
   12          1             0       -1.881742   -1.996318   -0.846804
   13          1             0       -3.475397   -1.295600   -1.206889
   14          8             0       -1.154330   -0.329476    1.078542
   15          8             0       -0.397573    0.615196    0.264123
   16          1             0        0.105522    0.007587   -0.307506
 ---------------------------------------------------------------------
                    Distance matrix (angstroms):
                    1          2          3          4          5
     1  C    0.000000
     2  H    1.085923   0.000000
     3  O    1.365113   2.045904   0.000000
     4  H    1.890838   2.829432   0.976772   0.000000
     5  C    1.502261   2.247570   2.483704   2.497773   0.000000
     6  C    2.488904   2.712830   3.771409   3.932246   1.531584
     7  H    2.706932   2.851950   4.001172   4.179480   2.169963
     8  H    2.765509   2.589291   4.071946   4.443335   2.163384
     9  H    3.441981   3.775117   4.622862   4.620810   2.171909
    10  C    2.535682   3.140175   3.058110   2.999246   1.539887
    11  H    2.767360   3.497698   2.762803   2.541645   2.185890
    12  H    3.480460   4.105761   4.054171   3.842079   2.183788
    13  H    2.826338   3.063360   3.424487   3.638140   2.174681
    14  O    2.449330   3.397491   3.045396   2.605684   1.469075
    15  O    2.858910   3.942733   2.749812   1.921898   2.392700
    16  H    3.556984   4.619163   3.455829   2.626555   2.801881
                    6          7          8          9         10
     6  C    0.000000
     7  H    1.093494   0.000000
     8  H    1.094709   1.778575   0.000000
     9  H    1.094149   1.779575   1.776102   0.000000
    10  C    2.540448   3.490257   2.798805   2.771303   0.000000
    11  H    3.494518   4.330386   3.793965   3.782341   1.094038
    12  H    2.791388   3.784964   3.160346   2.572821   1.096922
    13  H    2.793482   3.800516   2.605973   3.120075   1.094742
    14  O    2.324478   2.569996   3.304389   2.541246   2.449082
    15  O    3.659216   3.921198   4.516992   3.929963   2.890188
    16  H    4.018113   4.450887   4.859347   4.066035   2.838724
                   11         12         13         14         15
    11  H    0.000000
    12  H    1.785201   0.000000
    13  H    1.763144   1.777752   0.000000
    14  O    2.788477   2.648480   3.397638   0.000000
    15  O    2.640822   3.202643   3.909990   1.458892   0.000000
    16  H    2.501440   2.873272   3.915376   1.903147   0.974193
                   16
    16  H    0.000000
 Symmetry turned off by external request.
 Stoichiometry    C4H9O3(2)
 Framework group  C1[X(C4H9O3)]
 Deg. of freedom    42
 Full point group                 C1
 Rotational constants (GHZ):      2.9892415      2.4891889      1.9370934
 Standard basis: 6-31G(d) (6D, 7F)
 Integral buffers will be    131072 words long.
 Raffenetti 2 integral format.
 Two-electron integral symmetry is turned off.
   123 basis functions,   232 primitive gaussians,   123 cartesian basis functions
    29 alpha electrons       28 beta electrons
       nuclear repulsion energy       338.7727685038 Hartrees.
 NAtoms=   16 NActive=   16 NUniq=   16 SFac= 7.50D-01 NAtFMM=   80 NAOKFM=F Big=F
 One-electron integrals computed using PRISM.
 NBasis=   123 RedAO= T  NBF=   123
 NBsUse=   123 1.00D-06 NBFU=   123
 Initial guess read from the read-write file:
 <S**2> of initial guess= 0.7532
 Harris functional with IExCor=  402 diagonalized for initial guess.
 ExpMin= 1.61D-01 ExpMax= 5.48D+03 ExpMxC= 8.25D+02 IAcc=1 IRadAn=         1 AccDes= 1.00D-06
 HarFok:  IExCor= 402 AccDes= 1.00D-06 IRadAn=         1 IDoV=1
 ScaDFX=  1.000000  1.000000  1.000000  1.000000
 Requested convergence on RMS density matrix=1.00D-08 within 128 cycles.
 Requested convergence on MAX density matrix=1.00D-06.
 Requested convergence on             energy=1.00D-06.
 No special actions if energy rises.
 Keep R1 and R2 integrals in memory in canonical form, NReq=    60141126.
 Integral accuracy reduced to 1.0D-05 until final iterations.
 Initial convergence to 1.0D-05 achieved.  Increase integral accuracy.
 SCF Done:  E(UB+HF-LYP) =  -383.350786535     A.U. after   12 cycles
             Convg  =    0.4692D-08             -V/T =  2.0089
             S**2   =   0.7532
 Annihilation of the first spin contaminant:
 S**2 before annihilation     0.7532,   after     0.7500
 -------------------------------------------------------------------
 Center     Atomic                   Forces (Hartrees/Bohr)
 Number     Number              X              Y              Z
 -------------------------------------------------------------------
    1          6           0.000219928    0.000288448    0.000239114
    2          1          -0.000177396   -0.000017306    0.000095387
    3          8           0.000058539    0.000037197   -0.000384225
    4          1          -0.000001927   -0.000009422    0.000040797
    5          6           0.000140495   -0.000543982   -0.000252028
    6          6           0.000036991    0.000007365    0.000014243
    7          1          -0.000005610   -0.000006747    0.000021004
    8          1          -0.000004637    0.000003417    0.000005362
    9          1          -0.000010177   -0.000000024    0.000010913
   10          6          -0.000049700    0.000123724   -0.000055014
   11          1          -0.000036330    0.000032258    0.000082955
   12          1          -0.000046902   -0.000002552    0.000060066
   13          1          -0.000021073   -0.000016925   -0.000014223
   14          8          -0.000062240    0.000007809   -0.000022986
   15          8           0.000032422    0.000029263    0.000204719
   16          1          -0.000072384    0.000067478   -0.000046085
 -------------------------------------------------------------------
 Cartesian Forces:  Max     0.000543982 RMS     0.000134040

 GradGradGradGradGradGradGradGradGradGradGradGradGradGradGradGradGradGrad
 Berny optimization.
 Internal  Forces:  Max     0.000299100 RMS     0.000104277
 Search for a local minimum.
 Step number   2 out of a maximum of  79 on scan point     1 out of    37
 All quantities printed in internal units (Hartrees-Bohrs-Radians)
 Update second derivatives using D2CorX and points  1  2
 Trust test= 1.11D+00 RLast= 5.40D-02 DXMaxT set to 3.00D-01
     Eigenvalues ---    0.00238   0.00348   0.00499   0.00681   0.01475
     Eigenvalues ---    0.02352   0.04394   0.05430   0.05483   0.05583
     Eigenvalues ---    0.05608   0.05694   0.07325   0.15061   0.15467
     Eigenvalues ---    0.16000   0.16000   0.16000   0.16000   0.16000
     Eigenvalues ---    0.16000   0.16000   0.16103   0.17034   0.22524
     Eigenvalues ---    0.25010   0.28564   0.29279   0.32241   0.34025
     Eigenvalues ---    0.34271   0.34274   0.34337   0.34353   0.34413
     Eigenvalues ---    0.35370   0.35857   0.37108   0.52016   0.52041
     Eigenvalues ---    0.525381000.000001000.000001000.000001000.00000
     Eigenvalues --- 1000.000001000.000001000.000001000.000001000.00000
     Eigenvalues --- 1000.000001000.000001000.000001000.000001000.00000
     Eigenvalues --- 1000.000001000.000001000.000001000.000001000.00000
     Eigenvalues --- 1000.000001000.000001000.000001000.000001000.00000
     Eigenvalues --- 1000.000001000.000001000.000001000.00000
 RFO step:  Lambda=-1.86189767D-05.
 Quartic linear search produced a step of  0.11929.
 Iteration  1 RMS(Cart)=  0.00817781 RMS(Int)=  0.00011202
 Iteration  2 RMS(Cart)=  0.00010036 RMS(Int)=  0.00000851
 Iteration  3 RMS(Cart)=  0.00000002 RMS(Int)=  0.00000851
 Iteration  1 RMS(Cart)=  0.00000020 RMS(Int)=  0.00000009
 Variable       Old X    -DE/DX   Delta X   Delta X   Delta X     New X
                                 (Linear)    (Quad)   (Total)
    R1        2.05210   0.00019   0.00000   0.00062   0.00062   2.05271
    R2        2.57969   0.00023   0.00000   0.00050   0.00050   2.58019
    R3        2.83886   0.00022   0.00000   0.00077   0.00077   2.83963
    R4        1.84583  -0.00001   0.00000  -0.00003  -0.00003   1.84580
    R5        2.89427   0.00002   0.00000   0.00009   0.00009   2.89437
    R6        2.90996  -0.00013   0.00000  -0.00050  -0.00050   2.90947
    R7        2.77615  -0.00004   0.00000  -0.00011  -0.00011   2.77604
    R8        2.06640   0.00002   0.00000   0.00005   0.00005   2.06646
    R9        2.06870   0.00000   0.00000   0.00000   0.00000   2.06870
   R10        2.06764   0.00000   0.00000  -0.00001  -0.00001   2.06763
   R11        2.06743  -0.00005   0.00000  -0.00016  -0.00016   2.06727
   R12        2.07288  -0.00002   0.00000  -0.00006  -0.00006   2.07282
   R13        2.06876   0.00002   0.00000   0.00007   0.00007   2.06884
   R14        2.75691  -0.00004   0.00000  -0.00012  -0.00012   2.75678
   R15        1.84096  -0.00006   0.00000  -0.00013  -0.00013   1.84082
    A1        1.96656   0.00013  -0.00035  -0.00141  -0.00180   1.96476
    A2        2.08882   0.00006  -0.00050  -0.00186  -0.00240   2.08641
    A3        2.09375  -0.00027  -0.00026  -0.00258  -0.00287   2.09088
    A4        1.85887  -0.00005  -0.00001  -0.00039  -0.00040   1.85847
    A5        1.92408   0.00017   0.00000  -0.00002  -0.00002   1.92406
    A6        1.97079  -0.00016   0.00000  -0.00012  -0.00012   1.97067
    A7        1.93791  -0.00010  -0.00001  -0.00149  -0.00150   1.93641
    A8        1.94789   0.00001   0.00000   0.00061   0.00061   1.94850
    A9        1.77199  -0.00010   0.00000  -0.00097  -0.00097   1.77101
   A10        1.90137   0.00019   0.00000   0.00192   0.00193   1.90330
   A11        1.92675   0.00002   0.00000   0.00013   0.00013   1.92687
   A12        1.91644   0.00000   0.00000   0.00000   0.00000   1.91643
   A13        1.92876   0.00001   0.00001   0.00010   0.00011   1.92886
   A14        1.89789  -0.00001   0.00000  -0.00009  -0.00009   1.89780
   A15        1.90018  -0.00002   0.00000  -0.00011  -0.00011   1.90006
   A16        1.89318  -0.00001   0.00000  -0.00004  -0.00004   1.89315
   A17        1.93810  -0.00010   0.00000  -0.00066  -0.00066   1.93744
   A18        1.93218  -0.00007   0.00000  -0.00048  -0.00049   1.93169
   A19        1.92188   0.00005   0.00000   0.00034   0.00034   1.92222
   A20        1.90478   0.00009   0.00000   0.00067   0.00067   1.90545
   A21        1.87316   0.00003   0.00000   0.00023   0.00023   1.87339
   A22        1.89221   0.00000   0.00000  -0.00005  -0.00005   1.89216
   A23        1.91302   0.00008   0.00001   0.00036   0.00037   1.91339
   A24        1.76356   0.00009   0.00000   0.00062   0.00062   1.76418
    D1        3.11093   0.00004  -0.00280  -0.00200  -0.00481   3.10612
    D2       -0.56562  -0.00009  -0.00501  -0.01318  -0.01819  -0.58381
    D3       -0.62441  -0.00001  -0.00115   0.00707   0.00592  -0.61849
    D4        1.56757   0.00002  -0.00115   0.00776   0.00662   1.57419
    D5       -2.57421   0.00007  -0.00115   0.00907   0.00793  -2.56629
    D6        3.08933   0.00012   0.00116   0.01890   0.02006   3.10939
    D7       -1.00188   0.00015   0.00116   0.01960   0.02076  -0.98112
    D8        1.13952   0.00020   0.00116   0.02091   0.02207   1.16159
    D9       -0.97295   0.00001  -0.00001   0.00146   0.00145  -0.97150
   D10        1.11937   0.00001  -0.00001   0.00143   0.00142   1.12079
   D11       -3.07605   0.00001  -0.00001   0.00145   0.00144  -3.07461
   D12        3.10534   0.00008  -0.00001   0.00118   0.00117   3.10650
   D13       -1.08552   0.00008  -0.00002   0.00115   0.00114  -1.08439
   D14        1.00224   0.00008  -0.00001   0.00117   0.00116   1.00339
   D15        1.08219  -0.00009  -0.00002  -0.00077  -0.00079   1.08141
   D16       -3.10867  -0.00009  -0.00002  -0.00079  -0.00082  -3.10948
   D17       -1.02091  -0.00009  -0.00002  -0.00078  -0.00080  -1.02170
   D18        0.95249  -0.00007  -0.00001   0.00025   0.00024   0.95273
   D19        3.07121  -0.00007  -0.00001   0.00033   0.00032   3.07153
   D20       -1.11978  -0.00008  -0.00001   0.00017   0.00016  -1.11962
   D21        3.13157   0.00004  -0.00001   0.00061   0.00060   3.13217
   D22       -1.03289   0.00004  -0.00001   0.00068   0.00068  -1.03221
   D23        1.05931   0.00004  -0.00001   0.00053   0.00052   1.05983
   D24       -1.20917   0.00004  -0.00001   0.00084   0.00083  -1.20834
   D25        0.90956   0.00004   0.00000   0.00091   0.00091   0.91046
   D26        3.00175   0.00003  -0.00001   0.00076   0.00075   3.00250
   D27       -1.04909   0.00030   0.00000   0.00000   0.00000  -1.04909
   D28       -3.09422   0.00020   0.00001   0.00118   0.00119  -3.09303
   D29        1.13193   0.00015   0.00000   0.00018   0.00018   1.13212
   D30       -1.74086   0.00015  -0.00010   0.03189   0.03179  -1.70907
         Item               Value     Threshold  Converged?
 Maximum Force            0.000272     0.000450     YES
 RMS     Force            0.000091     0.000300     YES
 Maximum Displacement     0.032176     0.001800     NO 
 RMS     Displacement     0.008188     0.001200     NO 
 Predicted change in Energy=-9.722156D-06
 GradGradGradGradGradGradGradGradGradGradGradGradGradGradGradGradGradGrad

                          Input orientation:                          
 ---------------------------------------------------------------------
 Center     Atomic     Atomic              Coordinates (Angstroms)
 Number     Number      Type              X           Y           Z
 ---------------------------------------------------------------------
    1          6             0       -3.221806    0.879696    0.586261
    2          1             0       -4.293832    0.914680    0.757931
    3          8             0       -2.785734    1.896360   -0.214047
    4          1             0       -1.816174    1.799329   -0.281814
    5          6             0       -2.519214   -0.448261    0.556141
    6          6             0       -3.156248   -1.407800    1.565779
    7          1             0       -3.154759   -0.965141    2.565700
    8          1             0       -4.190714   -1.618088    1.275864
    9          1             0       -2.605905   -2.352962    1.596470
   10          6             0       -2.461401   -1.063922   -0.853844
   11          1             0       -2.013612   -0.366758   -1.568114
   12          1             0       -1.880961   -1.994626   -0.846596
   13          1             0       -3.472341   -1.289623   -1.208250
   14          8             0       -1.153625   -0.332065    1.084983
   15          8             0       -0.393409    0.613889    0.275404
   16          1             0        0.088495    0.008696   -0.316562
 ---------------------------------------------------------------------
                    Distance matrix (angstroms):
                    1          2          3          4          5
     1  C    0.000000
     2  H    1.086248   0.000000
     3  O    1.365378   2.045189   0.000000
     4  H    1.890788   2.828862   0.976756   0.000000
     5  C    1.502668   2.246686   2.482230   2.499618   0.000000
     6  C    2.489255   2.709360   3.771277   3.936378   1.531632
     7  H    2.706676   2.845917   4.006414   4.188369   2.170117
     8  H    2.766452   2.587238   4.067572   4.443370   2.163425
     9  H    3.442373   3.772231   4.622450   4.625272   2.172023
    10  C    2.535699   3.141734   3.045949   2.990274   1.539623
    11  H    2.766715   3.500282   2.747976   2.526951   2.185117
    12  H    3.480326   4.106155   4.044564   3.836309   2.183182
    13  H    2.826478   3.065888   3.407397   3.625299   2.174722
    14  O    2.448359   3.394442   3.052398   2.617240   1.469016
    15  O    2.857817   3.941651   2.758172   1.933914   2.392911
    16  H    3.540031   4.602188   3.440200   2.614448   2.787574
                    6          7          8          9         10
     6  C    0.000000
     7  H    1.093522   0.000000
     8  H    1.094711   1.778544   0.000000
     9  H    1.094143   1.779521   1.776076   0.000000
    10  C    2.540795   3.490527   2.798800   2.772461   0.000000
    11  H    3.494377   4.329976   3.793917   3.782910   1.093954
    12  H    2.791106   3.784991   3.159363   2.573425   1.096892
    13  H    2.794481   3.801164   2.606679   3.122155   1.094780
    14  O    2.323546   2.568627   3.303664   2.540622   2.450498
    15  O    3.658630   3.919674   4.516876   3.929702   2.892550
    16  H    4.009741   4.446851   4.847048   4.061639   2.818004
                   11         12         13         14         15
    11  H    0.000000
    12  H    1.785535   0.000000
    13  H    1.763255   1.777727   0.000000
    14  O    2.789213   2.650306   3.398864   0.000000
    15  O    2.642970   3.205627   3.912085   1.458827   0.000000
    16  H    2.475117   2.858844   3.893622   1.903499   0.974122
                   16
    16  H    0.000000
 Symmetry turned off by external request.
 Stoichiometry    C4H9O3(2)
 Framework group  C1[X(C4H9O3)]
 Deg. of freedom    42
 Full point group                 C1
 Rotational constants (GHZ):      2.9845629      2.4919662      1.9376861
 Standard basis: 6-31G(d) (6D, 7F)
 Integral buffers will be    131072 words long.
 Raffenetti 2 integral format.
 Two-electron integral symmetry is turned off.
   123 basis functions,   232 primitive gaussians,   123 cartesian basis functions
    29 alpha electrons       28 beta electrons
       nuclear repulsion energy       338.7726624692 Hartrees.
 NAtoms=   16 NActive=   16 NUniq=   16 SFac= 7.50D-01 NAtFMM=   80 NAOKFM=F Big=F
 One-electron integrals computed using PRISM.
 NBasis=   123 RedAO= T  NBF=   123
 NBsUse=   123 1.00D-06 NBFU=   123
 Initial guess read from the read-write file:
 <S**2> of initial guess= 0.7531
 Harris functional with IExCor=  402 diagonalized for initial guess.
 ExpMin= 1.61D-01 ExpMax= 5.48D+03 ExpMxC= 8.25D+02 IAcc=1 IRadAn=         1 AccDes= 1.00D-06
 HarFok:  IExCor= 402 AccDes= 1.00D-06 IRadAn=         1 IDoV=1
 ScaDFX=  1.000000  1.000000  1.000000  1.000000
 Requested convergence on RMS density matrix=1.00D-08 within 128 cycles.
 Requested convergence on MAX density matrix=1.00D-06.
 Requested convergence on             energy=1.00D-06.
 No special actions if energy rises.
 Keep R1 and R2 integrals in memory in canonical form, NReq=    60141126.
 Integral accuracy reduced to 1.0D-05 until final iterations.
 Initial convergence to 1.0D-05 achieved.  Increase integral accuracy.
 SCF Done:  E(UB+HF-LYP) =  -383.350782865     A.U. after   12 cycles
             Convg  =    0.6562D-08             -V/T =  2.0089
             S**2   =   0.7531
 Annihilation of the first spin contaminant:
 S**2 before annihilation     0.7531,   after     0.7500
 -------------------------------------------------------------------
 Center     Atomic                   Forces (Hartrees/Bohr)
 Number     Number              X              Y              Z
 -------------------------------------------------------------------
    1          6          -0.000137610   -0.000001844   -0.000488780
    2          1          -0.000056150    0.000058109    0.000173708
    3          8           0.000162929    0.000269004   -0.000128499
    4          1           0.000103286   -0.000113879    0.000240450
    5          6          -0.000029853   -0.000298716    0.000610350
    6          6          -0.000059234   -0.000034382   -0.000076048
    7          1           0.000012094    0.000006547   -0.000000428
    8          1          -0.000012982   -0.000020004    0.000009006
    9          1           0.000007601    0.000012073    0.000029524
   10          6           0.000066936    0.000087340    0.000158410
   11          1          -0.000076224   -0.000022132   -0.000103082
   12          1          -0.000025380    0.000011070    0.000016421
   13          1           0.000034133    0.000047254   -0.000008587
   14          8           0.000206198   -0.000168658   -0.000480613
   15          8          -0.000471196    0.000291559    0.000005221
   16          1           0.000275453   -0.000123341    0.000042947
 -------------------------------------------------------------------
 Cartesian Forces:  Max     0.000610350 RMS     0.000189684

 GradGradGradGradGradGradGradGradGradGradGradGradGradGradGradGradGradGrad
 Berny optimization.
 Internal  Forces:  Max     0.000439806 RMS     0.000144204
 Search for a local minimum.
 Step number   3 out of a maximum of  79 on scan point     1 out of    37
 All quantities printed in internal units (Hartrees-Bohrs-Radians)
 Update second derivatives using D2CorX and points  1  3  2
 Trust test=-3.77D-01 RLast= 5.36D-02 DXMaxT set to 1.50D-01
 Energy Rises -- skip Quadratic search.
 Quartic linear search produced a step of -0.57689.
 Iteration  1 RMS(Cart)=  0.00472767 RMS(Int)=  0.00003726
 Iteration  2 RMS(Cart)=  0.00003330 RMS(Int)=  0.00000171
 Iteration  3 RMS(Cart)=  0.00000000 RMS(Int)=  0.00000171
 Iteration  1 RMS(Cart)=  0.00000000 RMS(Int)=  0.00000000
 Variable       Old X    -DE/DX   Delta X   Delta X   Delta X     New X
                                 (Linear)    (Quad)   (Total)
    R1        2.05271   0.00009  -0.00036   0.00000  -0.00036   2.05236
    R2        2.58019   0.00013  -0.00029   0.00000  -0.00029   2.57990
    R3        2.83963   0.00015  -0.00044   0.00000  -0.00044   2.83919
    R4        1.84580   0.00009   0.00002   0.00000   0.00002   1.84582
    R5        2.89437   0.00002  -0.00005   0.00000  -0.00005   2.89431
    R6        2.90947  -0.00011   0.00029   0.00000   0.00029   2.90975
    R7        2.77604  -0.00015   0.00006   0.00000   0.00006   2.77610
    R8        2.06646   0.00000  -0.00003   0.00000  -0.00003   2.06643
    R9        2.06870   0.00001   0.00000   0.00000   0.00000   2.06870
   R10        2.06763   0.00000   0.00001   0.00000   0.00001   2.06764
   R11        2.06727   0.00002   0.00009   0.00000   0.00009   2.06736
   R12        2.07282  -0.00002   0.00003   0.00000   0.00003   2.07286
   R13        2.06884  -0.00004  -0.00004   0.00000  -0.00004   2.06879
   R14        2.75678  -0.00001   0.00007   0.00000   0.00007   2.75685
   R15        1.84082   0.00018   0.00008   0.00000   0.00008   1.84090
    A1        1.96476   0.00023   0.00104   0.00000   0.00105   1.96580
    A2        2.08641   0.00015   0.00139   0.00000   0.00140   2.08781
    A3        2.09088  -0.00029   0.00166   0.00000   0.00166   2.09254
    A4        1.85847  -0.00042   0.00023   0.00000   0.00023   1.85870
    A5        1.92406   0.00018   0.00001   0.00000   0.00001   1.92407
    A6        1.97067  -0.00005   0.00007   0.00000   0.00007   1.97073
    A7        1.93641  -0.00018   0.00086   0.00000   0.00086   1.93728
    A8        1.94850  -0.00009  -0.00035   0.00000  -0.00035   1.94815
    A9        1.77101   0.00018   0.00056   0.00000   0.00056   1.77157
   A10        1.90330  -0.00003  -0.00111   0.00000  -0.00111   1.90219
   A11        1.92687  -0.00003  -0.00007   0.00000  -0.00007   1.92680
   A12        1.91643   0.00004   0.00000   0.00000   0.00000   1.91644
   A13        1.92886   0.00001  -0.00006   0.00000  -0.00006   1.92880
   A14        1.89780   0.00000   0.00005   0.00000   0.00005   1.89785
   A15        1.90006  -0.00001   0.00007   0.00000   0.00007   1.90013
   A16        1.89315  -0.00001   0.00002   0.00000   0.00002   1.89317
   A17        1.93744   0.00015   0.00038   0.00000   0.00038   1.93782
   A18        1.93169  -0.00004   0.00028   0.00000   0.00028   1.93197
   A19        1.92222  -0.00002  -0.00019   0.00000  -0.00019   1.92202
   A20        1.90545  -0.00002  -0.00039   0.00000  -0.00039   1.90506
   A21        1.87339  -0.00009  -0.00013   0.00000  -0.00013   1.87326
   A22        1.89216   0.00001   0.00003   0.00000   0.00003   1.89219
   A23        1.91339  -0.00035  -0.00021   0.00000  -0.00021   1.91318
   A24        1.76418   0.00002  -0.00036   0.00000  -0.00036   1.76383
    D1        3.10612  -0.00023   0.00277   0.00000   0.00277   3.10890
    D2       -0.58381  -0.00002   0.01049   0.00000   0.01049  -0.57331
    D3       -0.61849   0.00008  -0.00341   0.00000  -0.00341  -0.62190
    D4        1.57419   0.00006  -0.00382   0.00000  -0.00382   1.57037
    D5       -2.56629  -0.00014  -0.00457   0.00000  -0.00457  -2.57086
    D6        3.10939  -0.00016  -0.01157   0.00000  -0.01157   3.09782
    D7       -0.98112  -0.00017  -0.01197   0.00000  -0.01197  -0.99309
    D8        1.16159  -0.00038  -0.01273   0.00000  -0.01273   1.14886
    D9       -0.97150   0.00001  -0.00084   0.00000  -0.00084  -0.97234
   D10        1.12079   0.00002  -0.00082   0.00000  -0.00082   1.11997
   D11       -3.07461   0.00004  -0.00083   0.00000  -0.00083  -3.07544
   D12        3.10650   0.00000  -0.00067   0.00000  -0.00067   3.10583
   D13       -1.08439   0.00001  -0.00066   0.00000  -0.00066  -1.08504
   D14        1.00339   0.00003  -0.00067   0.00000  -0.00067   1.00273
   D15        1.08141  -0.00002   0.00045   0.00000   0.00045   1.08186
   D16       -3.10948  -0.00001   0.00047   0.00000   0.00047  -3.10901
   D17       -1.02170   0.00001   0.00046   0.00000   0.00046  -1.02124
   D18        0.95273  -0.00017  -0.00014   0.00000  -0.00014   0.95259
   D19        3.07153  -0.00012  -0.00018   0.00000  -0.00018   3.07135
   D20       -1.11962  -0.00014  -0.00009   0.00000  -0.00009  -1.11971
   D21        3.13217  -0.00004  -0.00035   0.00000  -0.00035   3.13182
   D22       -1.03221   0.00001  -0.00039   0.00000  -0.00039  -1.03260
   D23        1.05983  -0.00001  -0.00030   0.00000  -0.00030   1.05953
   D24       -1.20834   0.00011  -0.00048   0.00000  -0.00048  -1.20882
   D25        0.91046   0.00016  -0.00052   0.00000  -0.00052   0.90994
   D26        3.00250   0.00014  -0.00043   0.00000  -0.00043   3.00207
   D27       -1.04909   0.00031   0.00000   0.00000   0.00000  -1.04909
   D28       -3.09303   0.00008  -0.00068   0.00000  -0.00068  -3.09372
   D29        1.13212   0.00010  -0.00011   0.00000  -0.00011   1.13201
   D30       -1.70907  -0.00044  -0.01834   0.00000  -0.01834  -1.72741
         Item               Value     Threshold  Converged?
 Maximum Force            0.000440     0.000450     YES
 RMS     Force            0.000135     0.000300     YES
 Maximum Displacement     0.018610     0.001800     NO 
 RMS     Displacement     0.004726     0.001200     NO 
 Predicted change in Energy=-4.240303D-06
 GradGradGradGradGradGradGradGradGradGradGradGradGradGradGradGradGradGrad

                          Input orientation:                          
 ---------------------------------------------------------------------
 Center     Atomic     Atomic              Coordinates (Angstroms)
 Number     Number      Type              X           Y           Z
 ---------------------------------------------------------------------
    1          6             0       -3.224555    0.878885    0.583858
    2          1             0       -4.296832    0.914087    0.752712
    3          8             0       -2.783426    1.900611   -0.206915
    4          1             0       -1.814143    1.800535   -0.274330
    5          6             0       -2.520503   -0.448057    0.554893
    6          6             0       -3.155863   -1.407212    1.565908
    7          1             0       -3.153603   -0.963720    2.565440
    8          1             0       -4.190483   -1.618413    1.277207
    9          1             0       -2.604826   -2.351969    1.596722
   10          6             0       -2.463092   -1.065652   -0.854428
   11          1             0       -2.016894   -0.369127   -1.570391
   12          1             0       -1.881401   -1.995590   -0.846713
   13          1             0       -3.474101   -1.293074   -1.207466
   14          8             0       -1.154038   -0.330554    1.081275
   15          8             0       -0.395824    0.614672    0.268906
   16          1             0        0.098343    0.007984   -0.311372
 ---------------------------------------------------------------------
                    Distance matrix (angstroms):
                    1          2          3          4          5
     1  C    0.000000
     2  H    1.086060   0.000000
     3  O    1.365225   2.045608   0.000000
     4  H    1.890817   2.829196   0.976765   0.000000
     5  C    1.502433   2.247201   2.483087   2.498544   0.000000
     6  C    2.489053   2.711369   3.771379   3.933997   1.531604
     7  H    2.706824   2.849405   4.003420   4.183247   2.170028
     8  H    2.765908   2.588428   4.070130   4.443362   2.163401
     9  H    3.442147   3.773904   4.622709   4.622694   2.171957
    10  C    2.535689   3.140838   3.052965   2.995442   1.539775
    11  H    2.767087   3.498794   2.756510   2.535412   2.185563
    12  H    3.480403   4.105933   4.050107   3.839623   2.183532
    13  H    2.826397   3.064432   3.417273   3.632715   2.174699
    14  O    2.448920   3.396209   3.048349   2.610544   1.469050
    15  O    2.858448   3.942281   2.753305   1.926916   2.392790
    16  H    3.549868   4.612034   3.449281   2.621490   2.795844
                    6          7          8          9         10
     6  C    0.000000
     7  H    1.093506   0.000000
     8  H    1.094710   1.778562   0.000000
     9  H    1.094147   1.779552   1.776091   0.000000
    10  C    2.540595   3.490372   2.798802   2.771793   0.000000
    11  H    3.494458   4.330213   3.793945   3.782582   1.094002
    12  H    2.791269   3.784976   3.159930   2.573077   1.096909
    13  H    2.793905   3.800790   2.606271   3.120956   1.094758
[...]
    15  O    0.002851   0.000300  -0.002099  -0.000594  -0.039048   0.004213
    16  H    0.025448  -0.000449   0.007109  -0.001756  -0.012439   0.000074
              7          8          9         10         11         12
     1  C   -0.010636  -0.000082   0.006014  -0.068673  -0.001012   0.004549
     2  H   -0.000107   0.000515  -0.000107  -0.000302   0.000225  -0.000166
     3  O    0.006325   0.000010   0.000049   0.002822  -0.000036  -0.000063
     4  H    0.004122  -0.000034  -0.000342   0.001322   0.000042  -0.000020
     5  C   -0.025122  -0.027945  -0.022909   0.348905  -0.027979  -0.024065
     6  C    0.362583   0.367061   0.358748  -0.052824   0.005277  -0.004593
     7  H    0.565251  -0.026939  -0.029419   0.005951  -0.000161  -0.000025
     8  H   -0.026939   0.551728  -0.026070  -0.002087   0.000030   0.000021
     9  H   -0.029419  -0.026070   0.546635  -0.006227  -0.000104   0.003932
    10  C    0.005951  -0.002087  -0.006227   5.187372   0.369231   0.363015
    11  H   -0.000161   0.000030  -0.000104   0.369231   0.528181  -0.025299
    12  H   -0.000025   0.000021   0.003932   0.363015  -0.025299   0.552032
    13  H   -0.000098   0.001889   0.000166   0.354353  -0.028373  -0.027820
    14  O   -0.001070   0.003073   0.001721  -0.042268  -0.006300   0.001009
    15  O   -0.000042  -0.000075  -0.000070  -0.005243   0.012598  -0.000182
    16  H   -0.000066   0.000013  -0.000001  -0.000927  -0.000653   0.000105
             13         14         15         16
     1  C   -0.000592  -0.060328   0.002851   0.025448
     2  H    0.001929   0.002940   0.000300  -0.000449
     3  O    0.000009  -0.007039  -0.002099   0.007109
     4  H   -0.000054   0.027274  -0.000594  -0.001756
     5  C   -0.025023   0.144084  -0.039048  -0.012439
     6  C   -0.003069  -0.053917   0.004213   0.000074
     7  H   -0.000098  -0.001070  -0.000042  -0.000066
     8  H    0.001889   0.003073  -0.000075   0.000013
     9  H    0.000166   0.001721  -0.000070  -0.000001
    10  C    0.354353  -0.042268  -0.005243  -0.000927
    11  H   -0.028373  -0.006300   0.012598  -0.000653
    12  H   -0.027820   0.001009  -0.000182   0.000105
    13  H    0.580888   0.002941   0.000152  -0.000009
    14  O    0.002941   8.253724   0.075552  -0.024534
    15  O    0.000152   0.075552   8.151195   0.205406
    16  H   -0.000009  -0.024534   0.205406   0.394273
 Mulliken atomic charges:
              1
     1  C    0.027218
     2  H    0.143977
     3  O   -0.572789
     4  H    0.415418
     5  C    0.256112
     6  C   -0.453078
     7  H    0.149452
     8  H    0.158891
     9  H    0.167984
    10  C   -0.454420
    11  H    0.174331
    12  H    0.157568
    13  H    0.142710
    14  O   -0.316863
    15  O   -0.404914
    16  H    0.408404
 Sum of Mulliken charges=   0.00000
 Atomic charges with hydrogens summed into heavy atoms:
              1
     1  C    0.171195
     2  H    0.000000
     3  O   -0.157371
     4  H    0.000000
     5  C    0.256112
     6  C    0.023249
     7  H    0.000000
     8  H    0.000000
     9  H    0.000000
    10  C    0.020190
    11  H    0.000000
    12  H    0.000000
    13  H    0.000000
    14  O   -0.316863
    15  O    0.003490
    16  H    0.000000
 Sum of Mulliken charges=   0.00000
          Atomic-Atomic Spin Densities.
              1          2          3          4          5          6
     1  C    1.067343  -0.015084  -0.147965  -0.000234   0.007968  -0.025302
     2  H   -0.015084  -0.027149   0.001292  -0.000332   0.004903  -0.001991
     3  O   -0.147965   0.001292   0.291628  -0.001297  -0.001913   0.002246
     4  H   -0.000234  -0.000332  -0.001297  -0.004640   0.000796   0.000052
     5  C    0.007968   0.004903  -0.001913   0.000796  -0.008913  -0.009649
     6  C   -0.025302  -0.001991   0.002246   0.000052  -0.009649   0.082208
     7  H   -0.004064  -0.000124   0.001174   0.000065   0.000959   0.002827
     8  H    0.001048   0.000059  -0.000094  -0.000005   0.000553  -0.001057
     9  H    0.001483   0.000059  -0.000112  -0.000004   0.000140  -0.007773
    10  C   -0.010338   0.000263   0.000180   0.000004   0.000485  -0.000006
    11  H    0.003041  -0.000257  -0.000042   0.000001  -0.000537   0.000542
    12  H    0.000202  -0.000039  -0.000002   0.000001   0.000058   0.001091
    13  H    0.000086   0.000071  -0.000001  -0.000001   0.000538  -0.000364
    14  O   -0.018183   0.000516   0.002100  -0.000162  -0.013880  -0.012014
    15  O   -0.003569   0.000052   0.000551   0.000000   0.000525   0.000118
    16  H    0.004404  -0.000127  -0.002652  -0.000019  -0.000078   0.000149
              7          8          9         10         11         12
     1  C   -0.004064   0.001048   0.001483  -0.010338   0.003041   0.000202
     2  H   -0.000124   0.000059   0.000059   0.000263  -0.000257  -0.000039
     3  O    0.001174  -0.000094  -0.000112   0.000180  -0.000042  -0.000002
     4  H    0.000065  -0.000005  -0.000004   0.000004   0.000001   0.000001
     5  C    0.000959   0.000553   0.000140   0.000485  -0.000537   0.000058
     6  C    0.002827  -0.001057  -0.007773  -0.000006   0.000542   0.001091
     7  H   -0.000111   0.000037  -0.002272  -0.000003   0.000009   0.000021
     8  H    0.000037  -0.001734   0.000473  -0.000061  -0.000010  -0.000024
     9  H   -0.002272   0.000473   0.016560  -0.000001  -0.000058  -0.000455
    10  C   -0.000003  -0.000061  -0.000001   0.011793  -0.001775  -0.000360
    11  H    0.000009  -0.000010  -0.000058  -0.001775  -0.000164   0.000505
    12  H    0.000021  -0.000024  -0.000455  -0.000360   0.000505  -0.001963
    13  H   -0.000006  -0.000003   0.000052  -0.000094   0.000067   0.000087
    14  O   -0.000826   0.000089   0.001527   0.003514  -0.000753  -0.000376
    15  O    0.000007   0.000000  -0.000029  -0.000103  -0.000148   0.000036
    16  H    0.000018  -0.000001  -0.000007  -0.000091   0.000085  -0.000002
             13         14         15         16
     1  C    0.000086  -0.018183  -0.003569   0.004404
     2  H    0.000071   0.000516   0.000052  -0.000127
     3  O   -0.000001   0.002100   0.000551  -0.002652
     4  H   -0.000001  -0.000162   0.000000  -0.000019
     5  C    0.000538  -0.013880   0.000525  -0.000078
     6  C   -0.000364  -0.012014   0.000118   0.000149
     7  H   -0.000006  -0.000826   0.000007   0.000018
     8  H   -0.000003   0.000089   0.000000  -0.000001
     9  H    0.000052   0.001527  -0.000029  -0.000007
    10  C   -0.000094   0.003514  -0.000103  -0.000091
    11  H    0.000067  -0.000753  -0.000148   0.000085
    12  H    0.000087  -0.000376   0.000036  -0.000002
    13  H   -0.000679   0.000041   0.000001  -0.000001
    14  O    0.000041   0.050483  -0.000582  -0.000934
    15  O    0.000001  -0.000582   0.009537   0.000885
    16  H   -0.000001  -0.000934   0.000885  -0.003822
 Mulliken atomic spin densities:
              1
     1  C    0.860836
     2  H   -0.037889
     3  O    0.145093
     4  H   -0.005775
     5  C   -0.018044
     6  C    0.031078
     7  H   -0.002289
     8  H   -0.000730
     9  H    0.009583
    10  C    0.003408
    11  H    0.000504
    12  H   -0.001218
    13  H   -0.000205
    14  O    0.010561
    15  O    0.007278
    16  H   -0.002191
 Sum of Mulliken spin densities=   1.00000
 Electronic spatial extent (au):  <R**2>=  1697.1048
 Charge=     0.0000 electrons
 Dipole moment (field-independent basis, Debye):
    X=    -1.6601    Y=    -0.0926    Z=     0.1480  Tot=     1.6692
 Quadrupole moment (field-independent basis, Debye-Ang):
   XX=   -38.4030   YY=   -43.1856   ZZ=   -40.6386
   XY=     5.0368   XZ=    -0.3925   YZ=    -0.1151
 Traceless Quadrupole moment (field-independent basis, Debye-Ang):
   XX=     2.3394   YY=    -2.4432   ZZ=     0.1038
   XY=     5.0368   XZ=    -0.3925   YZ=    -0.1151
 Octapole moment (field-independent basis, Debye-Ang**2):
  XXX=   268.0378  YYY=    10.7607  ZZZ=   -33.7469  XYY=   103.2394
  XXY=   -11.0856  XXZ=   -14.2178  XZZ=    90.0940  YZZ=     9.8274
  YYZ=   -10.3024  XYZ=     1.5562
 Hexadecapole moment (field-independent basis, Debye-Ang**3):
 XXXX= -1495.1695 YYYY=  -399.2657 ZZZZ=  -252.3153 XXXY=     2.6062
 XXXZ=   130.8225 YYYX=   -19.4439 YYYZ=    -0.7412 ZZZX=   104.3639
 ZZZY=     5.5399 XXYY=  -356.8363 XXZZ=  -293.6584 YYZZ=   -99.4530
 XXYZ=   -10.3385 YYXZ=    36.4020 ZZXY=   -21.3008
 N-N= 3.390851789422D+02 E-N=-1.575321273750D+03  KE= 3.799872393626D+02
                          Isotropic Fermi Contact Couplings
        Atom                 a.u.       MegaHertz       Gauss      10(-4) cm-1
     1  C(13)              0.15976     179.60612      64.08793      59.91015
     2  H(1)              -0.01043     -46.64230     -16.64313     -15.55820
     3  O(17)              0.04341     -26.31561      -9.39007      -8.77794
     4  H(1)              -0.00280     -12.51921      -4.46717      -4.17596
     5  C(13)             -0.01746     -19.63015      -7.00452      -6.54791
     6  C(13)              0.03029      34.04625      12.14855      11.35661
     7  H(1)              -0.00066      -2.95925      -1.05593      -0.98710
     8  H(1)               0.00019       0.85394       0.30471       0.28484
     9  H(1)               0.00402      17.97126       6.41259       5.99457
    10  C(13)              0.00491       5.51843       1.96911       1.84075
    11  H(1)              -0.00001      -0.03531      -0.01260      -0.01178
    12  H(1)              -0.00049      -2.18124      -0.77832      -0.72758
    13  H(1)               0.00015       0.68600       0.24478       0.22883
    14  O(17)              0.03063     -18.56857      -6.62573      -6.19381
    15  O(17)              0.00126      -0.76542      -0.27312      -0.25532
    16  H(1)              -0.00066      -2.94607      -1.05123      -0.98270
 --------------------------------------------------------
       Center         ----  Spin Dipole Couplings  ----
                      3XX-RR        3YY-RR        3ZZ-RR
 --------------------------------------------------------
     1   Atom        0.251594     -0.460185      0.208590
     2   Atom        0.046530     -0.057741      0.011211
     3   Atom        0.213344     -0.432664      0.219321
     4   Atom        0.006321     -0.024928      0.018607
     5   Atom       -0.001326      0.002885     -0.001559
     6   Atom       -0.023024     -0.018757      0.041781
     7   Atom       -0.007928     -0.001884      0.009812
     8   Atom        0.001999     -0.000661     -0.001339
     9   Atom       -0.003351      0.002843      0.000508
    10   Atom       -0.006085      0.015634     -0.009549
    11   Atom       -0.005721      0.007892     -0.002170
    12   Atom       -0.002972      0.006009     -0.003037
    13   Atom       -0.003878      0.008131     -0.004253
    14   Atom        0.027863     -0.033897      0.006035
    15   Atom       -0.002388     -0.003343      0.005731
    16   Atom        0.024185     -0.009959     -0.014226
 --------------------------------------------------------
                        XY            XZ            YZ
 --------------------------------------------------------
     1   Atom        0.131407     -0.710090     -0.132391
     2   Atom       -0.002683      0.034966     -0.012683
     3   Atom        0.079861     -0.628009     -0.083118
     4   Atom       -0.003286      0.030710     -0.001081
     5   Atom       -0.019337      0.019576     -0.019329
     6   Atom        0.005090     -0.015006     -0.021400
     7   Atom        0.000136     -0.000894     -0.002914
     8   Atom        0.005321     -0.005302     -0.006723
     9   Atom       -0.003117      0.000335     -0.005257
    10   Atom        0.002979     -0.000367      0.002678
    11   Atom       -0.004296     -0.002712      0.006454
    12   Atom       -0.001575     -0.000174     -0.000245
    13   Atom        0.004189      0.000938      0.003615
    14   Atom       -0.016278      0.055709     -0.019481
    15   Atom       -0.023458      0.023231     -0.028036
    16   Atom       -0.001048     -0.001882     -0.000112
 --------------------------------------------------------


 ---------------------------------------------------------------------------------
              Anisotropic Spin Dipole Couplings in Principal Axis System
 ---------------------------------------------------------------------------------

       Atom             a.u.   MegaHertz   Gauss  10(-4) cm-1        Axes

              Baa    -0.4865   -65.290   -23.297   -21.778  0.2593  0.8650  0.4296
     1 C(13)  Bbb    -0.4784   -64.192   -22.905   -21.412  0.6531 -0.4848  0.5817
              Bcc     0.9649   129.482    46.203    43.191  0.7114  0.1298 -0.6907
 
              Baa    -0.0601   -32.085   -11.449   -10.702 -0.0387  0.9804  0.1932
     2 H(1)   Bbb    -0.0085    -4.559    -1.627    -1.521 -0.5332 -0.1838  0.8258
              Bcc     0.0687    36.644    13.076    12.223  0.8451 -0.0711  0.5299
 
              Baa    -0.4431    32.063    11.441    10.695 -0.0173  0.9940  0.1083
     3 O(17)  Bbb    -0.4116    29.780    10.626     9.933  0.7115 -0.0639  0.6998
              Bcc     0.8547   -61.843   -22.067   -20.629 -0.7025 -0.0892  0.7061
 
              Baa    -0.0256   -13.640    -4.867    -4.550  0.2317  0.9630 -0.1375
     4 H(1)   Bbb    -0.0183    -9.786    -3.492    -3.264  0.7375 -0.2661 -0.6207
              Bcc     0.0439    23.426     8.359     7.814  0.6344 -0.0424  0.7719
 
              Baa    -0.0210    -2.821    -1.006    -0.941 -0.6970  0.0158  0.7169
     5 C(13)  Bbb    -0.0179    -2.399    -0.856    -0.800  0.4424  0.7963  0.4126
              Bcc     0.0389     5.219     1.862     1.741 -0.5643  0.6047 -0.5620
 
              Baa    -0.0265    -3.552    -1.267    -1.185  0.9296 -0.3567  0.0925
     6 C(13)  Bbb    -0.0255    -3.416    -1.219    -1.140  0.3051  0.8857  0.3500
              Bcc     0.0519     6.969     2.487     2.324 -0.2068 -0.2971  0.9322
 
              Baa    -0.0080    -4.254    -1.518    -1.419  0.9987  0.0018  0.0505
     7 H(1)   Bbb    -0.0026    -1.371    -0.489    -0.457 -0.0133  0.9735  0.2282
              Bcc     0.0105     5.625     2.007     1.876 -0.0487 -0.2285  0.9723
 
              Baa    -0.0077    -4.128    -1.473    -1.377  0.0317  0.6758  0.7364
     8 H(1)   Bbb    -0.0039    -2.063    -0.736    -0.688  0.7871 -0.4709  0.3983
              Bcc     0.0116     6.191     2.209     2.065  0.6160  0.5670 -0.5469
 
              Baa    -0.0055    -2.935    -1.047    -0.979  0.7190  0.5424  0.4345
     9 H(1)   Bbb    -0.0022    -1.177    -0.420    -0.393 -0.6533  0.3140  0.6889
              Bcc     0.0077     4.112     1.467     1.372 -0.2373  0.7792 -0.5801
 
              Baa    -0.0100    -1.337    -0.477    -0.446  0.1875 -0.1238  0.9744
    10 C(13)  Bbb    -0.0063    -0.851    -0.303    -0.284  0.9737 -0.1075 -0.2010
              Bcc     0.0163     2.187     0.780     0.730  0.1297  0.9865  0.1004
 
              Baa    -0.0073    -3.879    -1.384    -1.294  0.9300  0.1149  0.3492
    11 H(1)   Bbb    -0.0052    -2.763    -0.986    -0.922 -0.2515 -0.4937  0.8324
              Bcc     0.0124     6.642     2.370     2.216 -0.2680  0.8620  0.4303
 
              Baa    -0.0034    -1.801    -0.643    -0.601  0.8293  0.1532  0.5374
    12 H(1)   Bbb    -0.0029    -1.551    -0.553    -0.517 -0.5332 -0.0710  0.8430
              Bcc     0.0063     3.352     1.196     1.118 -0.1673  0.9856 -0.0228
 
              Baa    -0.0054    -2.871    -1.025    -0.958  0.6155 -0.3761  0.6926
    13 H(1)   Bbb    -0.0050    -2.676    -0.955    -0.893  0.7337 -0.0474 -0.6778
              Bcc     0.0104     5.547     1.979     1.850  0.2877  0.9254  0.2467
 
              Baa    -0.0442     3.199     1.141     1.067 -0.3494  0.6755  0.6493
    14 O(17)  Bbb    -0.0350     2.534     0.904     0.845  0.5637  0.7051 -0.4303
              Bcc     0.0792    -5.733    -2.046    -1.912  0.7485 -0.2157  0.6271
 
              Baa    -0.0283     2.048     0.731     0.683  0.3549  0.8259  0.4382
    15 O(17)  Bbb    -0.0219     1.585     0.566     0.529  0.7696  0.0081 -0.6385
              Bcc     0.0502    -3.633    -1.296    -1.212  0.5309 -0.5638  0.6327
 
              Baa    -0.0143    -7.643    -2.727    -2.549  0.0498  0.0376  0.9981
    16 H(1)   Bbb    -0.0100    -5.327    -1.901    -1.777  0.0285  0.9988 -0.0390
              Bcc     0.0243    12.970     4.628     4.326  0.9984 -0.0304 -0.0487
 

 ---------------------------------------------------------------------------------

 1\1\GINC-NODE55\Scan\UB3LYP\6-31G(d)\C4H9O3(2)\NYEE\05-Jun-2013\0\\# o
 pt=(addred) b3lyp/6-31g(d) nosymm\\Title Card Required\\0,2\C,-2.92760
 8571,0.7820162197,-0.2417853503\H,-3.8071087573,0.8518248796,-0.872011
 3586\O,-2.675708936,1.9283952675,0.4684536705\H,-1.9723832355,1.711878
 9919,1.1098659309\C,-2.4439858685,-0.5115705058,0.3483474275\C,-3.0962
 285683,-0.8370259244,1.7049024386\H,-3.0325588333,0.0125498904,2.39178
 00464\H,-4.1534777426,-1.0762696873,1.553964196\H,-2.6027938057,-1.698
 4722734,2.1668256349\C,-2.58146659,-1.6681822483,-0.6410457765\H,-1.98
 69499999,-1.4726309316,-1.5360680197\H,-2.2288562095,-2.5973499667,-0.
 1831017046\H,-3.6290925979,-1.8006604761,-0.9341347433\O,-1.0443452081
 ,-0.3129050173,0.7301843716\O,-0.253562977,0.035149968,-0.4394152626\H
 ,-0.5951120994,0.9266558137,-0.6514565007\\Version=AM64L-G03RevD.01\HF
 =-383.3507929,-383.3502527,-383.3487006,-383.3466829,-383.3447272,-383
 .3432924,-383.3426632,-383.3429826,-383.3441601,-383.3458754,-383.3478
 336,-383.3495779,-383.3505905,-383.3505086,-383.3493686,-383.3475074,-
 383.3453727,-383.3434598,-383.3421894,-383.3417705,-383.3421555,-383.3
 432296,-383.3448977,-383.3466724,-383.347774,-383.3478137,-383.3467991
 ,-383.3450306,-383.3430184,-383.3412672,-383.3403185,-383.3406826,-383
 .3457059,-383.3478551,-383.3496136,-383.3504005,-383.349745\S2=0.75315
 2,0.753185,0.753204,0.753206,0.753201,0.753191,0.753179,0.753164,0.753
 138,0.753104,0.753057,0.753076,0.753075,0.753071,0.753067,0.753059,0.7
 53045,0.753029,0.753015,0.753003,0.752988,0.752995,0.753085,0.753201,0
 .75327,0.7533,0.753305,0.753296,0.753256,0.753194,0.753127,0.753124,0.
 753083,0.753124,0.753171,0.753234,0.753347\S2-1=0.,0.,0.,0.,0.,0.,0.,0
 .,0.,0.,0.,0.,0.,0.,0.,0.,0.,0.,0.,0.,0.,0.,0.,0.,0.,0.,0.,0.,0.,0.,0.
 ,0.,0.,0.,0.,0.,0.\S2A=0.750007,0.750007,0.750007,0.750007,0.750007,0.
 750007,0.750007,0.750007,0.750007,0.750007,0.750007,0.750007,0.750007,
 0.750007,0.750007,0.750007,0.750007,0.750006,0.750006,0.750006,0.75000
 6,0.750006,0.750007,0.750007,0.750007,0.750008,0.750008,0.750008,0.750
 007,0.750007,0.750007,0.750007,0.750007,0.750007,0.750007,0.750007,0.7
 50008\RMSD=7.934e-09,7.980e-09,4.759e-09,4.013e-09,6.959e-09,7.902e-09
 ,5.896e-09,6.594e-09,4.578e-09,9.538e-09,4.363e-09,6.802e-09,6.160e-09
 ,5.313e-09,8.342e-09,7.801e-09,5.097e-09,9.437e-09,7.525e-09,3.248e-09
 ,6.007e-09,9.758e-09,4.661e-09,6.448e-09,5.653e-09,9.311e-09,3.210e-09
 ,3.504e-09,7.198e-09,3.841e-09,3.564e-09,7.590e-09,4.385e-09,6.970e-09
 ,5.325e-09,8.380e-09,8.871e-09\Thermal=0.,0.,0.,0.,0.,0.,0.,0.,0.,0.,0
 .,0.,0.,0.,0.,0.,0.,0.,0.,0.,0.,0.,0.,0.,0.,0.,0.,0.,0.,0.,0.,0.,0.,0.
 ,0.,0.,0.\PG=C01 [X(C4H9O3)]\\@


 What some people mistake for the high cost
 of living is really the cost of living high.
                              -- Doug Larson
 Job cpu time:  0 days  8 hours 49 minutes 25.7 seconds.
 File lengths (MBytes):  RWF=     28 Int=      0 D2E=      0 Chk=     10 Scr=      1
 Normal termination of Gaussian 03 at Wed Jun  5 13:04:50 2013.
