 Entering Gaussian System, Link 0=g03
 Input=p6freq.gjf
 Output=p6freq.log
 Initial command:
 /opt/g03/l1.exe /scratch/nyee/Gau-6685.inp -scrdir=/scratch/nyee/
 Entering Link 1 = /opt/g03/l1.exe PID=      6687.
  
 Copyright (c) 1988,1990,1992,1993,1995,1998,2003,2004, Gaussian, Inc.
                  All Rights Reserved.
  
 This is the Gaussian(R) 03 program.  It is based on the
 the Gaussian(R) 98 system (copyright 1998, Gaussian, Inc.),
 the Gaussian(R) 94 system (copyright 1995, Gaussian, Inc.),
 the Gaussian 92(TM) system (copyright 1992, Gaussian, Inc.),
 the Gaussian 90(TM) system (copyright 1990, Gaussian, Inc.),
 the Gaussian 88(TM) system (copyright 1988, Gaussian, Inc.),
 the Gaussian 86(TM) system (copyright 1986, Carnegie Mellon
 University), and the Gaussian 82(TM) system (copyright 1983,
 Carnegie Mellon University). Gaussian is a federally registered
 trademark of Gaussian, Inc.
  
 This software contains proprietary and confidential information,
 including trade secrets, belonging to Gaussian, Inc.
  
 This software is provided under written license and may be
 used, copied, transmitted, or stored only in accord with that
 written license.
  
 The following legend is applicable only to US Government
 contracts under FAR:
  
                    RESTRICTED RIGHTS LEGEND
  
 Use, reproduction and disclosure by the US Government is
 subject to restrictions as set forth in subparagraphs (a)
 and (c) of the Commercial Computer Software - Restricted
 Rights clause in FAR 52.227-19.
  
 Gaussian, Inc.
 340 Quinnipiac St., Bldg. 40, Wallingford CT 06492
  
  
 ---------------------------------------------------------------
 Warning -- This program may not be used in any manner that
 competes with the business of Gaussian, Inc. or will provide
 assistance to any competitor of Gaussian, Inc.  The licensee
 of this program is prohibited from giving any competitor of
 Gaussian, Inc. access to this program.  By using this program,
 the user acknowledges that Gaussian, Inc. is engaged in the
 business of creating and licensing software in the field of
 computational chemistry and represents and warrants to the
 licensee that it is not a competitor of Gaussian, Inc. and that
 it will not use this program in any manner prohibited above.
 ---------------------------------------------------------------
  

 Cite this work as:
 Gaussian 03, Revision D.01,
 M. J. Frisch, G. W. Trucks, H. B. Schlegel, G. E. Scuseria, 
 M. A. Robb, J. R. Cheeseman, J. A. Montgomery, Jr., T. Vreven, 
 K. N. Kudin, J. C. Burant, J. M. Millam, S. S. Iyengar, J. Tomasi, 
 V. Barone, B. Mennucci, M. Cossi, G. Scalmani, N. Rega, 
 G. A. Petersson, H. Nakatsuji, M. Hada, M. Ehara, K. Toyota, 
 R. Fukuda, J. Hasegawa, M. Ishida, T. Nakajima, Y. Honda, O. Kitao, 
 H. Nakai, M. Klene, X. Li, J. E. Knox, H. P. Hratchian, J. B. Cross, 
 V. Bakken, C. Adamo, J. Jaramillo, R. Gomperts, R. E. Stratmann, 
 O. Yazyev, A. J. Austin, R. Cammi, C. Pomelli, J. W. Ochterski, 
 P. Y. Ayala, K. Morokuma, G. A. Voth, P. Salvador, J. J. Dannenberg, 
 V. G. Zakrzewski, S. Dapprich, A. D. Daniels, M. C. Strain, 
 O. Farkas, D. K. Malick, A. D. Rabuck, K. Raghavachari, 
 J. B. Foresman, J. V. Ortiz, Q. Cui, A. G. Baboul, S. Clifford, 
 J. Cioslowski, B. B. Stefanov, G. Liu, A. Liashenko, P. Piskorz, 
 I. Komaromi, R. L. Martin, D. J. Fox, T. Keith, M. A. Al-Laham, 
 C. Y. Peng, A. Nanayakkara, M. Challacombe, P. M. W. Gill, 
 B. Johnson, W. Chen, M. W. Wong, C. Gonzalez, and J. A. Pople, 
 Gaussian, Inc., Wallingford CT, 2004.
 
 ******************************************
 Gaussian 03:  AM64L-G03RevD.01 13-Oct-2005
                10-Jun-2013 
 ******************************************
 %chk=p6freq.chk
 %mem=1000mb
 %nproc=8
 Will use up to    8 processors via shared memory.
 -------------------------------------
 # freq nosymm b3lyp/cbsb7 iop(7/33=1)
 -------------------------------------
 1/10=4,30=1,38=1/1,3;
 2/15=1,17=6,18=5,40=1/2;
 3/5=4,6=6,7=700,11=2,16=1,25=1,30=1,74=-5/1,2,3;
 4//1;
 5/5=2,38=5/2;
 8/6=4,10=90,11=11/1;
 11/6=1,8=1,9=11,15=111,16=1,31=1/1,2,10;
 10/6=1,31=1/2;
 6/7=2,8=2,9=2,10=2,18=1,28=1/1;
 7/8=1,10=1,25=1,30=1,33=1/1,2,3,16;
 1/10=4,30=1/3;
 99//99;
 -------------------
 Title Card Required
 -------------------
 Symbolic Z-matrix:
 Charge =  0 Multiplicity = 2
 C                    -3.22432   0.87492   0.57873 
 H                    -4.28238   0.92797   0.80587 
 O                    -2.79605   1.89257  -0.22016 
 H                    -1.83476   1.79968  -0.30623 
 C                    -2.52614  -0.45275   0.54847 
 C                    -3.15693  -1.40831   1.56156 
 H                    -3.15627  -0.95975   2.55597 
 H                    -4.1873   -1.62693   1.27295 
 H                    -2.59936  -2.34598   1.59722 
 C                    -2.47141  -1.06744  -0.85997 
 H                    -2.01301  -0.37686  -1.56936 
 H                    -1.90104  -2.00096  -0.8483 
 H                    -3.48156  -1.28039  -1.21691 
 O                    -1.15472  -0.33653   1.07066 
 O                    -0.40235   0.61362   0.2626 
 H                     0.15635   0.02052  -0.2578 
 

 GradGradGradGradGradGradGradGradGradGradGradGradGradGradGradGradGradGrad
 Berny optimization.
 Initialization pass.
 Trust Radius=3.00D-01 FncErr=1.00D-07 GrdErr=1.00D-07
 Number of steps in this run=   2 maximum allowed number of steps=   2.
 GradGradGradGradGradGradGradGradGradGradGradGradGradGradGradGradGradGrad

                          Input orientation:                          
 ---------------------------------------------------------------------
 Center     Atomic     Atomic              Coordinates (Angstroms)
 Number     Number      Type              X           Y           Z
 ---------------------------------------------------------------------
    1          6             0       -3.224315    0.874923    0.578731
    2          1             0       -4.282375    0.927970    0.805866
    3          8             0       -2.796054    1.892568   -0.220160
    4          1             0       -1.834763    1.799677   -0.306231
    5          6             0       -2.526135   -0.452745    0.548470
    6          6             0       -3.156930   -1.408314    1.561562
    7          1             0       -3.156275   -0.959747    2.555970
    8          1             0       -4.187304   -1.626926    1.272952
    9          1             0       -2.599362   -2.345975    1.597220
   10          6             0       -2.471411   -1.067439   -0.859968
   11          1             0       -2.013014   -0.376855   -1.569361
   12          1             0       -1.901037   -2.000959   -0.848301
   13          1             0       -3.481555   -1.280388   -1.216908
   14          8             0       -1.154716   -0.336530    1.070661
   15          8             0       -0.402345    0.613620    0.262604
   16          1             0        0.156351    0.020524   -0.257803
 ---------------------------------------------------------------------
                    Distance matrix (angstroms):
                    1          2          3          4          5
     1  C    0.000000
     2  H    1.083464   0.000000
     3  O    1.362804   2.047518   0.000000
     4  H    1.889228   2.826205   0.969596   0.000000
     5  C    1.500358   2.248779   2.482769   2.506375   0.000000
     6  C    2.486698   2.701097   3.768367   3.940556   1.528846
     7  H    2.698169   2.809705   3.996543   4.189631   2.164298
     8  H    2.769213   2.598981   4.068390   4.446333   2.159411
     9  H    3.435414   3.765301   4.615929   4.625383   2.165539
    10  C    2.531697   3.168004   3.045716   2.988695   1.537706
    11  H    2.765592   3.534724   2.753866   2.522808   2.180427
    12  H    3.472489   4.121367   4.044152   3.839670   2.176852
    13  H    2.817065   3.099963   3.395743   3.609440   2.171262
    14  O    2.448031   3.383981   3.054355   2.630908   1.472066
    15  O    2.851619   3.930468   2.756558   1.944769   2.393603
    16  H    3.585901   4.653723   3.496092   2.670630   2.840738
                    6          7          8          9         10
     6  C    0.000000
     7  H    1.090899   0.000000
     8  H    1.092134   1.776030   0.000000
     9  H    1.091495   1.775100   1.773060   0.000000
    10  C    2.539673   3.485580   2.794040   2.772868   0.000000
    11  H    3.489288   4.320320   3.790641   3.774715   1.090996
    12  H    2.781355   3.774759   3.141120   2.566567   1.094039
    13  H    2.800293   3.800424   2.611048   3.135770   1.092311
    14  O    2.323481   2.569198   3.301914   2.530244   2.448518
    15  O    3.655578   3.913968   4.512955   3.920113   2.892605
    16  H    4.040977   4.455529   4.891282   4.078650   2.907129
                   11         12         13         14         15
    11  H    0.000000
    12  H    1.780500   0.000000
    13  H    1.759889   1.775706   0.000000
    14  O    2.776332   2.647590   3.396766   0.000000
    15  O    2.632754   3.211886   3.906118   1.456641   0.000000
    16  H    2.565977   2.944134   3.980781   1.900316   0.966813
                   16
    16  H    0.000000
 Symmetry turned off by external request.
 Stoichiometry    C4H9O3(2)
 Framework group  C1[X(C4H9O3)]
 Deg. of freedom    42
 Full point group                 C1
 Rotational constants (GHZ):      2.9842053      2.4957384      1.9374746
 Standard basis: CBSB7 (5D, 7F)
 Integral buffers will be    131072 words long.
 Raffenetti 2 integral format.
 Two-electron integral symmetry is turned off.
   180 basis functions,   296 primitive gaussians,   187 cartesian basis functions
    29 alpha electrons       28 beta electrons
       nuclear repulsion energy       338.9741170440 Hartrees.
 NAtoms=   16 NActive=   16 NUniq=   16 SFac= 7.50D-01 NAtFMM=   80 NAOKFM=F Big=F
 One-electron integrals computed using PRISM.
 NBasis=   180 RedAO= T  NBF=   180
 NBsUse=   180 1.00D-06 NBFU=   180
 Harris functional with IExCor=  402 diagonalized for initial guess.
 ExpMin= 1.03D-01 ExpMax= 8.59D+03 ExpMxC= 1.30D+03 IAcc=1 IRadAn=         1 AccDes= 1.00D-06
 HarFok:  IExCor= 402 AccDes= 1.00D-06 IRadAn=         1 IDoV=1
 ScaDFX=  1.000000  1.000000  1.000000  1.000000
 <S**2> of initial guess= 0.7500
 Requested convergence on RMS density matrix=1.00D-08 within 128 cycles.
 Requested convergence on MAX density matrix=1.00D-06.
 Requested convergence on             energy=1.00D-06.
 No special actions if energy rises.
 Integral accuracy reduced to 1.0D-05 until final iterations.
 Initial convergence to 1.0D-05 achieved.  Increase integral accuracy.
 SCF Done:  E(UB+HF-LYP) =  -383.473336622     A.U. after   17 cycles
             Convg  =    0.4215D-08             -V/T =  2.0033
             S**2   =   0.7534
 Annihilation of the first spin contaminant:
 S**2 before annihilation     0.7534,   after     0.7500
 Range of M.O.s used for correlation:     1   180
 NBasis=   180 NAE=    29 NBE=    28 NFC=     0 NFV=     0
 NROrb=    180 NOA=    29 NOB=    28 NVA=   151 NVB=   152
 Symmetrizing basis deriv contribution to polar:
 IMax=3 JMax=2 DiffMx= 0.00D+00
 G2DrvN: will do   17 centers at a time, making    1 passes doing MaxLOS=2.
 FoFDir/FoFCou used for L=0 through L=2.
 DoAtom=TTTTTTTTTTTTTTTT
          Differentiating once with respect to electric field.
                with respect to dipole field.
          Differentiating once with respect to nuclear coordinates.
 Symmetry not used in FoFDir.
 MinBra= 0 MaxBra= 2 Meth= 1.
 IRaf=       0 NMat=  51 IRICut=      51 DoRegI=T DoRafI=T ISym2E= 0 JSym2E=0.
          There are  51 degrees of freedom in the 1st order CPHF.
    48 vectors were produced by pass  0.
 AX will form  48 AO Fock derivatives at one time.
    48 vectors were produced by pass  1.
    48 vectors were produced by pass  2.
    48 vectors were produced by pass  3.
    48 vectors were produced by pass  4.
    48 vectors were produced by pass  5.
    29 vectors were produced by pass  6.
     4 vectors were produced by pass  7.
     3 vectors were produced by pass  8.
 Inv2:  IOpt= 1 Iter= 1 AM= 2.90D-15 Conv= 1.00D-12.
 Inverted reduced A of dimension  324 with in-core refinement.
 Isotropic polarizability for W=    0.000000       58.48 Bohr**3.
 End of Minotr Frequency-dependent properties file   721 does not exist.

 **********************************************************************

            Population analysis using the SCF density.

 **********************************************************************

 Alpha  occ. eigenvalues --  -19.18864 -19.18099 -19.13787 -10.24411 -10.21101
 Alpha  occ. eigenvalues --  -10.17303 -10.17237  -1.12864  -1.05113  -0.92972
 Alpha  occ. eigenvalues --   -0.78869  -0.70724  -0.67525  -0.59200  -0.55875
 Alpha  occ. eigenvalues --   -0.49000  -0.48266  -0.46867  -0.44293  -0.42369
 Alpha  occ. eigenvalues --   -0.41150  -0.40545  -0.39112  -0.37616  -0.36832
 Alpha  occ. eigenvalues --   -0.35097  -0.30505  -0.28255  -0.17137
 Alpha virt. eigenvalues --   -0.00612   0.03033   0.06366   0.07727   0.08772
 Alpha virt. eigenvalues --    0.09755   0.10768   0.11620   0.13144   0.14331
 Alpha virt. eigenvalues --    0.17135   0.18677   0.22624   0.23080   0.24415
 Alpha virt. eigenvalues --    0.27896   0.33362   0.35161   0.36802   0.39552
 Alpha virt. eigenvalues --    0.40136   0.40950   0.43232   0.45626   0.48809
 Alpha virt. eigenvalues --    0.50444   0.52981   0.54611   0.56544   0.57651
 Alpha virt. eigenvalues --    0.58419   0.59173   0.60623   0.61052   0.62606
 Alpha virt. eigenvalues --    0.63570   0.66538   0.73038   0.80590   0.82438
 Alpha virt. eigenvalues --    0.84493   0.86412   0.86920   0.89550   0.92605
 Alpha virt. eigenvalues --    0.93672   0.97336   1.01024   1.02989   1.11889
 Alpha virt. eigenvalues --    1.15813   1.18269   1.24975   1.27959   1.33556
 Alpha virt. eigenvalues --    1.33860   1.36468   1.39150   1.41528   1.42537
 Alpha virt. eigenvalues --    1.44056   1.44684   1.45796   1.49324   1.49891
 Alpha virt. eigenvalues --    1.50911   1.53346   1.55539   1.57792   1.59734
 Alpha virt. eigenvalues --    1.62175   1.64906   1.65569   1.69906   1.71927
 Alpha virt. eigenvalues --    1.75614   1.78962   1.84395   1.85248   1.88097
 Alpha virt. eigenvalues --    1.91183   1.93952   1.96300   1.98948   2.05659
 Alpha virt. eigenvalues --    2.08471   2.11449   2.19671   2.25578   2.26400
 Alpha virt. eigenvalues --    2.28753   2.34798   2.36779   2.41724   2.44164
 Alpha virt. eigenvalues --    2.44804   2.46759   2.49109   2.49466   2.52958
 Alpha virt. eigenvalues --    2.54434   2.54598   2.57184   2.59467   2.59626
 Alpha virt. eigenvalues --    2.61428   2.68232   2.72082   2.73874   2.78780
 Alpha virt. eigenvalues --    2.83487   2.85302   2.92098   2.97940   3.07920
 Alpha virt. eigenvalues --    3.08253   3.12389   3.14210   3.17047   3.18993
 Alpha virt. eigenvalues --    3.25253   3.28880   3.40224   3.54618   3.64641
 Alpha virt. eigenvalues --    3.74007   3.76239   3.77128   3.79402   3.81312
 Alpha virt. eigenvalues --    3.82123   3.90193   3.96663   4.17771   4.27058
 Alpha virt. eigenvalues --    4.73418   4.82560   4.84949   4.89410   5.17602
 Alpha virt. eigenvalues --    5.26787   5.39500   5.64024   5.67623  23.67211
 Alpha virt. eigenvalues --   23.75912  23.90217  23.93023  49.76359  49.82676
 Alpha virt. eigenvalues --   49.89414
  Beta  occ. eigenvalues --  -19.18871 -19.18004 -19.13246 -10.24460 -10.19796
  Beta  occ. eigenvalues --  -10.17292 -10.17168  -1.12759  -1.03898  -0.92830
  Beta  occ. eigenvalues --   -0.78442  -0.70593  -0.65599  -0.58853  -0.55695
  Beta  occ. eigenvalues --   -0.48585  -0.47723  -0.46699  -0.43761  -0.41233
  Beta  occ. eigenvalues --   -0.40813  -0.40349  -0.38960  -0.36540  -0.35552
  Beta  occ. eigenvalues --   -0.33974  -0.30141  -0.27982
  Beta virt. eigenvalues --   -0.03315  -0.00525   0.03094   0.06487   0.07888
  Beta virt. eigenvalues --    0.08946   0.09931   0.11052   0.11739   0.13328
  Beta virt. eigenvalues --    0.14471   0.17488   0.19046   0.22941   0.24204
  Beta virt. eigenvalues --    0.25169   0.28173   0.33764   0.35295   0.37100
  Beta virt. eigenvalues --    0.40222   0.40736   0.41274   0.44561   0.47032
  Beta virt. eigenvalues --    0.49436   0.52183   0.53687   0.55137   0.56795
  Beta virt. eigenvalues --    0.57877   0.58545   0.59411   0.60836   0.61275
  Beta virt. eigenvalues --    0.62807   0.63981   0.67189   0.73155   0.80953
  Beta virt. eigenvalues --    0.83038   0.85318   0.86931   0.87324   0.89948
  Beta virt. eigenvalues --    0.92932   0.93965   0.97623   1.01225   1.03282
  Beta virt. eigenvalues --    1.12572   1.16263   1.18999   1.25908   1.28082
  Beta virt. eigenvalues --    1.33808   1.34128   1.37107   1.39337   1.41910
  Beta virt. eigenvalues --    1.42858   1.44286   1.45093   1.45890   1.49533
  Beta virt. eigenvalues --    1.50367   1.51950   1.53866   1.55905   1.58237
  Beta virt. eigenvalues --    1.60113   1.62752   1.65045   1.65691   1.71185
  Beta virt. eigenvalues --    1.72897   1.76273   1.79605   1.84702   1.86213
  Beta virt. eigenvalues --    1.88331   1.91347   1.94061   1.97708   1.99915
  Beta virt. eigenvalues --    2.05934   2.08751   2.11654   2.19999   2.25718
  Beta virt. eigenvalues --    2.26647   2.29030   2.34927   2.37140   2.41893
  Beta virt. eigenvalues --    2.44362   2.44879   2.46928   2.49279   2.49886
  Beta virt. eigenvalues --    2.53060   2.54516   2.55198   2.57496   2.59754
  Beta virt. eigenvalues --    2.60461   2.61568   2.68700   2.72172   2.76636
  Beta virt. eigenvalues --    2.78981   2.83683   2.85496   2.92783   2.98649
  Beta virt. eigenvalues --    3.08173   3.09073   3.12997   3.14523   3.17919
  Beta virt. eigenvalues --    3.20697   3.25446   3.29217   3.40779   3.55133
  Beta virt. eigenvalues --    3.64748   3.74625   3.76323   3.77163   3.79678
  Beta virt. eigenvalues --    3.81453   3.82204   3.90971   3.96954   4.18536
  Beta virt. eigenvalues --    4.27222   4.73451   4.82929   4.86782   4.89533
  Beta virt. eigenvalues --    5.17798   5.27450   5.39570   5.64112   5.68221
  Beta virt. eigenvalues --   23.67598  23.76837  23.90375  23.93064  49.76372
  Beta virt. eigenvalues --   49.82791  49.89909
          Condensed to atoms (all electrons):
              1          2          3          4          5          6
     1  C    5.144910   0.399167   0.293104  -0.044046   0.359104  -0.058239
     2  H    0.399167   0.570684  -0.030572   0.006514  -0.054749  -0.003013
     3  O    0.293104  -0.030572   7.782340   0.326856  -0.051494   0.003247
     4  H   -0.044046   0.006514   0.326856   0.434943  -0.007912  -0.000436
     5  C    0.359104  -0.054749  -0.051494  -0.007912   5.291486   0.310061
     6  C   -0.058239  -0.003013   0.003247  -0.000436   0.310061   4.900893
     7  H    0.000299   0.000260  -0.000124   0.000007  -0.038474   0.401293
     8  H   -0.003214   0.002193  -0.000037   0.000046  -0.030700   0.396373
     9  H    0.007555  -0.000511  -0.000218   0.000122  -0.025653   0.394738
    10  C   -0.110466   0.001714   0.003278  -0.001195   0.272645  -0.046976
    11  H   -0.015360  -0.000259   0.012800   0.000409  -0.038854   0.010320
    12  H    0.009707  -0.000429  -0.000158  -0.000048  -0.031012  -0.008299
    13  H    0.003213   0.000300  -0.000882  -0.000028  -0.023147  -0.005048
    14  O   -0.055303   0.003987   0.000908  -0.004471   0.171227  -0.035490
    15  O   -0.008810  -0.000316  -0.011984   0.036689  -0.062360   0.006319
    16  H    0.000395   0.000034   0.000570  -0.002598  -0.003425  -0.000768
              7          8          9         10         11         12
     1  C    0.000299  -0.003214   0.007555  -0.110466  -0.015360   0.009707
     2  H    0.000260   0.002193  -0.000511   0.001714  -0.000259  -0.000429
     3  O   -0.000124  -0.000037  -0.000218   0.003278   0.012800  -0.000158
     4  H    0.000007   0.000046   0.000122  -0.001195   0.000409  -0.000048
     5  C   -0.038474  -0.030700  -0.025653   0.272645  -0.038854  -0.031012
     6  C    0.401293   0.396373   0.394738  -0.046976   0.010320  -0.008299
     7  H    0.545779  -0.024323  -0.026084   0.011904  -0.000244  -0.000527
     8  H   -0.024323   0.570152  -0.025034  -0.005323  -0.000173  -0.000033
     9  H   -0.026084  -0.025034   0.560092  -0.009380  -0.000320   0.004418
    10  C    0.011904  -0.005323  -0.009380   5.016386   0.403273   0.387821
    11  H   -0.000244  -0.000173  -0.000320   0.403273   0.579323  -0.031573
    12  H   -0.000527  -0.000033   0.004418   0.387821  -0.031573   0.578632
    13  H   -0.000480   0.001585   0.000321   0.385188  -0.026703  -0.022478
    14  O    0.001929   0.004086   0.002566  -0.068958  -0.006864   0.005756
    15  O   -0.000266  -0.000254  -0.000268   0.002727   0.011969  -0.000566
    16  H    0.000073   0.000063  -0.000080   0.005348   0.000452  -0.000162
             13         14         15         16
     1  C    0.003213  -0.055303  -0.008810   0.000395
     2  H    0.000300   0.003987  -0.000316   0.000034
     3  O   -0.000882   0.000908  -0.011984   0.000570
     4  H   -0.000028  -0.004471   0.036689  -0.002598
     5  C   -0.023147   0.171227  -0.062360  -0.003425
     6  C   -0.005048  -0.035490   0.006319  -0.000768
     7  H   -0.000480   0.001929  -0.000266   0.000073
     8  H    0.001585   0.004086  -0.000254   0.000063
     9  H    0.000321   0.002566  -0.000268  -0.000080
    10  C    0.385188  -0.068958   0.002727   0.005348
    11  H   -0.026703  -0.006864   0.011969   0.000452
    12  H   -0.022478   0.005756  -0.000566  -0.000162
    13  H    0.569411   0.004629   0.000280  -0.000195
    14  O    0.004629   8.173083   0.069806  -0.026836
    15  O    0.000280   0.069806   7.957868   0.286637
    16  H   -0.000195  -0.026836   0.286637   0.459860
 Mulliken atomic charges:
              1
     1  C    0.077985
     2  H    0.104995
     3  O   -0.327633
     4  H    0.255149
     5  C   -0.036743
     6  C   -0.264973
     7  H    0.128978
     8  H    0.114594
     9  H    0.117735
    10  C   -0.247986
    11  H    0.101806
    12  H    0.108951
    13  H    0.114036
    14  O   -0.240055
    15  O   -0.287471
    16  H    0.280631
 Sum of Mulliken charges=   0.00000
 Atomic charges with hydrogens summed into heavy atoms:
              1
     1  C    0.182980
     2  H    0.000000
     3  O   -0.072485
     4  H    0.000000
     5  C   -0.036743
     6  C    0.096334
     7  H    0.000000
     8  H    0.000000
     9  H    0.000000
    10  C    0.076807
    11  H    0.000000
    12  H    0.000000
    13  H    0.000000
    14  O   -0.240055
    15  O   -0.006839
    16  H    0.000000
 Sum of Mulliken charges=   0.00000
          Atomic-Atomic Spin Densities.
              1          2          3          4          5          6
     1  C    1.039296  -0.008895  -0.143746  -0.002756   0.032793  -0.015345
     2  H   -0.008895  -0.037426   0.001087  -0.000217   0.008863  -0.000664
     3  O   -0.143746   0.001087   0.279779   0.001592  -0.003774   0.000367
     4  H   -0.002756  -0.000217   0.001592  -0.001002  -0.000150   0.000002
     5  C    0.032793   0.008863  -0.003774  -0.000150   0.014790  -0.008601
     6  C   -0.015345  -0.000664   0.000367   0.000002  -0.008601   0.016463
     7  H    0.008922  -0.001017  -0.000167  -0.000011  -0.003037  -0.002417
     8  H    0.000016   0.000465  -0.000035   0.000005   0.002049  -0.000542
     9  H    0.000049  -0.000059   0.000006  -0.000009   0.000316  -0.000140
    10  C   -0.037639  -0.003689   0.006201  -0.000519  -0.035598   0.009045
    11  H   -0.007078  -0.000422   0.002868  -0.000250  -0.000874   0.000451
    12  H    0.001953   0.000156  -0.000295   0.000027   0.002609  -0.001416
    13  H    0.003425   0.000274  -0.000596   0.000016   0.002476  -0.000632
    14  O   -0.019962   0.000616   0.000690   0.000321  -0.010774   0.002273
    15  O   -0.000383   0.000009  -0.000016   0.000327   0.000538   0.000023
    16  H   -0.000074   0.000007  -0.000012  -0.000017  -0.000463   0.000015
              7          8          9         10         11         12
     1  C    0.008922   0.000016   0.000049  -0.037639  -0.007078   0.001953
     2  H   -0.001017   0.000465  -0.000059  -0.003689  -0.000422   0.000156
     3  O   -0.000167  -0.000035   0.000006   0.006201   0.002868  -0.000295
     4  H   -0.000011   0.000005  -0.000009  -0.000519  -0.000250   0.000027
     5  C   -0.003037   0.002049   0.000316  -0.035598  -0.000874   0.002609
     6  C   -0.002417  -0.000542  -0.000140   0.009045   0.000451  -0.001416
     7  H    0.002394  -0.000478   0.000443   0.002544   0.000176  -0.000319
     8  H   -0.000478  -0.000499   0.000248  -0.001810  -0.000113   0.000273
     9  H    0.000443   0.000248  -0.002722   0.000633   0.000051  -0.000294
    10  C    0.002544  -0.001810   0.000633   0.101615   0.006992  -0.005977
    11  H    0.000176  -0.000113   0.000051   0.006992   0.002304  -0.003694
    12  H   -0.000319   0.000273  -0.000294  -0.005977  -0.003694   0.011780
    13  H   -0.000145   0.000130  -0.000017  -0.004520  -0.000709   0.001377
    14  O   -0.002376   0.000294  -0.000166  -0.013700  -0.001941   0.001487
    15  O   -0.000011   0.000001   0.000013  -0.000141   0.000001   0.000010
    16  H   -0.000014   0.000002  -0.000007  -0.000167  -0.000108   0.000139
             13         14         15         16
     1  C    0.003425  -0.019962  -0.000383  -0.000074
     2  H    0.000274   0.000616   0.000009   0.000007
     3  O   -0.000596   0.000690  -0.000016  -0.000012
     4  H    0.000016   0.000321   0.000327  -0.000017
     5  C    0.002476  -0.010774   0.000538  -0.000463
     6  C   -0.000632   0.002273   0.000023   0.000015
     7  H   -0.000145  -0.002376  -0.000011  -0.000014
     8  H    0.000130   0.000294   0.000001   0.000002
     9  H   -0.000017  -0.000166   0.000013  -0.000007
    10  C   -0.004520  -0.013700  -0.000141  -0.000167
    11  H   -0.000709  -0.001941   0.000001  -0.000108
    12  H    0.001377   0.001487   0.000010   0.000139
    13  H   -0.000811   0.000343  -0.000004   0.000013
    14  O    0.000343   0.062309  -0.000166   0.000219
    15  O   -0.000004  -0.000166  -0.003003   0.000346
    16  H    0.000013   0.000219   0.000346  -0.000099
 Mulliken atomic spin densities:
              1
     1  C    0.850575
     2  H   -0.040911
     3  O    0.143950
     4  H   -0.002642
     5  C    0.001163
     6  C   -0.001119
     7  H    0.004485
     8  H    0.000004
     9  H   -0.001657
    10  C    0.023270
    11  H   -0.002347
    12  H    0.007818
    13  H    0.000621
    14  O    0.019466
    15  O   -0.002457
    16  H   -0.000221
 Sum of Mulliken spin densities=   1.00000
 APT atomic charges:
              1
     1  C    0.224778
     2  H    0.020196
     3  O   -0.611066
     4  H    0.339456
     5  C    0.462044
     6  C    0.013301
     7  H    0.010855
     8  H    0.000390
     9  H    0.003961
    10  C   -0.035168
    11  H   -0.000466
    12  H   -0.022614
    13  H    0.007357
    14  O   -0.286151
    15  O   -0.376250
    16  H    0.249378
 Sum of APT charges=   0.00000
 APT Atomic charges with hydrogens summed into heavy atoms:
              1
     1  C    0.244974
     2  H    0.000000
     3  O   -0.271611
     4  H    0.000000
     5  C    0.462044
     6  C    0.028507
     7  H    0.000000
     8  H    0.000000
     9  H    0.000000
    10  C   -0.050892
    11  H    0.000000
    12  H    0.000000
    13  H    0.000000
    14  O   -0.286151
    15  O   -0.126872
    16  H    0.000000
 Sum of APT charges=   0.00000
 Electronic spatial extent (au):  <R**2>=  1785.5517
 Charge=     0.0000 electrons
 Dipole moment (field-independent basis, Debye):
    X=     0.4017    Y=    -2.2517    Z=    -1.4027  Tot=     2.6831
 Quadrupole moment (field-independent basis, Debye-Ang):
   XX=   -40.6268   YY=   -46.1139   ZZ=   -44.6817
   XY=     6.6526   XZ=    -1.8875   YZ=    -0.6554
 Traceless Quadrupole moment (field-independent basis, Debye-Ang):
   XX=     3.1807   YY=    -2.3064   ZZ=    -0.8743
   XY=     6.6526   XZ=    -1.8875   YZ=    -0.6554
 Octapole moment (field-independent basis, Debye-Ang**2):
  XXX=   282.1466  YYY=     1.5853  ZZZ=   -52.1699  XYY=   110.8429
  XXY=   -18.3816  XXZ=    -7.4683  XZZ=   100.7135  YZZ=     2.4497
  YYZ=   -16.5988  XYZ=    -0.0153
 Hexadecapole moment (field-independent basis, Debye-Ang**3):
 XXXX= -1598.8003 YYYY=  -399.9297 ZZZZ=  -276.3624 XXXY=    22.5459
 XXXZ=    94.3496 YYYX=   -10.5521 YYYZ=    31.9096 ZZZX=   130.1880
 ZZZY=    31.0746 XXYY=  -385.8795 XXZZ=  -329.6574 YYZZ=  -112.5681
 XXYZ=    15.7876 YYXZ=    39.5965 ZZXY=    -8.9846
 N-N= 3.389741170440D+02 E-N=-1.577643978213D+03  KE= 3.822163015541D+02
  Exact polarizability:  61.167   2.687  59.843  -6.057  -3.947  54.415
 Approx polarizability:  85.754   4.313  82.339  -7.110  -7.711  75.143
                          Isotropic Fermi Contact Couplings
        Atom                 a.u.       MegaHertz       Gauss      10(-4) cm-1
     1  C(13)              0.12194     137.07877      48.91311      45.72456
     2  H(1)              -0.01086     -48.56165     -17.32800     -16.19842
     3  O(17)              0.02256     -13.67726      -4.88039      -4.56224
     4  H(1)              -0.00067      -2.98104      -1.06371      -0.99437
     5  C(13)             -0.02253     -25.32276      -9.03579      -8.44676
     6  C(13)              0.00326       3.66966       1.30943       1.22407
     7  H(1)              -0.00006      -0.24848      -0.08866      -0.08288
     8  H(1)               0.00033       1.47622       0.52675       0.49241
     9  H(1)              -0.00049      -2.21160      -0.78915      -0.73771
    10  C(13)              0.02550      28.66297      10.22766       9.56094
    11  H(1)              -0.00060      -2.67091      -0.95305      -0.89092
    12  H(1)               0.00360      16.08609       5.73992       5.36574
    13  H(1)               0.00058       2.58241       0.92147       0.86140
    14  O(17)              0.02329     -14.11759      -5.03751      -4.70912
    15  O(17)             -0.00058       0.34977       0.12481       0.11667
    16  H(1)               0.00004       0.18538       0.06615       0.06184
 --------------------------------------------------------
       Center         ----  Spin Dipole Couplings  ----
                      3XX-RR        3YY-RR        3ZZ-RR
 --------------------------------------------------------
     1   Atom       -0.303853     -0.345047      0.648901
     2   Atom        0.068005     -0.055359     -0.012647
     3   Atom       -0.352788     -0.309439      0.662227
     4   Atom        0.037086     -0.025015     -0.012071
     5   Atom        0.016251      0.005408     -0.021659
     6   Atom       -0.007630      0.012081     -0.004451
     7   Atom       -0.007689      0.005238      0.002451
     8   Atom       -0.003029      0.007169     -0.004140
     9   Atom       -0.003294      0.005477     -0.002183
    10   Atom       -0.017228     -0.009354      0.026582
    11   Atom       -0.004056     -0.000177      0.004232
    12   Atom       -0.003010      0.004211     -0.001201
    13   Atom       -0.003667      0.002325      0.001342
    14   Atom        0.079832     -0.021716     -0.058116
    15   Atom        0.017167     -0.011123     -0.006043
    16   Atom        0.004456     -0.002384     -0.002072
 --------------------------------------------------------
                        XY            XZ            YZ
 --------------------------------------------------------
     1   Atom        0.194334      0.500080      0.462181
     2   Atom       -0.001928     -0.009950      0.021718
     3   Atom        0.121728      0.318342      0.429829
     4   Atom        0.000423     -0.022115      0.000298
     5   Atom       -0.035047     -0.002097      0.001282
     6   Atom        0.003306      0.002919     -0.003647
     7   Atom        0.000163     -0.000740     -0.008959
     8   Atom        0.005172     -0.001349     -0.003440
     9   Atom       -0.001381      0.000456     -0.002277
    10   Atom       -0.009692     -0.019265      0.026926
    11   Atom       -0.002681     -0.006430      0.004244
    12   Atom       -0.004581     -0.001056      0.002291
    13   Atom        0.001706      0.004076      0.008555
    14   Atom       -0.077889      0.042536     -0.027848
    15   Atom       -0.005668     -0.000161      0.007177
    16   Atom       -0.001577     -0.002115      0.000349
 --------------------------------------------------------


 ---------------------------------------------------------------------------------
              Anisotropic Spin Dipole Couplings in Principal Axis System
 ---------------------------------------------------------------------------------

       Atom             a.u.   MegaHertz   Gauss  10(-4) cm-1        Axes

              Baa    -0.5271   -70.737   -25.241   -23.595  0.1830  0.8860 -0.4260
     1 C(13)  Bbb    -0.5170   -69.376   -24.755   -23.141  0.9109 -0.3158 -0.2655
              Bcc     1.0441   140.113    49.996    46.737  0.3698  0.3395  0.8649
 
              Baa    -0.0645   -34.411   -12.279   -11.478 -0.0158  0.9212 -0.3889
     2 H(1)   Bbb    -0.0049    -2.610    -0.931    -0.871  0.1347  0.3873  0.9120
              Bcc     0.0694    37.022    13.210    12.349  0.9908 -0.0380 -0.1302
 
              Baa    -0.4723    34.177    12.195    11.400 -0.0349  0.9378 -0.3455
     3 O(17)  Bbb    -0.4443    32.146    11.471    10.723  0.9652 -0.0581 -0.2551
              Bcc     0.9166   -66.323   -23.666   -22.123  0.2593  0.3424  0.9031
 
              Baa    -0.0251   -13.369    -4.771    -4.460 -0.0379  0.9955 -0.0874
     4 H(1)   Bbb    -0.0205   -10.946    -3.906    -3.651  0.3562  0.0951  0.9296
              Bcc     0.0456    24.315     8.676     8.111  0.9336  0.0041 -0.3582
 
              Baa    -0.0247    -3.313    -1.182    -1.105  0.6486  0.7497  0.1318
     5 C(13)  Bbb    -0.0217    -2.911    -1.039    -0.971 -0.0590 -0.1231  0.9906
              Bcc     0.0464     6.224     2.221     2.076  0.7589 -0.6503 -0.0356
 
              Baa    -0.0104    -1.391    -0.496    -0.464  0.8203 -0.2074 -0.5330
     6 C(13)  Bbb    -0.0028    -0.380    -0.136    -0.127  0.5571  0.0787  0.8267
              Bcc     0.0132     1.770     0.632     0.591  0.1296  0.9751 -0.1801
 
              Baa    -0.0078    -4.155    -1.483    -1.386  0.9841  0.0921  0.1517
     7 H(1)   Bbb    -0.0051    -2.743    -0.979    -0.915 -0.1750  0.6449  0.7440
              Bcc     0.0129     6.898     2.461     2.301  0.0294  0.7587 -0.6508
 
              Baa    -0.0052    -2.794    -0.997    -0.932  0.7673 -0.4474 -0.4595
     8 H(1)   Bbb    -0.0050    -2.691    -0.960    -0.898  0.5219  0.0192  0.8528
              Bcc     0.0103     5.485     1.957     1.830  0.3727  0.8941 -0.2482
 
              Baa    -0.0035    -1.879    -0.670    -0.627  0.9837  0.1163 -0.1374
     9 H(1)   Bbb    -0.0028    -1.494    -0.533    -0.498  0.1003  0.2794  0.9549
              Bcc     0.0063     3.373     1.204     1.125 -0.1494  0.9531 -0.2632
 
              Baa    -0.0246    -3.307    -1.180    -1.103  0.8216 -0.3154  0.4748
    10 C(13)  Bbb    -0.0235    -3.148    -1.123    -1.050  0.4761  0.8377 -0.2675
              Bcc     0.0481     6.455     2.303     2.153 -0.3134  0.4458  0.8385
 
              Baa    -0.0076    -4.044    -1.443    -1.349  0.8852  0.0559  0.4618
    11 H(1)   Bbb    -0.0026    -1.380    -0.492    -0.460  0.1575  0.8981 -0.4105
              Bcc     0.0102     5.424     1.935     1.809 -0.4377  0.4361  0.7863
 
              Baa    -0.0052    -2.792    -0.996    -0.931  0.8983  0.4392 -0.0142
    12 H(1)   Bbb    -0.0020    -1.045    -0.373    -0.349  0.1387 -0.2526  0.9576
              Bcc     0.0072     3.837     1.369     1.280 -0.4170  0.8621  0.2878
 
              Baa    -0.0077    -4.133    -1.475    -1.378 -0.4881 -0.5155  0.7042
    13 H(1)   Bbb    -0.0037    -1.998    -0.713    -0.667  0.8331 -0.5158  0.1999
              Bcc     0.0115     6.131     2.188     2.045  0.2602  0.6842  0.6813
 
              Baa    -0.0732     5.296     1.890     1.766 -0.0099  0.4642  0.8857
    14 O(17)  Bbb    -0.0621     4.495     1.604     1.499  0.5300  0.7535 -0.3889
              Bcc     0.1353    -9.791    -3.494    -3.266  0.8479 -0.4656  0.2535
 
              Baa    -0.0168     1.217     0.434     0.406  0.1351  0.8255 -0.5480
    15 O(17)  Bbb    -0.0015     0.112     0.040     0.037  0.1666  0.5263  0.8338
              Bcc     0.0184    -1.329    -0.474    -0.443  0.9767 -0.2039 -0.0664
 
              Baa    -0.0028    -1.504    -0.536    -0.502  0.3328  0.7235  0.6048
    16 H(1)   Bbb    -0.0026    -1.386    -0.494    -0.462  0.0766 -0.6600  0.7474
              Bcc     0.0054     2.889     1.031     0.964  0.9399 -0.2024 -0.2750
 

 ---------------------------------------------------------------------------------

 Use density number 0.
 Entering OneElI...
 Calculate overlap and kinetic energy integrals
    NBasis = 187  MinDer = 2  MaxDer = 2
 Requested accuracy = 0.1000D-12
 PrsmSu:  NPrtUS=   1 ThrOK=F
 PRISM was handed   130758559 working-precision words and  2556 shell-pairs
 Entering OneElI...
 Calculate potential energy integrals
    NBasis = 187  MinDer = 2  MaxDer = 2
 Requested accuracy = 0.1000D-12
 PrsmSu:  NPrtUS=   8 ThrOK=T
 PRISM was handed    16300198 working-precision words and  2418 shell-pairs
 PRISM was handed    16300198 working-precision words and  2418 shell-pairs
 PRISM was handed    16300198 working-precision words and  2418 shell-pairs
 PRISM was handed    16300198 working-precision words and  2418 shell-pairs
 PRISM was handed    16300198 working-precision words and  2418 shell-pairs
 PRISM was handed    16300198 working-precision words and  2418 shell-pairs
 PRISM was handed    16300198 working-precision words and  2418 shell-pairs
 PRISM was handed    16300198 working-precision words and  2418 shell-pairs
 Polarizability after L701:
                1             2             3
      1  0.611672D+02
      2  0.268669D+01  0.598433D+02
      3 -0.605714D+01 -0.394750D+01  0.544149D+02
 Dipole Derivatives after L701:
               1            2            3            4            5
      1 0.218227D+00 0.112167D+00-0.167884D+00-0.104691D+00 0.156776D-02
      2 0.471593D-01 0.457267D+00-0.450372D+00 0.280258D-01 0.305688D-01
      3-0.243385D+00-0.350045D+00-0.115954D-02 0.669138D-01 0.444644D-01
               6            7            8            9           10
      1-0.958575D-02-0.426644D+00-0.796633D-01 0.139782D+00 0.354816D+00
      2 0.604521D-01-0.164307D+00-0.878335D+00 0.399699D+00-0.110660D-01
      3 0.134710D+00 0.169087D+00 0.226845D+00-0.528219D+00 0.180621D-02
              11           12           13           14           15
      1-0.143713D-02 0.614066D-02 0.598825D+00-0.425641D-01 0.196465D+00
      2 0.382464D+00-0.203220D-01-0.844999D-02 0.357063D+00 0.857148D-01
      3 0.496752D-02 0.281087D+00 0.722616D-01 0.131330D+00 0.430245D+00
              16           17           18           19           20
      1-0.616854D-02-0.446714D-01 0.205931D-02 0.810749D-01 0.971685D-03
      2-0.658492D-01 0.267517D-01 0.130114D-01-0.370041D-02 0.369088D-01
      3 0.367058D-01 0.414776D-01 0.193209D-01-0.330233D-02-0.856034D-01
              21           22           23           24           25
      1 0.181522D-01-0.970207D-01-0.266534D-01-0.567068D-01 0.247023D-01
      2-0.404556D-01-0.473569D-01 0.575219D-01 0.222219D-02 0.108658D+00
      3-0.854191D-01-0.331990D-01 0.118032D-01 0.406675D-01-0.410372D-02
              26           27           28           29           30
      1 0.654446D-01 0.225000D-01 0.126772D-01-0.306783D-01-0.227828D-01
      2-0.737499D-01-0.396291D-02 0.165294D-01 0.237074D-02-0.502421D-01
      3 0.233548D-01 0.609307D-01 0.523936D-01-0.528524D-01-0.120552D+00
              31           32           33           34           35
      1 0.325635D-01-0.580573D-01 0.495929D-01 0.493164D-02 0.927861D-01
      2-0.419133D-01-0.864814D-02 0.515868D-01 0.123681D+00-0.107440D+00
      3 0.822551D-01 0.924835D-01-0.253147D-01 0.176068D-01-0.283654D-01
              36           37           38           39           40
      1-0.707577D-02-0.998115D-01-0.199510D-01-0.398848D-01-0.367335D+00
      2-0.128216D-01-0.422416D-01 0.616976D-01-0.138556D-01 0.170542D+00
      3 0.346653D-01-0.673136D-01-0.262984D-01 0.601840D-01-0.161591D+00
              41           42           43           44           45
      1 0.138885D+00-0.247496D+00-0.581216D+00-0.119756D+00 0.592792D-01
      2-0.250758D+00-0.180787D+00-0.143073D+00-0.231572D+00 0.162857D+00
      3-0.944572D-01-0.240360D+00-0.290964D-01 0.801111D-01-0.315962D+00
              46           47           48
      1 0.355068D+00 0.116096D-01 0.574454D-01
      2 0.333616D-01 0.137891D+00-0.272453D-02
      3 0.429605D-01-0.192143D-01 0.255176D+00
 Hessian after L701:
                1             2             3             4             5
      1  0.146080D+02
      2  0.821261D+00  0.897907D+01
      3  0.277617D+01  0.474516D+01  0.169855D+02
      4 -0.155870D+01 -0.112015D+00 -0.922392D+00  0.122386D+01
      5 -0.189112D+00 -0.469865D+01  0.766644D-01  0.144464D+00  0.468476D+01
      6 -0.914963D+00  0.504341D-01 -0.442291D+01  0.938697D+00 -0.189784D+00
      7 -0.815980D+01  0.243484D+01 -0.178514D+01  0.171168D+00 -0.127188D+00
      8  0.268080D+01 -0.327279D+01 -0.449586D+01 -0.679010D-01 -0.832419D-01
      9 -0.194866D+01 -0.439816D+01 -0.539791D+01  0.533770D-01  0.143513D+00
     10  0.922163D-01  0.101062D+00  0.902750D-02  0.132286D+00  0.438747D-01
     11 -0.816994D-01  0.197567D+00  0.225822D-01  0.535259D-01 -0.199150D-01
     12  0.103774D+00 -0.298416D-01  0.109756D+00 -0.664822D-01 -0.151994D-01
     13 -0.560591D+01 -0.312824D+01 -0.367067D+00 -0.230006D+00  0.269252D+00
     14 -0.323968D+01 -0.159418D+01 -0.349300D+00  0.237046D+00  0.116901D+00
     15 -0.251726D+00 -0.374748D+00 -0.740838D+01  0.405795D-02 -0.775125D-02
     16 -0.272759D-01 -0.191484D-01  0.700734D-01  0.123481D-01 -0.308124D-01
     17  0.762148D-01  0.951852D-01 -0.119791D-02 -0.603733D-01  0.117961D-01
     18  0.140206D-01  0.773008D-01  0.315886D-01  0.144812D-01 -0.191382D-01
     19 -0.343352D-01 -0.343802D-02  0.775428D-02 -0.608755D-03 -0.489143D-02
     20 -0.364809D-02  0.216984D-01  0.715905D-02 -0.415222D-02 -0.278355D-03
     21 -0.130170D-01 -0.456744D-01 -0.381680D-01  0.223310D-01 -0.126127D-01
     22  0.112725D-01  0.424740D-01 -0.198631D-01 -0.245110D-01  0.963073D-02
     23  0.290765D-01  0.187722D-02 -0.232111D-01 -0.161685D-01  0.288381D-01
     24  0.805903D-04 -0.173796D-02 -0.163951D-01 -0.232072D-03 -0.572851D-02
     25 -0.465837D-01 -0.487446D-01  0.177782D-01  0.585705D-02 -0.180995D-02
     26 -0.489268D-01  0.181971D+00 -0.694490D-01 -0.113001D-01  0.911807D-03
     27  0.185136D-01 -0.695537D-01 -0.297837D-01  0.753523D-03  0.231630D-03
     28  0.196100D+00  0.152033D+00  0.538992D-01  0.288842D-01 -0.435161D-01
     29  0.258689D+00  0.100952D+00  0.937458D-01 -0.590764D-01  0.447474D-02
     30  0.142264D+00 -0.754434D-02  0.426563D+00 -0.388857D-01  0.292413D-01
     31  0.515165D-02  0.142847D-01  0.166059D-01  0.830770D-02 -0.241584D-02
     32  0.263549D-01  0.737465D-02 -0.339577D-01  0.354645D-02 -0.273775D-02
     33  0.416587D-01 -0.272021D-01 -0.576245D-02 -0.137184D-01  0.279345D-02
     34 -0.888327D-02 -0.101006D+00 -0.395268D-01  0.465386D-02 -0.154828D-03
     35 -0.103874D+00  0.147016D+00  0.807400D-01 -0.796594D-02 -0.587755D-03
     36 -0.461184D-01  0.883158D-01 -0.294279D-01  0.885052D-04 -0.180268D-02
     37 -0.300451D-01  0.366830D-01  0.304199D-01 -0.132646D-01  0.177533D-02
     38  0.134010D-01  0.286652D-01  0.518903D-01 -0.115199D-01  0.547560D-02
     39  0.141372D-01  0.610909D-01 -0.235474D-02 -0.117850D-01  0.101878D-01
     40  0.146801D+00 -0.211778D+00  0.182220D+00  0.176240D+00 -0.633428D-01
     41 -0.203997D+00  0.583744D-01 -0.124962D+00 -0.732723D-01 -0.316989D-01
     42  0.588717D-01 -0.787068D-01  0.518784D-01  0.261322D-01 -0.938636D-02
     43  0.388842D+00  0.331502D-01 -0.192259D-01  0.528520D-01 -0.416693D-02
     44 -0.102693D-01 -0.245078D+00  0.118299D-01 -0.667445D-02 -0.160628D-01
     45  0.222168D-01  0.567031D-02 -0.244536D+00  0.800944D-03 -0.205372D-02
     46  0.231384D-01 -0.114218D-01 -0.107383D-01  0.106324D-01 -0.158608D-02
     47 -0.246003D-01 -0.906273D-02  0.816858D-02 -0.816291D-02  0.134865D-04
     48 -0.172187D-01  0.519911D-02 -0.967871D-02 -0.722366D-02  0.825111D-03
                6             7             8             9            10
      6  0.439500D+01
      7  0.803231D-01  0.954353D+01
      8  0.128459D+00 -0.954393D+00  0.905173D+01
      9 -0.814751D-01  0.217981D+01  0.478024D+01  0.135595D+02
     10 -0.685472D-01 -0.135033D+01 -0.460965D+00 -0.755079D+00  0.125281D+01
     11 -0.197766D-01  0.805316D-01 -0.720218D+01 -0.536062D-01  0.292271D+00
     12 -0.323589D-02 -0.988482D+00  0.463991D-01 -0.706158D+01  0.734209D+00
     13  0.215094D-01 -0.197921D-01 -0.319533D+00  0.216574D+00  0.356487D-03
     14 -0.655204D-02 -0.242726D+00  0.436004D+00  0.219084D-01  0.521369D-02
     15  0.213786D+00  0.140165D+00  0.452291D-01 -0.924622D-01  0.334748D-01
     16  0.298242D-02 -0.171199D+00  0.480988D-01 -0.281204D-01 -0.301030D-02
     17 -0.987458D-02  0.241697D-01  0.237189D+00 -0.240363D+00  0.295247D-01
     18 -0.251297D-01 -0.180325D-01 -0.224817D+00 -0.369568D-01 -0.129361D-01
     19  0.307455D-02 -0.187021D-01  0.363186D-02 -0.355613D-02  0.513452D-03
     20 -0.515823D-02  0.195568D-02 -0.440540D-02 -0.170544D-01 -0.327472D-03
     21  0.500486D-03  0.450589D-02 -0.516624D-01  0.355356D-01 -0.119788D-01
     22  0.176452D-02 -0.649723D-02  0.457202D-01 -0.172160D-01  0.100691D-01
     23 -0.356350D-02  0.143608D-01  0.294432D-01 -0.176693D-01  0.659316D-02
     24 -0.121466D-01 -0.367041D-02 -0.779656D-02 -0.134391D-01  0.245331D-03
     25 -0.152737D-02 -0.588856D-02 -0.157064D-01  0.570097D-02 -0.432882D-02
     26  0.286857D-02 -0.111885D-01  0.333495D-01 -0.170698D-01  0.111749D-01
     27 -0.173625D-02  0.162816D-02 -0.791886D-02 -0.593067D-02 -0.237800D-02
     28 -0.427545D-01 -0.306982D+00 -0.319092D-01 -0.413182D-02 -0.692993D-02
     29  0.397609D-01 -0.120075D+00  0.510967D+00  0.844444D-01  0.500677D-01
     30 -0.648257D-02  0.127727D-01  0.137058D-02 -0.284237D+00 -0.729121D-02
     31 -0.626220D-02 -0.592496D-01 -0.114005D+00 -0.518965D-01 -0.143855D-01
     32 -0.135915D-02 -0.784246D-01  0.529665D-01  0.636935D-01  0.484911D-02
     33  0.558653D-02 -0.805539D-01  0.155583D+00 -0.391322D-01  0.167120D-01
     34 -0.176888D-02 -0.574790D-02 -0.267784D-01 -0.348450D-02 -0.583737D-02
     35  0.230823D-02 -0.278262D-01  0.570528D-01  0.745005D-02  0.120956D-01
     36 -0.599263D-03 -0.330510D-02  0.677577D-02 -0.124809D-01  0.118432D-02
     37  0.368774D-02 -0.209252D-01  0.573539D-01  0.169299D-01  0.118090D-01
     38  0.118310D-01  0.111893D-01  0.436462D-01  0.234807D-01  0.938933D-02
     39  0.636042D-02  0.539408D-02  0.361470D-01 -0.142202D-01  0.548669D-02
     40 -0.732554D-03 -0.338503D-01 -0.430309D+00  0.230517D+00 -0.461846D-01
     41 -0.134862D-02 -0.461465D+00  0.260280D+00 -0.316670D+00  0.395025D-01
     42 -0.494065D-01  0.260777D+00 -0.329815D+00 -0.164195D+00 -0.285433D-01
     43 -0.124079D-01  0.380460D+00 -0.356060D+00  0.115515D+00 -0.431820D-01
     44 -0.371122D-03 -0.470669D+00 -0.174817D+00 -0.683087D-01 -0.169601D+00
     45 -0.189856D-01  0.227423D+00 -0.102368D+00 -0.367459D+00  0.779757D-01
     46 -0.307436D-02  0.638094D-01 -0.580490D-01 -0.627892D-02 -0.258717D-01
     47  0.212626D-02 -0.730917D-01  0.248085D-01  0.416551D-02  0.252752D-01
     48  0.876469D-03 -0.336219D-01  0.200286D-01 -0.235846D-01  0.843861D-02
               11            12            13            14            15
     11  0.714680D+01
     12  0.775459D-01  0.727625D+01
     13 -0.772938D-01  0.511190D-01  0.155254D+02
     14 -0.656220D-01  0.102797D+00  0.790414D+00  0.169754D+02
     15  0.122321D+00 -0.593302D-01 -0.984884D+00  0.138694D-01  0.182288D+02
     16  0.546462D-02 -0.513084D-02 -0.511306D+01  0.155514D+01 -0.163712D+01
     17  0.516199D-02 -0.150949D-01  0.154400D+01 -0.405993D+01 -0.224412D+01
     18 -0.965219D-02 -0.283099D-02 -0.158507D+01 -0.220007D+01 -0.374905D+01
     19  0.597527D-03 -0.884025D-03  0.116574D+00  0.151678D-01  0.357046D-02
     20 -0.389630D-03 -0.740166D-03  0.107686D-02  0.100033D+00  0.819110D-01
     21 -0.260168D-02  0.342689D-02 -0.548070D-01  0.101020D-02  0.217641D-01
     22  0.329558D-02 -0.294180D-02 -0.327636D-01 -0.127517D-01 -0.295662D-01
     23  0.197885D-02 -0.228755D-02 -0.637186D-01  0.609336D-01 -0.406244D-01
     24 -0.112107D-02 -0.909554D-03  0.458474D-01 -0.103864D-01  0.936812D-01
     25  0.210045D-03  0.445184D-03  0.553123D-01 -0.236383D-01 -0.140489D-02
     26  0.433984D-02 -0.421140D-02  0.572344D-01  0.105605D+00 -0.133643D-01
     27 -0.217562D-02 -0.357383D-04 -0.417904D-01  0.323695D-01  0.216180D-01
     28  0.499484D-02 -0.861301D-04 -0.592056D+01  0.380159D-01  0.448678D-01
     29 -0.111821D-01  0.766214D-03  0.371789D-01 -0.511009D+01  0.210116D+01
     30 -0.668353D-02 -0.162038D-01  0.264447D-01  0.204237D+01 -0.109105D+01
     31 -0.463718D-03  0.778239D-04  0.697902D-01 -0.562467D-02  0.280596D-01
     32  0.991913D-02  0.879778D-02  0.123926D-01  0.115073D+00 -0.317601D-01
     33  0.158465D-01 -0.218367D-02  0.955198D-01  0.686614D-01  0.169630D-01
     34 -0.900496D-03  0.652901D-03  0.605240D-01 -0.372216D-04 -0.376961D-02
     35  0.298734D-02 -0.599174D-03  0.323196D-01  0.491771D-01  0.139759D-02
     36 -0.174317D-03 -0.195875D-02  0.461244D-01 -0.626509D-01  0.654130D-01
     37  0.462976D-02  0.276906D-03  0.103416D-01 -0.475834D-02 -0.187446D-01
     38  0.329855D-02  0.912852D-03 -0.403754D-01  0.325352D-01  0.695605D-03
     39  0.215624D-02 -0.195002D-02 -0.933403D-01 -0.196322D-02  0.315626D-01
     40 -0.150345D-01  0.139390D-01  0.844253D+00  0.878480D+00  0.252934D+01
     41  0.501054D-01 -0.582581D-01  0.868727D+00 -0.715817D+01  0.151726D+00
     42 -0.415414D-01  0.965531D-02  0.245181D+01  0.105775D+00 -0.622622D+01
     43 -0.290533D+00  0.159986D+00  0.224771D+00  0.439651D-01  0.170562D+00
     44 -0.115908D+00 -0.109142D+00  0.676385D-01  0.184520D-01  0.175301D+00
     45 -0.100984D+00 -0.257161D+00  0.207468D+00  0.233617D+00 -0.747914D-01
     46  0.204043D-01 -0.472722D-03  0.147464D-01 -0.342306D-01 -0.268847D-01
     47 -0.696119D-02 -0.184498D-02 -0.510742D-01 -0.221608D-01  0.187492D-01
     48 -0.213568D-02  0.829603D-02 -0.354542D-01  0.854729D-02  0.773974D-02
               16            17            18            19            20
     16  0.147838D+02
     17 -0.151536D+01  0.141757D+02
     18  0.137624D+01  0.168820D+01  0.142786D+02
     19 -0.441127D+01 -0.542742D-01 -0.843229D-01  0.425135D+01
     20  0.711544D-02 -0.396250D+01  0.956484D+00 -0.256984D-01  0.394749D+01
     21  0.576216D-01  0.120529D+01 -0.190561D+01  0.246383D+00 -0.928328D+00
     22 -0.175338D+01  0.511687D+00  0.737396D+00  0.280119D-01 -0.211046D-01
     23  0.646065D+00 -0.417264D+01  0.197357D+00 -0.474591D-01  0.477984D-01
     24  0.564695D+00  0.122979D+00 -0.414284D+01 -0.850730D-01 -0.325034D-01
     25 -0.363592D+01 -0.115104D+01  0.469343D-01  0.590728D-01  0.182170D-01
     26 -0.137864D+01 -0.219481D+01 -0.654397D-01  0.484838D-01 -0.131467D-01
     27  0.138380D+00 -0.193304D+00 -0.435055D+01  0.424257D-01 -0.747391D-01
     28 -0.248731D-01  0.556976D-02 -0.113237D+00 -0.576376D-01 -0.489197D-02
     29  0.344781D-01 -0.516403D-01 -0.148324D+00 -0.602654D-02 -0.695704D-01
     30 -0.708154D-01 -0.289139D-01  0.102654D+00 -0.587967D-01  0.117175D-01
     31 -0.259231D-01  0.322491D-01 -0.872695D-01 -0.153026D-03 -0.172154D-02
     32  0.320850D-01 -0.323166D-01 -0.840247D-01  0.578711D-03 -0.141570D-02
     33 -0.979992D-01 -0.937502D-01  0.173251D+00  0.130675D-02  0.466026D-02
     34  0.229756D-02 -0.944762D-02 -0.111358D-01 -0.152232D-03 -0.290443D-02
     35 -0.632673D-02  0.732493D-02  0.596291D-02 -0.136958D-02  0.328617D-02
     36  0.710324D-02 -0.182995D-02 -0.251865D-01  0.222906D-04  0.176341D-02
     37 -0.578647D-02  0.535215D-02  0.363503D-01 -0.501770D-03  0.340608D-02
     38  0.173898D-02 -0.158851D-01 -0.501294D-03  0.118826D-03 -0.211372D-03
     39  0.144354D-01  0.512706D-02  0.167586D-01  0.514447D-03  0.283547D-02
     40  0.202720D+00  0.271798D+00 -0.118987D+00  0.623250D-01  0.288956D-01
     41  0.335068D+00 -0.541352D-01 -0.205444D-01  0.626960D-01 -0.520195D-01
     42 -0.195312D+00 -0.359768D-01 -0.261990D+00 -0.482352D-01 -0.299455D-02
     43  0.164901D+00  0.286544D+00 -0.190884D+00  0.213899D-02  0.465243D-02
     44  0.297614D+00  0.202390D-01 -0.155372D+00  0.126868D-01 -0.167299D-01
     45 -0.183290D+00 -0.152987D+00 -0.981966D-01 -0.199006D-01 -0.607233D-02
     46  0.561559D-02  0.337823D-02 -0.354649D-02  0.337019D-02 -0.870478D-03
     47 -0.125876D-01 -0.871184D-02  0.257962D-02 -0.804023D-03  0.363099D-03
     48 -0.137452D-01 -0.419019D-02 -0.454280D-02 -0.428256D-02  0.106015D-02
               21            22            23            24            25
     21  0.158831D+01
     22 -0.639233D-01  0.159701D+01
     23 -0.513086D-01 -0.753805D+00  0.399247D+01
     24 -0.702468D-02 -0.484063D+00 -0.724782D-01  0.408910D+01
     25  0.157572D-01 -0.550768D-01  0.767636D-01 -0.138684D-01  0.365385D+01
     26 -0.607804D-01  0.564087D-01  0.593789D-01  0.564886D-02  0.111495D+01
     27  0.404070D-01 -0.393332D-01  0.212130D-01  0.661904D-01 -0.701219D-01
     28 -0.490527D-01  0.302417D-01  0.322412D-02 -0.137072D-01 -0.160564D-02
     29  0.173708D-01  0.163840D-01 -0.161900D-01  0.292293D-02 -0.212840D-01
     30  0.242747D+00 -0.296032D-01  0.640688D-02 -0.134676D-01  0.273658D-01
     31 -0.285030D-02  0.602772D-02  0.283201D-02 -0.217782D-02 -0.284696D-02
     32 -0.556137D-02  0.733566D-02  0.530630D-03 -0.154760D-02 -0.275137D-02
     33  0.258611D-02 -0.110334D-01 -0.399378D-02  0.114201D-02  0.349747D-02
     34 -0.591928D-02  0.128037D-01  0.329112D-03 -0.525353D-02 -0.181442D-01
     35  0.927055D-02 -0.123527D-01 -0.452610D-02  0.217401D-02  0.308324D-02
     36  0.151455D-02 -0.880242D-02  0.307467D-03  0.144940D-03 -0.115681D-01
     37  0.100273D-01 -0.181682D-01 -0.141654D-02 -0.117046D-02  0.354739D-02
     38  0.229275D-02 -0.156948D-03 -0.110270D-01 -0.195863D-02 -0.131469D-02
     39  0.557791D-02 -0.223295D-01 -0.807295D-02  0.191564D-01  0.921106D-02
     40 -0.113523D+00  0.170577D+00  0.910109D-01 -0.396033D-02  0.663317D-02
     41 -0.570667D-01  0.893775D-01 -0.146079D-01  0.269079D-03  0.442195D-01
     42 -0.116747D-01 -0.427669D-02  0.167592D-03 -0.522332D-01 -0.239813D-01
     43 -0.324076D-01  0.158730D-01  0.955466D-02  0.278769D-02 -0.116645D-01
     44 -0.241581D-01  0.217971D-01 -0.199823D-02  0.182877D-02  0.823250D-02
     45  0.129246D-01  0.157565D-03 -0.501130D-03 -0.996843D-02 -0.507755D-02
     46 -0.914645D-02  0.851021D-02  0.275788D-02 -0.479793D-03 -0.221339D-02
     47  0.451856D-02 -0.394009D-02 -0.226210D-02 -0.564759D-03  0.604746D-03
     48  0.718682D-02 -0.636562D-02 -0.174131D-02 -0.991973D-03  0.859301D-03
               26            27            28            29            30
     26  0.177304D+01
     27  0.321478D+00  0.430550D+01
     28 -0.768455D-02  0.985127D-02  0.157036D+02
     29  0.648128D-02  0.149354D-01 -0.603486D+00  0.146162D+02
     30  0.164373D-01 -0.268546D-01 -0.650876D-01 -0.134289D+01  0.124444D+02
     31  0.363257D-02 -0.133261D-02 -0.414236D+01  0.799919D+00 -0.800938D+00
     32  0.603095D-02 -0.304399D-02  0.744692D+00 -0.354173D+01 -0.114505D+01
     33 -0.951288D-02  0.203657D-02 -0.961393D+00 -0.147169D+01 -0.327046D+01
     34  0.112683D-01 -0.214430D-01 -0.362817D+01 -0.122978D+01  0.305070D-01
     35 -0.272284D-01  0.352790D-02 -0.133766D+01 -0.227093D+01 -0.685991D-01
     36 -0.201469D-01  0.380087D-01 -0.839903D-01  0.121087D+00 -0.440903D+01
     37 -0.126556D-01  0.975606D-02 -0.192242D+01  0.458177D+00  0.785975D+00
     38 -0.298459D-02 -0.387916D-02  0.581525D+00 -0.425073D+01  0.183684D+00
     39 -0.131820D-01  0.105418D-01  0.962370D+00  0.178048D+00 -0.405297D+01
     40  0.134882D+00 -0.364216D-01 -0.131232D+00 -0.946659D-04 -0.368062D-01
     41  0.341006D-01 -0.252325D-01  0.113756D+00  0.175119D+00  0.239625D+00
     42 -0.528670D-01 -0.570462D-01  0.742479D-01  0.173742D+00  0.307733D+00
     43  0.255916D-01 -0.718064D-02  0.309577D-01  0.296427D+00  0.661760D-01
     44  0.384114D-01 -0.149416D-01  0.354095D+00 -0.582779D-01  0.617560D-01
     45 -0.139318D-01 -0.126069D-01  0.202524D+00  0.138598D+00 -0.300641D+00
     46  0.676368D-02 -0.130661D-02  0.153038D+00  0.885003D-01  0.167187D-01
     47 -0.545144D-02  0.103300D-02  0.312458D-01 -0.338132D-01  0.707982D-02
     48 -0.647775D-02  0.246403D-03 -0.143198D-01 -0.367499D-02 -0.526981D-01
               31            32            33            34            35
     31  0.413634D+01
     32 -0.729326D+00  0.355916D+01
     33  0.833763D+00  0.113418D+01  0.286268D+01
     34  0.110664D+00 -0.576254D-02 -0.717441D-02  0.361104D+01
     35  0.283051D-01 -0.948529D-01  0.101313D+00  0.125657D+01  0.199574D+01
     36 -0.213127D-01  0.812235D-01  0.700563D-01  0.611430D-01 -0.330578D+00
     37 -0.213995D-01 -0.410078D-01  0.210142D-01 -0.541814D-01  0.473390D-01
     38 -0.810197D-01  0.383865D-01  0.108640D-01  0.759436D-01  0.549106D-01
     39  0.363171D-01  0.100348D-01  0.813528D-01 -0.338592D-01  0.193516D-01
     40 -0.267204D-01 -0.753637D-02  0.433664D-02 -0.536677D-01  0.729048D-01
     41  0.558010D-02 -0.156570D-01  0.195304D-01  0.207688D-01  0.200270D-01
     42 -0.194527D-01 -0.218986D-01  0.479320D-01  0.385700D-01  0.124403D+00
     43 -0.488225D-01  0.361347D-01  0.134809D+00 -0.247966D-01  0.313745D-01
     44  0.494639D-01 -0.960815D-01  0.100847D+00  0.110150D-01  0.676616D-01
     45  0.768463D-01  0.282167D-01  0.634938D-01  0.187915D-02  0.477443D-01
     46  0.558253D-02 -0.316086D-02  0.192548D-01 -0.240409D-02  0.133837D-01
     47 -0.169070D-02 -0.465069D-02 -0.813016D-02  0.872734D-03 -0.705599D-02
     48  0.182242D-02  0.205607D-02 -0.953868D-02  0.582996D-03 -0.586640D-02
               36            37            38            39            40
     36  0.423637D+01
     37 -0.190663D-01  0.192215D+01
     38  0.190349D-01 -0.636875D+00  0.411288D+01
     39  0.626113D-01 -0.102741D+01 -0.350194D+00  0.380631D+01
     40  0.691048D-01  0.960278D-01  0.477934D-01  0.114296D+00  0.113239D+01
     41  0.766790D-01  0.464183D-01 -0.357545D-01  0.332449D-01 -0.352957D+01
     42  0.281944D-01  0.119587D+00  0.379026D-01  0.372969D-01 -0.507473D+00
     43  0.791017D-02  0.352067D-01  0.279030D-01  0.246237D-01 -0.256602D+01
     44  0.224440D-01  0.416680D-01 -0.327529D-03  0.172573D-01  0.301337D+01
     45 -0.199877D-01  0.370154D-01  0.151049D-01 -0.333845D-02 -0.236966D+01
     46  0.148259D-02  0.761331D-02  0.225889D-02  0.194348D-02  0.197035D-01
     47 -0.447105D-03 -0.608939D-02 -0.288291D-02 -0.206942D-02 -0.281466D+00
     48 -0.364212D-02 -0.464490D-02 -0.116096D-02 -0.270158D-02  0.438059D-01
               41            42            43            44            45
     41  0.857002D+01
     42  0.254160D+01  0.898027D+01
     43  0.287522D+01 -0.227248D+01  0.620165D+01
     44 -0.184431D+01 -0.267658D+01 -0.150986D+01  0.738916D+01
     45 -0.265897D+01 -0.276417D+01  0.364904D+01  0.108700D+01  0.905352D+01
     46 -0.233030D+00  0.697619D-01 -0.480317D+01 -0.171050D+01 -0.192542D+01
     47  0.383346D-01  0.266182D+00 -0.150990D+01 -0.496434D+01  0.148192D+01
     48  0.200387D+00  0.123981D+00 -0.179682D+01  0.157061D+01 -0.495810D+01
               46            47            48
     46  0.451790D+01
     47  0.191541D+01  0.500383D+01
     48  0.187818D+01 -0.178346D+01  0.491715D+01
 ReadGW:  IGet=0 IStart=         114 Next=        7213 LGW=        7099.
 ICntrl=12127.
 Symmetry not used in FoFDir.
 MinBra= 0 MaxBra= 2 Meth= 1.
 IRaf=       0 NMat=   1 IRICut=       1 DoRegI=T DoRafI=F ISym2E= 0 JSym2E=0.
 PrsmSu:  NPrtUS=   8 ThrOK=T
 PRISM was handed    16286047 working-precision words and  2502 shell-pairs
 PRISM was handed    16286047 working-precision words and  2502 shell-pairs
 PRISM was handed    16286047 working-precision words and  2502 shell-pairs
 PRISM was handed    16286047 working-precision words and  2502 shell-pairs
 PRISM was handed    16286047 working-precision words and  2502 shell-pairs
 PRISM was handed    16286047 working-precision words and  2502 shell-pairs
 PRISM was handed    16286047 working-precision words and  2502 shell-pairs
 PRISM was handed    16286047 working-precision words and  2502 shell-pairs
 Pruned (  75, 302) grid will be used in CalDFT.
 CkSvGd:  ISavGI=        -1 IRadAn=       4 IRASav=       4 ISavGd=        -1.
 CalDSu:  NPrtUS=   8 ThrOK=T
 IPart= 0 IRanGd=          0 ScrnBf=T ScrnGd=T RCrit=4.00D+00 DoMicB=T.
 IPart= 2 IRanGd=          0 ScrnBf=T ScrnGd=T RCrit=4.00D+00 DoMicB=T.
 IPart= 4 IRanGd=          0 ScrnBf=T ScrnGd=T RCrit=4.00D+00 DoMicB=T.
 IPart= 6 IRanGd=          0 ScrnBf=T ScrnGd=T RCrit=4.00D+00 DoMicB=T.
 IPart= 5 IRanGd=          0 ScrnBf=T ScrnGd=T RCrit=4.00D+00 DoMicB=T.
 CutRad = 1000.00    CtRdIn =    0.00    XCrit =  15.00   ICut = 0
 CutRad = 1000.00    CtRdIn =    0.00    XCrit =  15.00   ICut = 0
 CutRad = 1000.00    CtRdIn =    0.00    XCrit =  15.00   ICut = 0
 CutRad = 1000.00    CtRdIn =    0.00    XCrit =  15.00   ICut = 0
 IPart= 1 IRanGd=          0 ScrnBf=T ScrnGd=T RCrit=4.00D+00 DoMicB=T.
 IPart= 7 IRanGd=          0 ScrnBf=T ScrnGd=T RCrit=4.00D+00 DoMicB=T.
 IPart= 3 IRanGd=          0 ScrnBf=T ScrnGd=T RCrit=4.00D+00 DoMicB=T.
 CutRad = 1000.00    CtRdIn =    0.00    XCrit =  15.00   ICut = 0
 CutRad = 1000.00    CtRdIn =    0.00    XCrit =  15.00   ICut = 0
 CutRad = 1000.00    CtRdIn =    0.00    XCrit =  15.00   ICut = 0
 CutRad = 1000.00    CtRdIn =    0.00    XCrit =  15.00   ICut = 0
 IPart= 0        13796 of        15912 points in      33 batches and       98 microbatches, Max-NSigAt=      16 Max-NSgAt2=      16
 IPart= 6        13415 of        15294 points in      30 batches and       89 microbatches, Max-NSigAt=      16 Max-NSgAt2=      16
 IPart= 3        13920 of        15884 points in      33 batches and       97 microbatches, Max-NSigAt=      16 Max-NSgAt2=      16
 IPart= 2        14043 of        15772 points in      33 batches and       90 microbatches, Max-NSigAt=      16 Max-NSgAt2=      16
 IPart= 4        14479 of        16184 points in      32 batches and       91 microbatches, Max-NSigAt=      16 Max-NSgAt2=      16
 IPart= 1        13852 of        16472 points in      35 batches and       92 microbatches, Max-NSigAt=      16 Max-NSgAt2=      16
 IPart= 7        14436 of        15774 points in      32 batches and      116 microbatches, Max-NSigAt=      16 Max-NSgAt2=      16
 IPart= 5        14141 of        16498 points in      34 batches and      111 microbatches, Max-NSigAt=      16 Max-NSgAt2=      16
 Polarizability after L703:
                1             2             3
      1  0.611672D+02
      2  0.268669D+01  0.598433D+02
      3 -0.605714D+01 -0.394750D+01  0.544149D+02
 Dipole Derivatives after L703:
               1            2            3            4            5
      1 0.218227D+00 0.112167D+00-0.167884D+00-0.104691D+00 0.156776D-02
      2 0.471593D-01 0.457267D+00-0.450372D+00 0.280258D-01 0.305688D-01
      3-0.243385D+00-0.350045D+00-0.115954D-02 0.669138D-01 0.444644D-01
               6            7            8            9           10
      1-0.958575D-02-0.426644D+00-0.796633D-01 0.139782D+00 0.354816D+00
      2 0.604521D-01-0.164307D+00-0.878335D+00 0.399699D+00-0.110660D-01
      3 0.134710D+00 0.169087D+00 0.226845D+00-0.528219D+00 0.180621D-02
              11           12           13           14           15
      1-0.143713D-02 0.614066D-02 0.598825D+00-0.425641D-01 0.196465D+00
      2 0.382464D+00-0.203220D-01-0.844999D-02 0.357063D+00 0.857148D-01
      3 0.496752D-02 0.281087D+00 0.722616D-01 0.131330D+00 0.430245D+00
              16           17           18           19           20
      1-0.616854D-02-0.446714D-01 0.205931D-02 0.810749D-01 0.971685D-03
      2-0.658492D-01 0.267517D-01 0.130114D-01-0.370041D-02 0.369088D-01
      3 0.367058D-01 0.414776D-01 0.193209D-01-0.330233D-02-0.856034D-01
              21           22           23           24           25
      1 0.181522D-01-0.970207D-01-0.266534D-01-0.567068D-01 0.247023D-01
      2-0.404556D-01-0.473569D-01 0.575219D-01 0.222219D-02 0.108658D+00
      3-0.854191D-01-0.331990D-01 0.118032D-01 0.406675D-01-0.410372D-02
              26           27           28           29           30
      1 0.654446D-01 0.225000D-01 0.126772D-01-0.306783D-01-0.227828D-01
      2-0.737499D-01-0.396291D-02 0.165294D-01 0.237074D-02-0.502421D-01
      3 0.233548D-01 0.609307D-01 0.523936D-01-0.528524D-01-0.120552D+00
              31           32           33           34           35
      1 0.325635D-01-0.580573D-01 0.495929D-01 0.493164D-02 0.927861D-01
      2-0.419133D-01-0.864814D-02 0.515868D-01 0.123681D+00-0.107440D+00
      3 0.822551D-01 0.924835D-01-0.253147D-01 0.176068D-01-0.283654D-01
              36           37           38           39           40
      1-0.707577D-02-0.998115D-01-0.199510D-01-0.398848D-01-0.367335D+00
      2-0.128216D-01-0.422416D-01 0.616976D-01-0.138556D-01 0.170542D+00
      3 0.346653D-01-0.673136D-01-0.262984D-01 0.601840D-01-0.161591D+00
              41           42           43           44           45
      1 0.138885D+00-0.247496D+00-0.581216D+00-0.119756D+00 0.592792D-01
      2-0.250758D+00-0.180787D+00-0.143073D+00-0.231572D+00 0.162857D+00
      3-0.944572D-01-0.240360D+00-0.290964D-01 0.801111D-01-0.315962D+00
              46           47           48
      1 0.355068D+00 0.116096D-01 0.574454D-01
      2 0.333616D-01 0.137891D+00-0.272453D-02
      3 0.429605D-01-0.192143D-01 0.255176D+00
 Hessian after L703:
                1             2             3             4             5
      1  0.591460D+00
      2 -0.416155D-01  0.463026D+00
      3 -0.171733D+00 -0.161269D+00  0.240372D+00
      4 -0.325649D+00  0.294843D-01  0.728107D-01  0.338741D+00
      5  0.287757D-01 -0.461583D-01  0.699384D-02 -0.197536D-01  0.536331D-01
      6  0.512708D-01  0.138526D-01 -0.276848D-01 -0.758224D-01 -0.159392D-01
      7 -0.114433D+00 -0.609584D-01  0.791750D-01 -0.888635D-02 -0.322038D-01
      8 -0.286518D-01 -0.210625D+00  0.130335D+00 -0.471332D-02 -0.303055D-02
      9  0.597962D-01  0.152400D+00 -0.136483D+00  0.223791D-02  0.862659D-02
     10 -0.193737D-01 -0.388669D-02  0.646860D-02  0.213006D-02 -0.725528D-03
     11 -0.375122D-01 -0.294567D-03  0.923930D-02 -0.858496D-03 -0.332475D-02
     12  0.317683D-01  0.107965D-03 -0.674360D-02  0.172704D-02  0.470430D-02
     13 -0.100689D+00  0.499375D-01  0.111948D-02 -0.470810D-02  0.218347D-01
     14  0.546447D-01 -0.165318D+00  0.154695D-01 -0.733233D-02  0.214269D-02
     15  0.309719D-01 -0.835140D-02 -0.652500D-01  0.405082D-03 -0.393599D-02
     16  0.105847D-01  0.295536D-02 -0.853436D-02  0.709373D-04  0.933520D-03
     17 -0.134376D-01 -0.254947D-01  0.211705D-01 -0.859321D-03  0.110666D-02
     18 -0.347212D-03  0.658491D-02 -0.222492D-02  0.276324D-03 -0.465783D-03
     19  0.435564D-03  0.669354D-03 -0.529972D-03 -0.127300D-03 -0.880501D-05
     20 -0.524911D-03 -0.132784D-03  0.597361D-03  0.334989D-03  0.990463D-04
     21  0.364703D-03 -0.836813D-03  0.359935D-03 -0.400685D-03  0.246340D-03
     22 -0.342945D-03  0.100388D-02  0.123510D-03  0.624171D-03 -0.267515D-03
     23 -0.587234D-03  0.206509D-03  0.210570D-03  0.374081D-03 -0.560812D-03
     24 -0.302043D-03 -0.689697D-04  0.399510D-03  0.377918D-04  0.856245D-04
     25 -0.205282D-02 -0.586623D-03  0.142063D-02  0.269724D-03 -0.314536D-03
     26 -0.341688D-02 -0.711147D-04  0.255130D-02  0.326252D-04  0.140715D-03
     27  0.295085D-02  0.762502D-03 -0.239768D-02 -0.188820D-03 -0.476006D-04
     28 -0.477252D-04  0.100029D-01  0.149822D-01 -0.354265D-03 -0.387718D-03
     29  0.936517D-02 -0.176157D-01 -0.286966D-01  0.239535D-03 -0.897304D-03
     30  0.480764D-02 -0.116071D-01 -0.746030D-03 -0.545988D-03  0.264382D-03
     31 -0.658187D-03 -0.114258D-02  0.124478D-02  0.417139D-04  0.104460D-03
     32  0.396759D-03  0.784434D-03  0.318275D-03 -0.452316D-04 -0.177480D-04
     33 -0.411914D-04  0.242306D-02 -0.230478D-03 -0.112727D-03 -0.298954D-04
     34  0.884271D-03 -0.158947D-03  0.210702D-02 -0.249942D-04 -0.238898D-03
     35  0.188962D-03 -0.489921D-03 -0.371131D-02  0.127611D-03 -0.197683D-03
     36  0.113597D-02 -0.762158D-03 -0.678154D-02  0.180098D-03 -0.264486D-03
     37  0.420770D-03  0.501598D-03  0.422183D-03  0.176015D-03 -0.985515D-04
     38  0.181986D-03  0.180620D-03  0.558806D-04  0.163060D-03 -0.288669D-03
     39  0.243897D-03  0.740482D-03  0.156775D-02  0.229356D-03 -0.493140D-03
     40 -0.448405D-01  0.111217D-01  0.322690D-02 -0.271062D-02  0.332172D-02
     41  0.317408D-01  0.652987D-02  0.569127D-02  0.281934D-02 -0.333291D-02
     42 -0.117478D-01  0.306167D-02  0.719655D-02 -0.657209D-03  0.664411D-03
     43  0.393074D-02  0.240830D-02 -0.204832D-02  0.315686D-03 -0.884662D-03
     44  0.112850D-02 -0.356745D-02  0.548260D-03  0.225683D-04  0.536371D-03
     45  0.609842D-03  0.285559D-02 -0.775704D-03 -0.835783D-04 -0.480128D-03
     46  0.372265D-03  0.263958D-03 -0.254848D-03  0.914949D-04 -0.865095D-04
     47 -0.676448D-03 -0.960163D-03  0.495903D-03 -0.357703D-04  0.150129D-03
     48  0.251643D-03  0.106662D-03 -0.577655D-03 -0.928262D-04  0.707143D-04
                6             7             8             9            10
      6  0.331889D-01
      7  0.236649D-01  0.596932D+00
      8  0.930521D-03  0.680721D-02  0.285522D+00
      9 -0.663159D-02 -0.111481D+00 -0.171406D+00  0.160403D+00
     10  0.574054D-03 -0.470934D+00  0.351441D-01  0.476483D-01  0.487910D+00
     11  0.414237D-02  0.716413D-01 -0.410194D-01  0.741773D-02 -0.293710D-01
     12 -0.644395D-04  0.209853D-01  0.140242D-01 -0.248963D-01 -0.543743D-01
     13  0.654817D-02  0.121153D-02 -0.224142D-01  0.115005D-01  0.870149D-02
     14 -0.408033D-02  0.608401D-02 -0.259361D-01 -0.160163D-02 -0.405684D-03
     15  0.317161D-02 -0.102357D-01  0.261538D-01  0.558197D-03  0.916481D-03
     16 -0.502317D-03 -0.435130D-03  0.638666D-02 -0.112374D-02 -0.175649D-02
     17  0.329293D-03  0.170905D-02 -0.548233D-02  0.121587D-02  0.108599D-02
     18  0.503380D-03  0.899117D-04 -0.213536D-02  0.138917D-02 -0.363724D-03
     19 -0.185258D-03 -0.279727D-03 -0.391720D-04 -0.207056D-05  0.153922D-03
     20  0.874720D-04  0.322400D-03  0.470321D-03 -0.489260D-03 -0.764380D-04
     21 -0.378111D-03 -0.350519D-03 -0.443218D-04  0.922036D-03  0.649964D-04
     22 -0.227872D-03  0.633286D-03 -0.151148D-03  0.104146D-03 -0.283586D-03
     23  0.927183D-04  0.542778D-03  0.149463D-03 -0.246145D-03 -0.279729D-03
     24  0.166525D-03 -0.648166D-04 -0.346027D-03  0.396372D-04  0.243358D-03
     25  0.763885D-04  0.596253D-03 -0.116486D-02  0.256629D-03  0.251928D-03
     26 -0.153811D-03  0.256892D-03 -0.170829D-02  0.733804D-03  0.602825D-03
     27 -0.306944D-03 -0.188948D-03  0.194100D-02  0.123376D-03 -0.329220D-03
     28 -0.522325D-03  0.108188D-02  0.133168D-02 -0.199010D-02 -0.155930D-02
     29  0.155834D-03 -0.106426D-02  0.514100D-03  0.296865D-02  0.569955D-03
     30 -0.487511D-03  0.112713D-02  0.181688D-02 -0.167383D-02 -0.810004D-03
     31  0.498307D-04  0.268109D-03  0.140881D-03 -0.164503D-02  0.746418D-03
     32  0.210202D-04 -0.505240D-05 -0.414566D-03 -0.115329D-03 -0.378525D-03
     33  0.222459D-04 -0.114233D-02 -0.574223D-03  0.198542D-02  0.200409D-04
     34 -0.277734D-03  0.463080D-03  0.730366D-04 -0.115670D-02 -0.121047D-03
     35 -0.141468D-04 -0.117324D-03  0.215875D-03  0.372598D-03  0.617308D-03
     36  0.179905D-03 -0.990972D-03 -0.652515D-03  0.268207D-02  0.423039D-03
     37 -0.100808D-03  0.171630D-03 -0.278562D-03 -0.661198D-04 -0.202812D-03
     38 -0.215121D-03  0.380412D-03 -0.224932D-03 -0.117294D-03 -0.319772D-03
     39 -0.203546D-03  0.295083D-03  0.163664D-03 -0.762445D-03 -0.277868D-03
     40 -0.510575D-02  0.461745D-02  0.352979D-03 -0.242140D-02 -0.549802D-03
     41  0.106782D-02 -0.353832D-02 -0.195944D-03  0.103617D-02 -0.953127D-03
     42 -0.136094D-02  0.326254D-02  0.280405D-03 -0.150049D-02 -0.128469D-02
     43  0.408028D-03 -0.103689D-01  0.719537D-02 -0.120400D-02 -0.484691D-02
     44 -0.186470D-03  0.898349D-02  0.127809D-02 -0.982209D-03 -0.570164D-03
     45 -0.195295D-03 -0.164803D-02 -0.115209D-02  0.437137D-02 -0.876007D-03
     46  0.152327D-03 -0.637642D-03 -0.188326D-04 -0.453219D-03 -0.266347D-03
     47 -0.906112D-04  0.115955D-02  0.486721D-03  0.186168D-03 -0.105349D-02
     48  0.806435D-04 -0.249721D-02  0.664822D-03 -0.526686D-03  0.195699D-02
               11            12            13            14            15
     11  0.473879D-01
     12 -0.193421D-01  0.362781D-01
     13 -0.502359D-02 -0.104132D-02  0.377874D+00
     14  0.204133D-04  0.226492D-02 -0.186351D-01  0.493261D+00
     15 -0.903794D-03  0.766195D-03 -0.455794D-01 -0.514317D-01  0.469175D+00
     16  0.213991D-03 -0.136965D-03 -0.872374D-01 -0.166221D-01  0.242103D-01
     17  0.743243D-04 -0.360177D-03 -0.210263D-01 -0.117436D+00  0.449123D-01
     18  0.321285D-03 -0.369315D-03  0.270782D-01  0.436702D-01 -0.125117D+00
     19 -0.408688D-04  0.977074D-04 -0.135061D-02  0.595581D-02  0.128081D-01
     20  0.105482D-03  0.104823D-03  0.423869D-03  0.972137D-02  0.203710D-01
     21 -0.222203D-03 -0.145427D-03 -0.421117D-03 -0.939778D-02 -0.207807D-01
     22  0.283285D-03 -0.121434D-03 -0.128761D-01 -0.986491D-03 -0.538716D-02
     23  0.233815D-03 -0.138968D-03 -0.193595D-01 -0.414447D-02 -0.756852D-02
     24 -0.125974D-03  0.490766D-04  0.211148D-01  0.278779D-02  0.585343D-02
     25  0.105665D-03 -0.168283D-04  0.681218D-02 -0.134306D-01  0.562387D-03
     26 -0.142293D-04 -0.635458D-04  0.110132D-01 -0.199810D-01  0.379829D-03
     27 -0.701159D-04  0.715416D-04 -0.129521D-01  0.200296D-01 -0.154153D-02
     28  0.656961D-03 -0.260216D-03 -0.686825D-01  0.292876D-02  0.200478D-01
     29 -0.125825D-02 -0.812133D-03  0.214750D-02 -0.927433D-01 -0.326322D-01
     30  0.407757D-03  0.872664D-03  0.756113D-02 -0.220837D-01 -0.144650D+00
     31  0.536506D-04  0.431588D-03 -0.123523D-02 -0.105598D-04  0.284483D-04
     32 -0.759110D-03 -0.712570D-03  0.682428D-02  0.989790D-02 -0.833411D-02
     33 -0.135053D-02 -0.769729D-03  0.137922D-01  0.203613D-01 -0.192416D-01
     34  0.203119D-03  0.286168D-03 -0.230977D-02  0.846963D-03 -0.953285D-03
     35  0.132795D-03  0.249256D-03  0.777770D-02 -0.126252D-01  0.354462D-03
     36 -0.428033D-03 -0.490991D-03  0.167668D-01 -0.275621D-01 -0.162607D-02
     37  0.248018D-03  0.558629D-04  0.294159D-03  0.867094D-03  0.937840D-03
     38  0.461382D-03  0.133204D-03 -0.113735D-01 -0.352420D-02 -0.165161D-02
     39  0.203712D-03 -0.584841D-04 -0.268919D-01 -0.413991D-02 -0.646810D-02
     40  0.168480D-02 -0.739840D-03 -0.957964D-01  0.177728D-01 -0.638506D-01
     41 -0.291933D-02  0.147449D-02  0.692736D-02 -0.601991D-01  0.159956D-01
     42  0.290441D-02 -0.212880D-02 -0.218431D-01  0.179560D-01 -0.952132D-01
     43 -0.263478D-02  0.303431D-03 -0.165962D-01 -0.321798D-01  0.308209D-01
     44  0.780291D-03  0.481527D-03 -0.102242D-01 -0.122219D-01  0.139304D-02
     45 -0.833239D-03 -0.430799D-02  0.362692D-02 -0.296738D-02  0.191995D-03
     46  0.350096D-03  0.103558D-02 -0.341177D-02  0.502429D-03  0.429679D-02
     47  0.393247D-03 -0.211526D-02  0.117036D-02 -0.914122D-03  0.524927D-02
     48 -0.136063D-02  0.193748D-02 -0.379407D-03  0.725191D-03  0.171383D-03
               16            17            18            19            20
     16  0.558757D+00
     17 -0.301865D-01  0.535151D+00
     18  0.316269D-01  0.507536D-01  0.525702D+00
     19 -0.470625D-01 -0.112895D-03 -0.244999D-02  0.466689D-01
     20  0.223684D-04 -0.955310D-01 -0.103616D+00  0.146854D-02  0.100445D+00
     21 -0.701574D-03 -0.100469D+00 -0.266513D+00  0.469666D-04  0.109517D+00
     22 -0.281541D+00 -0.496965D-01 -0.669192D-01  0.164559D-02  0.527872D-03
     23 -0.486005D-01 -0.554353D-01 -0.135547D-01 -0.127616D-01 -0.317013D-02
     24 -0.690144D-01 -0.143390D-01 -0.652673D-01 -0.282058D-01 -0.429126D-02
     25 -0.117347D+00  0.119584D+00 -0.355814D-02  0.912183D-05 -0.164297D-02
     26  0.117258D+00 -0.240377D+00  0.580826D-02  0.636282D-02 -0.104446D-01
     27 -0.191790D-02  0.420941D-02 -0.481988D-01  0.161939D-01 -0.247787D-01
     28  0.980783D-03  0.579278D-02  0.147119D-01 -0.130157D-02 -0.168917D-02
     29  0.157625D-04  0.932120D-02  0.189362D-01 -0.193219D-02 -0.260440D-02
     30  0.446375D-02 -0.618494D-02 -0.268220D-01  0.120085D-02  0.159807D-02
     31  0.195492D-03  0.506449D-03  0.501674D-03  0.364474D-03 -0.355688D-03
     32 -0.158987D-03 -0.869327D-03 -0.204890D-02  0.104682D-03  0.577015D-03
     33 -0.932351D-03 -0.396429D-02 -0.513676D-02  0.865338D-03  0.118108D-02
     34 -0.220641D-03  0.178162D-03 -0.232798D-03  0.867063D-04 -0.275388D-03
     35 -0.599176D-03  0.446274D-03  0.846903D-03 -0.181352D-03  0.113143D-03
     36 -0.154778D-04 -0.743529D-03  0.163428D-02 -0.269659D-03  0.193426D-03
     37 -0.190883D-04 -0.178185D-04  0.391546D-03  0.230270D-03  0.803630D-04
     38 -0.688907D-04  0.811960D-04  0.760144D-03  0.321115D-04 -0.165158D-03
     39 -0.667082D-03  0.232914D-03  0.136104D-02  0.207081D-03 -0.594535D-04
     40 -0.241675D-01 -0.143908D-01  0.693289D-02  0.165465D-03  0.791322D-03
     41 -0.266199D-01 -0.758457D-02 -0.341360D-03  0.144411D-03  0.397952D-03
     42  0.213993D-01  0.523706D-02  0.520003D-02  0.105001D-02 -0.148526D-03
     43 -0.103838D-01  0.105475D-02 -0.724913D-02  0.268777D-03  0.506469D-03
     44 -0.341212D-02  0.186431D-02 -0.465598D-02  0.166524D-03  0.364455D-04
     45  0.185004D-02 -0.162667D-02  0.415290D-02 -0.832469D-03 -0.290093D-03
[...]
    Y8       -3.07444   0.00001   0.00000   0.00085   0.00075  -3.07369
    Z8        2.40553   0.00000   0.00000   0.00047   0.00039   2.40592
    X9       -4.91208  -0.00001   0.00000  -0.00068  -0.00065  -4.91273
    Y9       -4.43325   0.00000   0.00000  -0.00049  -0.00051  -4.43376
    Z9        3.01831   0.00000   0.00000  -0.00078  -0.00080   3.01751
   X10       -4.67029  -0.00001   0.00000   0.00010   0.00018  -4.67011
   Y10       -2.01717   0.00000   0.00000   0.00002   0.00001  -2.01716
   Z10       -1.62510   0.00000   0.00000   0.00000  -0.00001  -1.62511
   X11       -3.80405   0.00000   0.00000   0.00046   0.00053  -3.80352
   Y11       -0.71215   0.00000   0.00000  -0.00012  -0.00011  -0.71226
   Z11       -2.96566   0.00000   0.00000   0.00010   0.00010  -2.96556
   X12       -3.59244  -0.00001   0.00000  -0.00030  -0.00019  -3.59263
   Y12       -3.78126   0.00000   0.00000  -0.00022  -0.00020  -3.78147
   Z12       -1.60306   0.00000   0.00000   0.00001   0.00002  -1.60303
   X13       -6.57919  -0.00001   0.00000   0.00006   0.00015  -6.57903
   Y13       -2.41958   0.00001   0.00000   0.00048   0.00042  -2.41916
   Z13       -2.29962   0.00000   0.00000  -0.00017  -0.00022  -2.29984
   X14       -2.18210   0.00000   0.00000   0.00002  -0.00002  -2.18211
   Y14       -0.63595  -0.00001   0.00000   0.00005   0.00010  -0.63585
   Z14        2.02326   0.00000   0.00000   0.00013   0.00017   2.02343
   X15       -0.76032   0.00000   0.00000  -0.00002  -0.00007  -0.76039
   Y15        1.15957  -0.00001   0.00000   0.00018   0.00026   1.15984
   Z15        0.49625   0.00000   0.00000   0.00024   0.00031   0.49656
   X16        0.29546   0.00000   0.00000   0.00003   0.00002   0.29548
   Y16        0.03878  -0.00001   0.00000   0.00022   0.00033   0.03911
   Z16       -0.48718  -0.00001   0.00000   0.00023   0.00032  -0.48686
         Item               Value     Threshold  Converged?
 Maximum Force            0.000012     0.000450     YES
 RMS     Force            0.000005     0.000300     YES
 Maximum Displacement     0.000836     0.001800     YES
 RMS     Displacement     0.000342     0.001200     YES
 Predicted change in Energy=-4.953912D-09
 Optimization completed.
    -- Stationary point found.
 GradGradGradGradGradGradGradGradGradGradGradGradGradGradGradGradGradGrad


 Test job not archived.
 1\1\GINC-NODE23\Freq\UB3LYP\CBSB7\C4H9O3(2)\NYEE\10-Jun-2013\0\\# freq
  nosymm b3lyp/cbsb7 iop(7/33=1)\\Title Card Required\\0,2\C,-3.224315,
 0.874923,0.578731\H,-4.282375,0.92797,0.805866\O,-2.796054,1.892568,-0
 .22016\H,-1.834763,1.799677,-0.306231\C,-2.526135,-0.452745,0.54847\C,
 -3.15693,-1.408314,1.561562\H,-3.156275,-0.959747,2.55597\H,-4.187304,
 -1.626926,1.272952\H,-2.599362,-2.345975,1.59722\C,-2.471411,-1.067439
 ,-0.859968\H,-2.013014,-0.376855,-1.569361\H,-1.901037,-2.000959,-0.84
 8301\H,-3.481555,-1.280388,-1.216908\O,-1.154716,-0.33653,1.070661\O,-
 0.402345,0.61362,0.262604\H,0.156351,0.020524,-0.257803\\Version=AM64L
 -G03RevD.01\HF=-383.4733366\S2=0.753375\S2-1=0.\S2A=0.750008\RMSD=4.21
 5e-09\RMSF=4.757e-06\ZeroPoint=0.1303618\Thermal=0.1391893\Dipole=0.15
 80221,-0.8858984,-0.5518458\DipoleDeriv=0.2182274,0.0471593,-0.2433846
 ,0.1121671,0.4572665,-0.3500453,-0.1678843,-0.4503716,-0.0011595,-0.10
 46906,0.0280258,0.0669138,0.0015678,0.0305688,0.0444644,-0.0095858,0.0
 604521,0.1347098,-0.4266442,-0.1643065,0.1690873,-0.0796633,-0.8783355
 ,0.2268447,0.1397823,0.3996989,-0.528219,0.3548161,-0.011066,0.0018062
 ,-0.0014371,0.3824643,0.0049675,0.0061407,-0.020322,0.2810866,0.598824
 5,-0.00845,0.0722616,-0.0425641,0.3570634,0.1313297,0.1964646,0.085714
 8,0.4302453,-0.0061685,-0.0658492,0.0367058,-0.0446714,0.0267517,0.041
 4776,0.0020593,0.0130114,0.0193209,0.0810749,-0.0037004,-0.0033023,0.0
 009717,0.0369088,-0.0856034,0.0181522,-0.0404556,-0.0854191,-0.0970207
 ,-0.0473569,-0.033199,-0.0266534,0.0575219,0.0118032,-0.0567068,0.0022
 222,0.0406675,0.0247023,0.1086582,-0.0041037,0.0654446,-0.0737499,0.02
 33548,0.0225,-0.0039629,0.0609307,0.0126772,0.0165294,0.0523936,-0.030
 6783,0.0023707,-0.0528524,-0.0227828,-0.0502421,-0.1205523,0.0325635,-
 0.0419133,0.0822551,-0.0580573,-0.0086481,0.0924835,0.0495929,0.051586
 8,-0.0253147,0.0049316,0.1236814,0.0176068,0.0927861,-0.1074401,-0.028
 3654,-0.0070758,-0.0128216,0.0346653,-0.0998115,-0.0422416,-0.0673136,
 -0.019951,0.0616976,-0.0262984,-0.0398848,-0.0138556,0.060184,-0.36733
 48,0.1705416,-0.161591,0.1388847,-0.2507585,-0.0944572,-0.2474964,-0.1
 807875,-0.2403597,-0.5812155,-0.1430734,-0.0290964,-0.1197556,-0.23157
 24,0.0801111,0.0592792,0.1628572,-0.3159618,0.3550682,0.0333616,0.0429
 605,0.0116096,0.1378908,-0.0192143,0.0574454,-0.0027245,0.2551761\Pola
 r=61.1671895,2.6866907,59.8433272,-6.0571438,-3.9474998,54.414867\PG=C
 01 [X(C4H9O3)]\NImag=0\\0.59145951,-0.04161554,0.46302645,-0.17173349,
 -0.16126907,0.24037176,-0.32564902,0.02948426,0.07281067,0.33874085,0.
 02877567,-0.04615831,0.00699384,-0.01975359,0.05363312,0.05127083,0.01
 385261,-0.02768480,-0.07582245,-0.01593918,0.03318887,-0.11443347,-0.0
 6095838,0.07917497,-0.00888635,-0.03220379,0.02366488,0.59693195,-0.02
 865176,-0.21062484,0.13033502,-0.00471332,-0.00303055,0.00093052,0.006
 80721,0.28552235,0.05979616,0.15240006,-0.13648311,0.00223791,0.008626
 59,-0.00663159,-0.11148128,-0.17140578,0.16040317,-0.01937367,-0.00388
 669,0.00646860,0.00213006,-0.00072553,0.00057405,-0.47093396,0.0351440
 6,0.04764829,0.48791010,-0.03751218,-0.00029457,0.00923930,-0.00085850
 ,-0.00332475,0.00414237,0.07164132,-0.04101940,0.00741773,-0.02937099,
 0.04738789,0.03176827,0.00010797,-0.00674360,0.00172704,0.00470430,-0.
 00006444,0.02098530,0.01402422,-0.02489630,-0.05437434,-0.01934205,0.0
 3627811,-0.10068943,0.04993745,0.00111948,-0.00470810,0.02183474,0.006
 54817,0.00121153,-0.02241422,0.01150052,0.00870149,-0.00502359,-0.0010
 4132,0.37787412,0.05464470,-0.16531832,0.01546949,-0.00733233,0.002142
 69,-0.00408033,0.00608401,-0.02593607,-0.00160163,-0.00040568,0.000020
 41,0.00226492,-0.01863508,0.49326093,0.03097192,-0.00835140,-0.0652499
 9,0.00040508,-0.00393599,0.00317161,-0.01023570,0.02615379,0.00055820,
 0.00091648,-0.00090379,0.00076620,-0.04557939,-0.05143167,0.46917473,0
 .01058469,0.00295536,-0.00853436,0.00007094,0.00093352,-0.00050232,-0.
 00043513,0.00638666,-0.00112374,-0.00175649,0.00021399,-0.00013696,-0.
 08723740,-0.01662205,0.02421034,0.55875727,-0.01343762,-0.02549469,0.0
 2117047,-0.00085932,0.00110666,0.00032929,0.00170905,-0.00548233,0.001
 21587,0.00108599,0.00007432,-0.00036018,-0.02102632,-0.11743563,0.0449
 1230,-0.03018653,0.53515137,-0.00034721,0.00658491,-0.00222492,0.00027
 632,-0.00046578,0.00050338,0.00008991,-0.00213536,0.00138917,-0.000363
 72,0.00032128,-0.00036932,0.02707824,0.04367024,-0.12511666,0.03162693
 ,0.05075360,0.52570238,0.00043556,0.00066935,-0.00052997,-0.00012730,-
 0.00000881,-0.00018526,-0.00027973,-0.00003917,-0.00000207,0.00015392,
 -0.00004087,0.00009771,-0.00135061,0.00595581,0.01280815,-0.04706252,-
 0.00011290,-0.00244999,0.04666894,-0.00052491,-0.00013278,0.00059736,0
 .00033499,0.00009905,0.00008747,0.00032240,0.00047032,-0.00048926,-0.0
 0007644,0.00010548,0.00010482,0.00042387,0.00972137,0.02037104,0.00002
 237,-0.09553100,-0.10361602,0.00146854,0.10044526,0.00036470,-0.000836
 81,0.00035994,-0.00040069,0.00024634,-0.00037811,-0.00035052,-0.000044
 32,0.00092204,0.00006500,-0.00022220,-0.00014543,-0.00042112,-0.009397
 78,-0.02078073,-0.00070157,-0.10046898,-0.26651309,0.00004697,0.109517
 36,0.29116117,-0.00034294,0.00100388,0.00012351,0.00062417,-0.00026751
 ,-0.00022787,0.00063329,-0.00015115,0.00010415,-0.00028359,0.00028329,
 -0.00012143,-0.01287609,-0.00098649,-0.00538716,-0.28154077,-0.0496965
 0,-0.06691925,0.00164559,0.00052787,0.00014500,0.30587163,-0.00058723,
 0.00020651,0.00021057,0.00037408,-0.00056081,0.00009272,0.00054278,0.0
 0014946,-0.00024615,-0.00027973,0.00023381,-0.00013897,-0.01935954,-0.
 00414447,-0.00756852,-0.04860052,-0.05543530,-0.01355474,-0.01276155,-
 0.00317013,-0.00258608,0.05497597,0.05790625,-0.00030204,-0.00006897,0
 .00039951,0.00003779,0.00008562,0.00016652,-0.00006482,-0.00034603,0.0
 0003964,0.00024336,-0.00012597,0.00004908,0.02111481,0.00278779,0.0058
 5343,-0.06901440,-0.01433902,-0.06526732,-0.02820581,-0.00429126,-0.00
 618273,0.07387327,0.01320487,0.06904531,-0.00205282,-0.00058662,0.0014
 2063,0.00026972,-0.00031454,0.00007639,0.00059625,-0.00116486,0.000256
 63,0.00025193,0.00010567,-0.00001683,0.00681218,-0.01343062,0.00056239
 ,-0.11734689,0.11958351,-0.00355814,0.00000912,-0.00164297,0.00021255,
 -0.01427465,0.02646382,0.00005904,0.12461524,-0.00341688,-0.00007111,0
 .00255130,0.00003263,0.00014071,-0.00015381,0.00025689,-0.00170829,0.0
 0073380,0.00060282,-0.00001423,-0.00006355,0.01101322,-0.01998101,0.00
 037983,0.11725788,-0.24037691,0.00580826,0.00636282,-0.01044462,0.0008
 1860,-0.00371639,0.00731521,-0.00017230,-0.12872620,0.26204412,0.00295
 085,0.00076250,-0.00239768,-0.00018882,-0.00004760,-0.00030694,-0.0001
 8895,0.00194100,0.00012338,-0.00032922,-0.00007012,0.00007154,-0.01295
 211,0.02002957,-0.00154153,-0.00191790,0.00420941,-0.04819877,0.016193
 93,-0.02477866,0.00262090,-0.00412478,0.00783483,-0.00117789,0.0018876
 1,-0.00850744,0.04949997,-0.00004773,0.01000291,0.01498224,-0.00035427
 ,-0.00038772,-0.00052232,0.00108188,0.00133168,-0.00199010,-0.00155930
 ,0.00065696,-0.00026022,-0.06868251,0.00292876,0.02004776,0.00098078,0
 .00579278,0.01471195,-0.00130157,-0.00168917,0.00222750,0.00015534,0.0
 0040215,0.00003911,0.00024527,0.00025985,-0.00103557,0.57509153,0.0093
 6517,-0.01761572,-0.02869656,0.00023953,-0.00089730,0.00015583,-0.0010
 6426,0.00051410,0.00296865,0.00056995,-0.00125825,-0.00081213,0.002147
 50,-0.09274327,-0.03263220,0.00001576,0.00932120,0.01893621,-0.0019321
 9,-0.00260440,0.00422125,0.00035525,0.00040264,-0.00041766,-0.00017973
 ,0.00061539,0.00068371,0.00066936,0.54985038,0.00480764,-0.01160711,-0
 .00074603,-0.00054599,0.00026438,-0.00048751,0.00112713,0.00181688,-0.
 00167383,-0.00081000,0.00040776,0.00087266,0.00756113,-0.02208372,-0.1
 4464970,0.00446375,-0.00618494,-0.02682204,0.00120085,0.00159807,-0.00
 189470,-0.00078505,-0.00086803,0.00064379,-0.00077281,-0.00138773,0.00
 108069,0.00562353,-0.05210902,0.46599521,-0.00065819,-0.00114258,0.001
 24478,0.00004171,0.00010446,0.00004983,0.00026811,0.00014088,-0.001645
 03,0.00074642,0.00005365,0.00043159,-0.00123523,-0.00001056,0.00002845
 ,0.00019549,0.00050645,0.00050167,0.00036447,-0.00035569,0.00012638,0.
 00038264,0.00016590,-0.00020849,0.00000121,-0.00025042,0.00012175,-0.0
 9341003,-0.06978746,0.07254623,0.09933291,0.00039676,0.00078443,0.0003
 1827,-0.00004523,-0.00001775,0.00002102,-0.00000505,-0.00041457,-0.000
 11533,-0.00037852,-0.00075911,-0.00071257,0.00682428,0.00989790,-0.008
 33411,-0.00015899,-0.00086933,-0.00204890,0.00010468,0.00057701,-0.000
 70157,0.00003584,-0.00015058,-0.00003052,-0.00012216,0.00019801,-0.000
 30815,-0.07119753,-0.15648879,0.11032691,0.07950471,0.16815018,-0.0000
 4119,0.00242306,-0.00023048,-0.00011273,-0.00002990,0.00002225,-0.0011
 4233,-0.00057422,0.00198542,0.00002004,-0.00135053,-0.00076973,0.01379
 220,0.02036126,-0.01924158,-0.00093235,-0.00396429,-0.00513676,0.00086
 534,0.00118108,-0.00126312,0.00003388,-0.00015116,0.00034013,-0.000130
 05,-0.00012371,0.00021684,0.07223416,0.10840983,-0.15547156,-0.0797994
 3,-0.11878628,0.16968315,0.00088427,-0.00015895,0.00210702,-0.00002499
 ,-0.00023890,-0.00027773,0.00046308,0.00007304,-0.00115670,-0.00012105
 ,0.00020312,0.00028617,-0.00230977,0.00084696,-0.00095329,-0.00022064,
 0.00017816,-0.00023280,0.00008671,-0.00027539,-0.00003668,-0.00003744,
 0.00013541,0.00005985,0.00023092,-0.00021929,0.00045651,-0.11808810,0.
 11483888,-0.00248442,0.00821966,-0.01263182,-0.00073419,0.12416804,0.0
 0018896,-0.00048992,-0.00371131,0.00012761,-0.00019768,-0.00001415,-0.
 00011732,0.00021588,0.00037260,0.00061731,0.00013280,0.00024926,0.0077
 7770,-0.01262523,0.00035446,-0.00059918,0.00044627,0.00084690,-0.00018
 135,0.00011314,-0.00002759,-0.00009835,-0.00000014,0.00001151,0.000085
 71,0.00075474,-0.00032827,0.11412313,-0.23467811,0.00646734,0.01082374
 ,-0.01600010,-0.00046644,-0.12733443,0.25450614,0.00113597,-0.00076216
 ,-0.00678154,0.00018010,-0.00026449,0.00017991,-0.00099097,-0.00065251
 ,0.00268207,0.00042304,-0.00042803,-0.00049099,0.01676677,-0.02756206,
 -0.00162607,-0.00001548,-0.00074353,0.00163428,-0.00026966,0.00019343,
 0.00028448,-0.00000640,0.00006323,-0.00008439,0.00001015,0.00064223,-0
 .00053579,-0.00386749,0.00683138,-0.04658856,-0.01241056,0.01627740,-0
 .00021465,0.00312977,-0.00487022,0.04960216,0.00042077,0.00050160,0.00
 042218,0.00017602,-0.00009855,-0.00010081,0.00017163,-0.00027856,-0.00
 006612,-0.00020281,0.00024802,0.00005586,0.00029416,0.00086709,0.00093
 784,-0.00001909,-0.00001782,0.00039155,0.00023027,0.00008036,-0.000061
 60,0.00057695,0.00012515,0.00006566,-0.00001397,-0.00010252,-0.0000026
 0,-0.27467416,-0.04727998,-0.07880507,-0.01233391,-0.00198432,-0.00410
 207,-0.01403854,-0.00371129,-0.00432820,0.29728034,0.00018199,0.000180
 62,0.00005588,0.00016306,-0.00028867,-0.00021512,0.00038041,-0.0002249
 3,-0.00011729,-0.00031977,0.00046138,0.00013320,-0.01137350,-0.0035242
 0,-0.00165161,-0.00006889,0.00008120,0.00076014,0.00003211,-0.00016516
 ,0.00002856,0.00008431,0.00036486,0.00013082,0.00014801,0.00006060,0.0
 0003473,-0.04614921,-0.05595775,-0.01727932,-0.01942737,-0.00419644,-0
 .00731314,0.02571505,0.00681478,0.00914362,0.05201155,0.05678754,0.000
 24390,0.00074048,0.00156775,0.00022936,-0.00049314,-0.00020355,0.00029
 508,0.00016366,-0.00076245,-0.00027787,0.00020371,-0.00005848,-0.02689
 185,-0.00413991,-0.00646810,-0.00066708,0.00023291,0.00136104,0.000207
 08,-0.00005945,0.00035800,0.00062430,0.00026904,-0.00064639,0.00000111
 ,0.00000029,-0.00014192,-0.07688307,-0.01740241,-0.07193817,0.02015074
 ,0.00332414,0.00734176,-0.00005463,0.00031051,-0.00089238,0.08541249,0
 .01940807,0.07843909,-0.04484054,0.01112168,0.00322690,-0.00271062,0.0
 0332172,-0.00510575,0.00461745,0.00035298,-0.00242140,-0.00054980,0.00
 168480,-0.00073984,-0.09579638,0.01777283,-0.06385060,-0.02416752,-0.0
 1439079,0.00693289,0.00016546,0.00079132,-0.00097630,0.00011161,0.0006
 6810,-0.00027389,0.00021653,0.00086877,-0.00062866,-0.02131948,-0.0087
 6301,-0.01265619,-0.00008287,0.00053142,0.00148510,0.00098269,-0.00064
 243,0.00037113,0.00145884,-0.00166698,-0.00326233,0.28125443,0.0317408
 3,0.00652987,0.00569127,0.00281934,-0.00333291,0.00106782,-0.00353832,
 -0.00019594,0.00103617,-0.00095313,-0.00291933,0.00147449,0.00692736,-
 0.06019909,0.01599557,-0.02661989,-0.00758457,-0.00034136,0.00014441,0
 .00039795,-0.00084734,-0.00175090,-0.00273065,0.00165479,-0.00083871,0
 .00047858,-0.00096276,-0.01635179,-0.00000463,-0.00889333,0.00017718,0
 .00005087,0.00097313,-0.00105516,0.00190983,0.00212629,-0.00085058,-0.
 00036908,-0.00327296,0.05409394,0.16679823,-0.01174779,0.00306167,0.00
 719655,-0.00065721,0.00066441,-0.00136094,0.00326254,0.00028040,-0.001
 50049,-0.00128469,0.00290441,-0.00212880,-0.02184305,0.01795600,-0.095
 21318,0.02139934,0.00523706,0.00520003,0.00105001,-0.00014853,0.000789
 26,0.00258753,0.00260180,-0.00293107,0.00047345,-0.00018078,0.00071725
 ,-0.04355926,-0.00818061,-0.01732916,0.00050157,0.00186538,0.00058790,
 -0.00003402,0.00107226,0.00286515,0.00062002,-0.00247010,-0.00889913,0
 .00306994,-0.10275680,0.22426379,0.00393074,0.00240830,-0.00204832,0.0
 0031569,-0.00088466,0.00040803,-0.01036889,0.00719537,-0.00120400,-0.0
 0484691,-0.00263478,0.00030343,-0.01659620,-0.03217978,0.03082094,-0.0
 1038384,0.00105475,-0.00724913,0.00026878,0.00050647,-0.00001762,-0.00
 061186,-0.00205634,0.00254487,0.00044516,-0.00012617,-0.00032713,0.001
 52994,0.00130421,-0.00131526,-0.00115873,-0.00126097,-0.00011083,-0.00
 008860,-0.00073178,0.00000083,0.00016041,-0.00000862,0.00121177,-0.086
 77953,-0.04797512,0.03624747,0.29074275,0.00112850,-0.00356745,0.00054
 826,0.00002257,0.00053637,-0.00018647,0.00898349,0.00127809,-0.0009822
 1,-0.00057016,0.00078029,0.00048153,-0.01022423,-0.01222189,0.00139304
 ,-0.00341212,0.00186431,-0.00465598,0.00016652,0.00003645,0.00047493,-
 0.00035186,0.00004764,0.00171292,0.00052384,0.00102196,-0.00049585,-0.
 00036682,0.00055680,0.00015681,-0.00024180,-0.00066260,-0.00034084,0.0
 0007767,-0.00016844,0.00008686,0.00023688,0.00026433,0.00070267,-0.034
 36896,-0.10813963,0.05321972,-0.11891418,0.36175691,0.00060984,0.00285
 559,-0.00077570,-0.00008358,-0.00048013,-0.00019530,-0.00164803,-0.001
 15209,0.00437137,-0.00087601,-0.00083324,-0.00430799,0.00362692,-0.002
 96738,0.00019199,0.00185004,-0.00162667,0.00415290,-0.00083247,-0.0002
 9009,0.00065770,0.00021194,0.00075481,-0.00036834,-0.00052367,-0.00044
 845,-0.00006860,-0.00186706,-0.00123361,-0.00189133,-0.00093726,-0.001
 38663,0.00278348,-0.00006466,0.00000920,0.00002633,-0.00075251,-0.0008
 1418,0.00113220,0.05897168,0.08860562,-0.09603988,-0.21027422,0.092757
 35,0.23237992,0.00037226,0.00026396,-0.00025485,0.00009149,-0.00008651
 ,0.00015233,-0.00063764,-0.00001883,-0.00045322,-0.00026635,0.00035010
 ,0.00103558,-0.00341177,0.00050243,0.00429679,-0.00041889,-0.00018291,
 -0.00048923,0.00009289,0.00008638,-0.00022199,-0.00003390,-0.00020843,
 0.00003168,-0.00000522,-0.00009703,0.00008510,0.00035240,-0.00049901,0
 .00084453,-0.00067368,0.00038691,-0.00132555,-0.00010625,-0.00032802,-
 0.00012902,0.00051309,0.00029786,-0.00033899,-0.01256028,0.00403052,0.
 00991416,-0.16655890,0.15731066,0.15258903,0.18325073,-0.00067645,-0.0
 0096016,0.00049590,-0.00003577,0.00015013,-0.00009061,0.00115955,0.000
 48672,0.00018617,-0.00105349,0.00039325,-0.00211526,0.00117036,-0.0009
 1412,0.00524927,-0.00151737,0.00016441,-0.00086341,0.00017258,0.000082
 05,-0.00017436,-0.00024727,-0.00043430,0.00020342,0.00009584,-0.000033
 15,0.00000309,-0.00002536,0.00098770,-0.00062495,-0.00026110,-0.000099
 15,-0.00024785,-0.00015435,-0.00073394,-0.00008142,0.00025298,-0.00028
 908,0.00001238,-0.03137539,0.00931051,0.02487369,0.19430330,-0.2433831
 4,-0.17375010,-0.16180807,0.23527229,0.00025164,0.00010666,-0.00057766
 ,-0.00009283,0.00007071,0.00008064,-0.00249721,0.00066482,-0.00052669,
 0.00195699,-0.00136063,0.00193748,-0.00037941,0.00072519,0.00017138,-0
 .00000425,-0.00037332,-0.00029431,0.00000519,0.00002264,0.00000443,-0.
 00013163,0.00008179,0.00012072,0.00004155,0.00010346,0.00003856,0.0001
 1886,-0.00072265,0.00090023,-0.00070221,0.00029093,-0.00063306,-0.0000
 1020,-0.00027606,-0.00006002,0.00031336,0.00016575,-0.00018929,0.01585
 731,-0.00155060,-0.01621728,0.15100917,-0.14487274,-0.14204875,-0.1657
 3634,0.14692404,0.15729360\\-0.00000540,-0.00000261,-0.00000045,-0.000
 00685,-0.00000807,-0.00000608,-0.00000863,-0.00000302,-0.00000373,-0.0
 0000903,0.00000220,-0.00000054,-0.00000028,0.00000025,-0.00000106,0.00
 000203,-0.00000245,-0.00000079,-0.00000209,-0.00000090,-0.00000057,0.0
 0000357,-0.00000704,-0.00000261,0.00000612,0.00000079,0.00000164,0.000
 00614,-0.00000067,0.00000063,0.00000413,-0.00000004,0.00000107,0.00001
 015,0.00000084,0.00000269,0.00000716,-0.00000626,-0.00000147,-0.000002
 19,0.00000644,0.00000290,-0.00000445,0.00000900,0.00000255,-0.00000039
 ,0.00001154,0.00000581\\\@


 THE SOLUTION TO A PROBLEM CHANGES THE PROBLEM.

                                 -- JOHN PEERS
           PAUL DICKSON'S "THE OFFICIAL RULES"
 Job cpu time:  0 days  1 hours  8 minutes 39.5 seconds.
 File lengths (MBytes):  RWF=    125 Int=      0 D2E=      0 Chk=      8 Scr=      1
 Normal termination of Gaussian 03 at Mon Jun 10 09:56:08 2013.
