 Entering Gaussian System, Link 0=g03
 Input=p07freq.gjf
 Output=p07freq.log
 Initial command:
 /opt/g03/l1.exe /scratch/nyee/Gau-10754.inp -scrdir=/scratch/nyee/
 Entering Link 1 = /opt/g03/l1.exe PID=     10756.
  
 Copyright (c) 1988,1990,1992,1993,1995,1998,2003,2004, Gaussian, Inc.
                  All Rights Reserved.
  
 This is the Gaussian(R) 03 program.  It is based on the
 the Gaussian(R) 98 system (copyright 1998, Gaussian, Inc.),
 the Gaussian(R) 94 system (copyright 1995, Gaussian, Inc.),
 the Gaussian 92(TM) system (copyright 1992, Gaussian, Inc.),
 the Gaussian 90(TM) system (copyright 1990, Gaussian, Inc.),
 the Gaussian 88(TM) system (copyright 1988, Gaussian, Inc.),
 the Gaussian 86(TM) system (copyright 1986, Carnegie Mellon
 University), and the Gaussian 82(TM) system (copyright 1983,
 Carnegie Mellon University). Gaussian is a federally registered
 trademark of Gaussian, Inc.
  
 This software contains proprietary and confidential information,
 including trade secrets, belonging to Gaussian, Inc.
  
 This software is provided under written license and may be
 used, copied, transmitted, or stored only in accord with that
 written license.
  
 The following legend is applicable only to US Government
 contracts under FAR:
  
                    RESTRICTED RIGHTS LEGEND
  
 Use, reproduction and disclosure by the US Government is
 subject to restrictions as set forth in subparagraphs (a)
 and (c) of the Commercial Computer Software - Restricted
 Rights clause in FAR 52.227-19.
  
 Gaussian, Inc.
 340 Quinnipiac St., Bldg. 40, Wallingford CT 06492
  
  
 ---------------------------------------------------------------
 Warning -- This program may not be used in any manner that
 competes with the business of Gaussian, Inc. or will provide
 assistance to any competitor of Gaussian, Inc.  The licensee
 of this program is prohibited from giving any competitor of
 Gaussian, Inc. access to this program.  By using this program,
 the user acknowledges that Gaussian, Inc. is engaged in the
 business of creating and licensing software in the field of
 computational chemistry and represents and warrants to the
 licensee that it is not a competitor of Gaussian, Inc. and that
 it will not use this program in any manner prohibited above.
 ---------------------------------------------------------------
  

 Cite this work as:
 Gaussian 03, Revision D.01,
 M. J. Frisch, G. W. Trucks, H. B. Schlegel, G. E. Scuseria, 
 M. A. Robb, J. R. Cheeseman, J. A. Montgomery, Jr., T. Vreven, 
 K. N. Kudin, J. C. Burant, J. M. Millam, S. S. Iyengar, J. Tomasi, 
 V. Barone, B. Mennucci, M. Cossi, G. Scalmani, N. Rega, 
 G. A. Petersson, H. Nakatsuji, M. Hada, M. Ehara, K. Toyota, 
 R. Fukuda, J. Hasegawa, M. Ishida, T. Nakajima, Y. Honda, O. Kitao, 
 H. Nakai, M. Klene, X. Li, J. E. Knox, H. P. Hratchian, J. B. Cross, 
 V. Bakken, C. Adamo, J. Jaramillo, R. Gomperts, R. E. Stratmann, 
 O. Yazyev, A. J. Austin, R. Cammi, C. Pomelli, J. W. Ochterski, 
 P. Y. Ayala, K. Morokuma, G. A. Voth, P. Salvador, J. J. Dannenberg, 
 V. G. Zakrzewski, S. Dapprich, A. D. Daniels, M. C. Strain, 
 O. Farkas, D. K. Malick, A. D. Rabuck, K. Raghavachari, 
 J. B. Foresman, J. V. Ortiz, Q. Cui, A. G. Baboul, S. Clifford, 
 J. Cioslowski, B. B. Stefanov, G. Liu, A. Liashenko, P. Piskorz, 
 I. Komaromi, R. L. Martin, D. J. Fox, T. Keith, M. A. Al-Laham, 
 C. Y. Peng, A. Nanayakkara, M. Challacombe, P. M. W. Gill, 
 B. Johnson, W. Chen, M. W. Wong, C. Gonzalez, and J. A. Pople, 
 Gaussian, Inc., Wallingford CT, 2004.
 
 ******************************************
 Gaussian 03:  AM64L-G03RevD.01 13-Oct-2005
                15-Jul-2014 
 ******************************************
 %chk=p07freq.chk
 %mem=1000mb
 %nproc=8
 Will use up to    8 processors via shared memory.
 -------------------------------------
 # freq nosymm b3lyp/cbsb7 iop(7/33=1)
 -------------------------------------
 1/10=4,30=1,38=1/1,3;
 2/15=1,17=6,18=5,40=1/2;
 3/5=4,6=6,7=700,11=2,16=1,25=1,30=1,74=-5/1,2,3;
 4//1;
 5/5=2,38=5/2;
 8/6=4,10=90,11=11/1;
 11/6=1,8=1,9=11,15=111,16=1,31=1/1,2,10;
 10/6=1,31=1/2;
 6/7=2,8=2,9=2,10=2,18=1,28=1/1;
 7/8=1,10=1,25=1,30=1,33=1/1,2,3,16;
 1/10=4,30=1/3;
 99//99;
 -------------------
 Title Card Required
 -------------------
 Symbolic Z-matrix:
 Charge =  0 Multiplicity = 1
 C                    -0.42517  -0.94287  -0.00046 
 H                     0.03962  -0.50161  -0.89612 
 C                     0.04234  -0.18708   1.24218 
 H                     1.12915  -0.24358   1.34227 
 H                    -0.2485    0.86382   1.19634 
 H                    -0.4076   -0.61012   2.14391 
 C                    -0.0458   -2.43559   0.02004 
 H                    -0.47026  -2.93259   0.89724 
 H                    -0.40603  -2.9565   -0.87186 
 H                     1.03938  -2.5532    0.05939 
 C                    -1.91873  -0.80332  -0.23034 
 H                    -2.29766  -1.3558   -1.12157 
 O                    -2.67337  -0.16752   0.45961 
 

 GradGradGradGradGradGradGradGradGradGradGradGradGradGradGradGradGradGrad
 Berny optimization.
 Initialization pass.
 Trust Radius=3.00D-01 FncErr=1.00D-07 GrdErr=1.00D-07
 Number of steps in this run=   2 maximum allowed number of steps=   2.
 GradGradGradGradGradGradGradGradGradGradGradGradGradGradGradGradGradGrad

                          Input orientation:                          
 ---------------------------------------------------------------------
 Center     Atomic     Atomic              Coordinates (Angstroms)
 Number     Number      Type              X           Y           Z
 ---------------------------------------------------------------------
    1          6             0       -0.425171   -0.942873   -0.000464
    2          1             0        0.039618   -0.501613   -0.896118
    3          6             0        0.042342   -0.187084    1.242182
    4          1             0        1.129150   -0.243584    1.342269
    5          1             0       -0.248500    0.863816    1.196345
    6          1             0       -0.407604   -0.610121    2.143905
    7          6             0       -0.045799   -2.435589    0.020042
    8          1             0       -0.470260   -2.932589    0.897242
    9          1             0       -0.406030   -2.956495   -0.871863
   10          1             0        1.039378   -2.553202    0.059388
   11          6             0       -1.918733   -0.803318   -0.230340
   12          1             0       -2.297658   -1.355800   -1.121574
   13          8             0       -2.673372   -0.167520    0.459607
 ---------------------------------------------------------------------
                    Distance matrix (angstroms):
                    1          2          3          4          5
     1  C    0.000000
     2  H    1.101333   0.000000
     3  C    1.527729   2.161310   0.000000
     4  H    2.169758   2.502805   1.092868   0.000000
     5  H    2.174325   2.515116   1.091367   1.773569   0.000000
     6  H    2.170104   3.074658   1.092939   1.771605   1.759453
     7  C    1.540307   2.141707   2.560697   2.816678   3.508682
     8  H    2.183318   3.063619   2.814168   3.160207   3.814621
     9  H    2.194169   2.495122   3.512814   3.823486   4.347077
    10  H    2.177532   2.474172   2.826941   2.643516   3.824567
    11  C    1.517579   2.090317   2.528612   3.475053   2.757616
    12  H    2.221172   2.498665   3.525456   4.364695   3.807689
    13  O    2.422240   3.051217   2.826289   3.904363   2.736136
                    6          7          8          9         10
     6  H    0.000000
     7  C    2.823833   0.000000
     8  H    2.636655   1.093918   0.000000
     9  H    3.821038   1.093894   1.770432   0.000000
    10  H    3.196018   1.092241   1.767750   1.766091   0.000000
    11  C    2.820971   2.496974   2.811283   2.708504   3.449124
    12  H    3.845997   2.745924   3.146628   2.490549   3.736877
    13  O    2.857702   3.498785   3.562420   3.833019   4.431271
                   11         12         13
    11  C    0.000000
    12  H    1.114952   0.000000
    13  O    1.204054   2.013282   0.000000
 Symmetry turned off by external request.
 Stoichiometry    C4H8O
 Framework group  C1[X(C4H8O)]
 Deg. of freedom    33
 Full point group                 C1
 Rotational constants (GHZ):      7.4808621      4.0758876      2.9538411
 Standard basis: CBSB7 (5D, 7F)
 Integral buffers will be    131072 words long.
 Raffenetti 2 integral format.
 Two-electron integral symmetry is turned off.
   138 basis functions,   224 primitive gaussians,   143 cartesian basis functions
    20 alpha electrons       20 beta electrons
       nuclear repulsion energy       176.7935161587 Hartrees.
 NAtoms=   13 NActive=   13 NUniq=   13 SFac= 7.50D-01 NAtFMM=   80 NAOKFM=F Big=F
 One-electron integrals computed using PRISM.
 NBasis=   138 RedAO= T  NBF=   138
 NBsUse=   138 1.00D-06 NBFU=   138
 Harris functional with IExCor=  402 diagonalized for initial guess.
 ExpMin= 1.03D-01 ExpMax= 8.59D+03 ExpMxC= 1.30D+03 IAcc=1 IRadAn=         1 AccDes= 1.00D-06
 HarFok:  IExCor= 402 AccDes= 1.00D-06 IRadAn=         1 IDoV=1
 ScaDFX=  1.000000  1.000000  1.000000  1.000000
 Requested convergence on RMS density matrix=1.00D-08 within 128 cycles.
 Requested convergence on MAX density matrix=1.00D-06.
 Requested convergence on             energy=1.00D-06.
 No special actions if energy rises.
 Keep R1 integrals in memory in canonical form, NReq=    55521375.
 Integral accuracy reduced to 1.0D-05 until final iterations.
 Initial convergence to 1.0D-05 achieved.  Increase integral accuracy.
 SCF Done:  E(RB+HF-LYP) =  -232.527238829     A.U. after   13 cycles
             Convg  =    0.5800D-08             -V/T =  2.0042
             S**2   =   0.0000
 Range of M.O.s used for correlation:     1   138
 NBasis=   138 NAE=    20 NBE=    20 NFC=     0 NFV=     0
 NROrb=    138 NOA=    20 NOB=    20 NVA=   118 NVB=   118
 Symmetrizing basis deriv contribution to polar:
 IMax=3 JMax=2 DiffMx= 0.00D+00
 G2DrvN: will do   14 centers at a time, making    1 passes doing MaxLOS=2.
 FoFDir/FoFCou used for L=0 through L=2.
 DoAtom=TTTTTTTTTTTTT
          Differentiating once with respect to electric field.
                with respect to dipole field.
          Differentiating once with respect to nuclear coordinates.
          Store integrals in memory, NReq=    53832881.
          There are  42 degrees of freedom in the 1st order CPHF.
    39 vectors were produced by pass  0.
 AX will form  39 AO Fock derivatives at one time.
    39 vectors were produced by pass  1.
    39 vectors were produced by pass  2.
    39 vectors were produced by pass  3.
    39 vectors were produced by pass  4.
    20 vectors were produced by pass  5.
     3 vectors were produced by pass  6.
     1 vectors were produced by pass  7.
 Inv2:  IOpt= 1 Iter= 1 AM= 2.26D-15 Conv= 1.00D-12.
 Inverted reduced A of dimension  219 with in-core refinement.
 Isotropic polarizability for W=    0.000000       48.29 Bohr**3.
 End of Minotr Frequency-dependent properties file   721 does not exist.

 **********************************************************************

            Population analysis using the SCF density.

 **********************************************************************

 Alpha  occ. eigenvalues --  -19.12051 -10.25918 -10.19311 -10.17778 -10.16422
 Alpha  occ. eigenvalues --   -1.05522  -0.81366  -0.69965  -0.65355  -0.55369
 Alpha  occ. eigenvalues --   -0.49737  -0.46072  -0.45482  -0.41355  -0.39894
 Alpha  occ. eigenvalues --   -0.38668  -0.37890  -0.35649  -0.34833  -0.25787
 Alpha virt. eigenvalues --   -0.02987   0.03888   0.06901   0.07511   0.09257
 Alpha virt. eigenvalues --    0.10095   0.11074   0.13900   0.14357   0.18406
 Alpha virt. eigenvalues --    0.20215   0.24879   0.25299   0.27484   0.28547
 Alpha virt. eigenvalues --    0.32498   0.36673   0.39288   0.41612   0.44405
 Alpha virt. eigenvalues --    0.47733   0.51563   0.53432   0.55767   0.56193
 Alpha virt. eigenvalues --    0.57112   0.57597   0.58406   0.60471   0.62121
 Alpha virt. eigenvalues --    0.62466   0.63173   0.65843   0.67112   0.76244
 Alpha virt. eigenvalues --    0.79239   0.85672   0.92662   0.95189   0.95712
 Alpha virt. eigenvalues --    1.04848   1.07804   1.15408   1.20601   1.29395
 Alpha virt. eigenvalues --    1.32421   1.35711   1.39811   1.44749   1.45916
 Alpha virt. eigenvalues --    1.46828   1.47980   1.49007   1.49920   1.51042
 Alpha virt. eigenvalues --    1.54421   1.57333   1.59588   1.60823   1.65226
 Alpha virt. eigenvalues --    1.69540   1.71431   1.74530   1.77027   1.81453
 Alpha virt. eigenvalues --    1.84608   1.88614   1.95542   1.98997   2.03689
 Alpha virt. eigenvalues --    2.07520   2.08181   2.16540   2.21653   2.27965
 Alpha virt. eigenvalues --    2.30006   2.33697   2.38743   2.41918   2.45543
 Alpha virt. eigenvalues --    2.46653   2.47025   2.48196   2.50741   2.54734
 Alpha virt. eigenvalues --    2.56265   2.57897   2.62025   2.62802   2.70560
 Alpha virt. eigenvalues --    2.75143   2.76994   2.80738   2.86857   2.89770
 Alpha virt. eigenvalues --    2.92624   2.97885   3.08904   3.32673   3.35874
 Alpha virt. eigenvalues --    3.44168   3.49863   3.75186   3.76284   3.79856
 Alpha virt. eigenvalues --    3.80600   3.82059   3.92620   4.20941   4.31530
 Alpha virt. eigenvalues --    4.89185   5.02870   5.57579  23.79956  23.81834
 Alpha virt. eigenvalues --   23.90926  23.93044  49.94438
          Condensed to atoms (all electrons):
              1          2          3          4          5          6
     1  C    5.481541   0.382249   0.291987  -0.035202  -0.033919  -0.039916
     2  H    0.382249   0.597549  -0.034068  -0.006976  -0.005400   0.009048
     3  C    0.291987  -0.034068   4.863635   0.404007   0.404647   0.407587
     4  H   -0.035202  -0.006976   0.404007   0.585830  -0.027237  -0.030419
     5  H   -0.033919  -0.005400   0.404647  -0.027237   0.558795  -0.026820
     6  H   -0.039916   0.009048   0.407587  -0.030419  -0.026820   0.570133
     7  C    0.335716  -0.040393  -0.063301  -0.005008   0.008034  -0.006378
     8  H   -0.042630   0.009427  -0.005080  -0.000803  -0.000153   0.005689
     9  H   -0.036211  -0.004485   0.008173  -0.000017  -0.000412  -0.000006
    10  H   -0.025900  -0.009694  -0.004017   0.003343  -0.000145  -0.000970
    11  C    0.239706  -0.032705  -0.048938   0.008117  -0.004933  -0.006140
    12  H   -0.140897   0.002229   0.012348  -0.000304   0.001023   0.000649
    13  O   -0.117889   0.001917   0.020555   0.000255   0.007642   0.005351
              7          8          9         10         11         12
     1  C    0.335716  -0.042630  -0.036211  -0.025900   0.239706  -0.140897
     2  H   -0.040393   0.009427  -0.004485  -0.009694  -0.032705   0.002229
     3  C   -0.063301  -0.005080   0.008173  -0.004017  -0.048938   0.012348
     4  H   -0.005008  -0.000803  -0.000017   0.003343   0.008117  -0.000304
     5  H    0.008034  -0.000153  -0.000412  -0.000145  -0.004933   0.001023
     6  H   -0.006378   0.005689  -0.000006  -0.000970  -0.006140   0.000649
     7  C    4.906266   0.403687   0.398678   0.403416  -0.055134   0.001099
     8  H    0.403687   0.573249  -0.028855  -0.029381  -0.003707   0.000248
     9  H    0.398678  -0.028855   0.575554  -0.026428  -0.003765   0.007085
    10  H    0.403416  -0.029381  -0.026428   0.566165   0.005341  -0.001024
    11  C   -0.055134  -0.003707  -0.003765   0.005341   4.660693   0.407258
    12  H    0.001099   0.000248   0.007085  -0.001024   0.407258   0.688970
    13  O    0.002332   0.000973   0.000031  -0.000251   0.636805  -0.048474
             13
     1  C   -0.117889
     2  H    0.001917
     3  C    0.020555
     4  H    0.000255
     5  H    0.007642
     6  H    0.005351
     7  C    0.002332
     8  H    0.000973
     9  H    0.000031
    10  H   -0.000251
    11  C    0.636805
    12  H   -0.048474
    13  O    7.767090
 Mulliken atomic charges:
              1
     1  C   -0.258635
     2  H    0.131303
     3  C   -0.257536
     4  H    0.104414
     5  H    0.118878
     6  H    0.112194
     7  C   -0.289014
     8  H    0.117337
     9  H    0.110658
    10  H    0.119546
    11  C    0.197401
    12  H    0.069791
    13  O   -0.276336
 Sum of Mulliken charges=   0.00000
 Atomic charges with hydrogens summed into heavy atoms:
              1
     1  C   -0.127332
     2  H    0.000000
     3  C    0.077949
     4  H    0.000000
     5  H    0.000000
     6  H    0.000000
     7  C    0.058527
     8  H    0.000000
     9  H    0.000000
    10  H    0.000000
    11  C    0.267192
    12  H    0.000000
    13  O   -0.276336
 Sum of Mulliken charges=   0.00000
 APT atomic charges:
              1
     1  C   -0.025065
     2  H   -0.035863
     3  C    0.047059
     4  H   -0.017750
     5  H   -0.003983
     6  H   -0.006594
     7  C    0.075508
     8  H   -0.013215
     9  H   -0.016641
    10  H   -0.014189
    11  C    0.725961
    12  H   -0.096729
    13  O   -0.618499
 Sum of APT charges=   0.00000
 APT Atomic charges with hydrogens summed into heavy atoms:
              1
     1  C   -0.060928
     2  H    0.000000
     3  C    0.018733
     4  H    0.000000
     5  H    0.000000
     6  H    0.000000
     7  C    0.031462
     8  H    0.000000
     9  H    0.000000
    10  H    0.000000
    11  C    0.629232
    12  H    0.000000
    13  O   -0.618499
 Sum of APT charges=   0.00000
 Electronic spatial extent (au):  <R**2>=   731.4377
 Charge=     0.0000 electrons
 Dipole moment (field-independent basis, Debye):
    X=     2.0402    Y=    -1.2441    Z=    -1.1255  Tot=     2.6414
 Quadrupole moment (field-independent basis, Debye-Ang):
   XX=   -39.5729   YY=   -30.1311   ZZ=   -31.7052
   XY=     1.6648   XZ=     2.8730   YZ=     0.1259
 Traceless Quadrupole moment (field-independent basis, Debye-Ang):
   XX=    -5.7698   YY=     3.6720   ZZ=     2.0978
   XY=     1.6648   XZ=     2.8730   YZ=     0.1259
 Octapole moment (field-independent basis, Debye-Ang**2):
  XXX=   109.1338  YYY=    92.5683  ZZZ=   -30.2935  XYY=    24.3870
  XXY=    27.7564  XXZ=   -17.6988  XZZ=    26.9094  YZZ=    29.9294
  YYZ=    -9.9115  XYZ=    -0.5081
 Hexadecapole moment (field-independent basis, Debye-Ang**3):
 XXXX=  -498.6937 YYYY=  -394.3239 ZZZZ=  -142.5445 XXXY=   -41.3956
 XXXZ=    26.2308 YYYX=   -41.1438 YYYZ=     0.1758 ZZZX=     4.3096
 ZZZY=    -1.5009 XXYY=  -129.4810 XXZZ=   -94.7345 YYZZ=   -86.6575
 XXYZ=     1.2986 YYXZ=     1.5428 ZZXY=   -11.8547
 N-N= 1.767935161587D+02 E-N=-8.955376110330D+02  KE= 2.315629693616D+02
  Exact polarizability:  50.207  -3.326  47.777   0.969   5.897  46.875
 Approx polarizability:  69.798  -6.415  64.509  -4.887   7.769  66.791
 Use density number 0.
 Entering OneElI...
 Calculate overlap and kinetic energy integrals
    NBasis = 143  MinDer = 2  MaxDer = 2
 Requested accuracy = 0.1000D-12
 PrsmSu:  NPrtUS=   1 ThrOK=F
 PRISM was handed   130877297 working-precision words and  1653 shell-pairs
 Entering OneElI...
 Calculate potential energy integrals
    NBasis = 143  MinDer = 2  MaxDer = 2
 Requested accuracy = 0.1000D-12
 PrsmSu:  NPrtUS=   8 ThrOK=T
 PRISM was handed    16328978 working-precision words and  1610 shell-pairs
 PRISM was handed    16328978 working-precision words and  1610 shell-pairs
 PRISM was handed    16328978 working-precision words and  1610 shell-pairs
 PRISM was handed    16328978 working-precision words and  1610 shell-pairs
 PRISM was handed    16328978 working-precision words and  1610 shell-pairs
 PRISM was handed    16328978 working-precision words and  1610 shell-pairs
 PRISM was handed    16328978 working-precision words and  1610 shell-pairs
 PRISM was handed    16328978 working-precision words and  1610 shell-pairs
 Polarizability after L701:
                1             2             3
      1  0.502072D+02
      2 -0.332599D+01  0.477767D+02
      3  0.968518D+00  0.589674D+01  0.468749D+02
 Dipole Derivatives after L701:
               1            2            3            4            5
      1-0.283938D+00 0.614834D-01-0.371673D-01 0.118198D-01-0.336779D-01
      2 0.112719D+00 0.906456D-01-0.281582D-01-0.147594D-01-0.141847D-02
      3-0.199397D-01-0.523184D-01 0.118096D+00 0.342851D-01 0.513165D-01
               6            7            8            9           10
      1 0.114998D-01 0.858257D-01 0.136323D-01-0.158502D-01-0.162300D+00
      2 0.678204D-01 0.132381D-02 0.121956D-01-0.255380D-01-0.362892D-02
      3-0.117989D+00-0.353629D-01-0.472114D-01 0.431570D-01-0.452622D-01
              11           12           13           14           15
      1 0.231045D-01-0.171098D-01 0.714940D-01 0.269884D-01-0.157984D-01
      2 0.688516D-01-0.164561D-01 0.607710D-01-0.124965D+00 0.285494D-02
      3-0.112909D-01 0.401993D-01-0.677853D-04-0.171186D-01 0.415212D-01
              16           17           18           19           20
      1 0.343657D-01-0.479159D-01 0.323031D-01 0.529597D-01-0.507505D-01
      2-0.425664D-01 0.180410D-01 0.379497D-01 0.153788D-01 0.752237D-01
      3 0.821868D-01 0.770419D-01-0.721874D-01-0.123940D-01-0.167760D-01
              21           22           23           24           25
      1-0.429525D-01 0.319213D-01 0.198107D-02 0.559429D-01 0.553623D-01
      2-0.309570D-01-0.371766D-01-0.283743D-02 0.100059D+00-0.483455D-01
      3 0.983391D-01 0.774481D-01 0.451687D-01-0.687289D-01-0.749838D-01
              26           27           28           29           30
      1-0.240913D-01-0.564215D-01-0.145714D+00 0.223950D-01-0.141253D-01
      2-0.216406D-01-0.106464D+00 0.495240D-01 0.291062D-01 0.902895D-02
      3-0.667293D-01-0.836447D-01-0.684438D-02 0.582771D-02 0.740396D-01
              31           32           33           34           35
      1 0.111694D+01-0.147733D+00 0.274312D-01-0.594455D-01-0.713080D-01
      2-0.313369D+00 0.389215D+00 0.383053D+00-0.465958D-01-0.369391D-01
      3-0.306316D-01 0.392834D+00 0.671729D+00-0.998556D-01-0.150144D+00
              36           37           38           39
      1-0.114635D+00-0.809290D+00 0.225892D+00 0.186883D+00
      2-0.137579D+00 0.266725D+00-0.495477D+00-0.255614D+00
      3-0.193803D+00 0.131422D+00-0.210601D+00-0.550730D+00
 Hessian after L701:
                1             2             3             4             5
      1  0.108205D+02
      2  0.785644D+00  0.123909D+02
      3 -0.136565D+01 -0.699345D+00  0.139947D+02
      4 -0.347558D+01  0.417950D+00 -0.802721D+00  0.323605D+01
      5  0.382899D+00 -0.337436D+01 -0.845974D+00 -0.481447D+00  0.338730D+01
      6 -0.750711D+00 -0.864832D+00 -0.215654D+01  0.103736D+01  0.102223D+01
      7 -0.454914D+01  0.784844D+00  0.125356D+01  0.628665D-01  0.884813D-02
      8  0.727386D+00 -0.378031D+01  0.203361D+01  0.872757D-02  0.471876D-01
      9  0.119540D+01  0.205908D+01 -0.184848D+01 -0.630604D-01 -0.717956D-01
     10  0.373366D-01  0.218729D-01 -0.523273D-02 -0.875338D-04 -0.712702D-02
     11 -0.317499D-01  0.446392D-01  0.380937D-02 -0.256458D-02  0.123874D-01
     12 -0.481318D-01  0.207624D-01  0.337454D-01 -0.213287D-01 -0.569214D-02
     13  0.371860D-01 -0.303907D-01 -0.158515D-02  0.109612D-01  0.227800D-02
     14  0.326435D-01  0.112684D+00  0.225405D-01 -0.232027D-02 -0.538537D-02
     15  0.271850D-01 -0.244619D-01  0.208703D-01  0.486696D-02 -0.194712D-01
     16  0.661667D-01  0.592120D-02 -0.261728D-01 -0.236606D-01  0.230057D-02
     17  0.146103D-01  0.575639D-01 -0.502389D-01  0.168382D-02 -0.280801D-01
     18  0.431991D-01  0.104686D-01  0.883132D-01 -0.359621D-01 -0.181100D-01
     19 -0.474441D+01 -0.117906D+01 -0.450609D-01  0.803140D-01  0.144230D-01
     20 -0.114530D+01 -0.465857D+00  0.762894D-01  0.153664D-01 -0.349015D-01
     21 -0.352579D-01  0.729030D-01 -0.501632D+01 -0.301529D-01  0.675247D-03
     22  0.852960D-01  0.444403D-01 -0.319593D-01 -0.223537D-01  0.241757D-01
     23  0.415728D-02 -0.942641D-02  0.483018D-01  0.313562D-01  0.660445D-01
     24 -0.162678D-01 -0.125100D-01  0.951520D-01 -0.230933D-01 -0.771434D-01
     25  0.522421D-01  0.328889D-01  0.342625D-01  0.809945D-02 -0.767972D-03
     26 -0.916882D-02  0.350455D-02 -0.252159D-01 -0.220026D-02 -0.187809D-01
     27  0.110962D-01  0.133578D-01  0.767892D-01  0.449319D-02  0.574454D-02
     28  0.130691D+00 -0.710548D-01 -0.218033D-01  0.476787D-02  0.236652D-01
     29 -0.497514D-02  0.139871D-01  0.215700D-01  0.256208D-01 -0.357306D-01
     30 -0.239328D-02  0.496620D-02  0.706088D-02 -0.117581D-01  0.232231D-01
     31  0.766802D+00 -0.754743D+00  0.882107D+00  0.106018D-02 -0.101382D-01
     32 -0.709383D+00 -0.527717D+01 -0.113960D+00 -0.279268D-01  0.427087D-01
     33  0.972984D+00 -0.145645D+00 -0.523051D+01  0.379160D-01 -0.828078D-02
     34 -0.170340D+00 -0.250171D+00 -0.495229D+00  0.229151D-01  0.138945D-01
     35 -0.254288D+00  0.362659D+00 -0.152325D+00  0.190956D-01 -0.424445D-02
     36 -0.557273D+00 -0.175181D+00  0.452004D-01  0.949628D-02  0.645822D-02
     37  0.943231D+00  0.191858D+00  0.625491D+00  0.946492D-01  0.269961D-01
     38  0.207526D+00 -0.787938D-01 -0.319063D+00 -0.334129D-02 -0.541409D-01
     39  0.525829D+00 -0.259565D+00 -0.110007D+00 -0.106052D+00 -0.118675D-01
                6             7             8             9            10
      6  0.180666D+01
      7 -0.614079D-01  0.117389D+02
      8 -0.549552D-01 -0.465596D+00  0.121030D+02
      9  0.344248D-01 -0.101228D+01 -0.142948D+01  0.112040D+02
     10 -0.127617D-01 -0.113283D+01 -0.113019D+00  0.278278D+00  0.941439D+00
     11 -0.722255D-02 -0.200140D-01 -0.352571D+01 -0.135939D-01 -0.326784D-01
     12 -0.282987D-01  0.355021D+00 -0.288596D-01 -0.347997D+01 -0.462990D+00
     13 -0.186777D-02 -0.349114D+01 -0.550589D+00  0.961516D-02 -0.105455D-01
     14 -0.824877D-02 -0.733908D+00 -0.132236D+01 -0.105059D+00  0.557188D-01
     15 -0.191673D-01 -0.160372D-01 -0.207773D-02 -0.363914D+01 -0.406656D-03
     16 -0.269065D-01 -0.328949D+01  0.371618D+00 -0.792278D+00 -0.431315D-01
     17 -0.125035D-01  0.391158D+00 -0.334617D+01 -0.738413D+00 -0.166549D-01
     18  0.130502D+00 -0.973553D+00 -0.861052D+00 -0.190612D+01  0.623676D-01
     19 -0.262296D-01 -0.759397D-01  0.437505D-01  0.239095D-01  0.119379D-01
     20 -0.124832D-01 -0.329494D-01  0.217372D+00  0.105452D+00  0.324926D-01
     21  0.115245D+00 -0.120812D-01  0.188614D+00 -0.126010D-01  0.239163D-01
     22 -0.198109D-01 -0.160132D-01  0.252549D-01  0.240670D-03  0.641856D-02
     23 -0.853323D-01  0.458480D-02  0.111141D-01  0.139207D-02  0.983423D-02
     24  0.375514D-01 -0.474873D-03 -0.126671D-01 -0.114154D-01 -0.795573D-02
     25 -0.368722D-02 -0.421122D-01  0.244916D-01  0.173531D-01  0.366385D-02
     26 -0.592026D-02  0.258595D-01  0.831620D-01  0.104541D+00  0.883911D-02
     27  0.428957D-03  0.185471D-01  0.107541D+00  0.399186D-01  0.104953D-01
     28 -0.512502D-02  0.373172D-03 -0.365337D-01 -0.123362D-01 -0.250872D-01
     29  0.274303D-01 -0.135545D-01  0.821094D-02  0.163146D-01  0.123643D-01
     30  0.903390D-02 -0.796628D-02  0.216477D-01 -0.110490D-01  0.619347D-02
     31  0.333686D-02  0.488322D-01  0.508176D-01  0.837662D-01  0.123244D+00
     32 -0.951387D-02  0.127537D+00 -0.422452D-01  0.187669D-01  0.411767D-01
     33  0.519285D-01  0.173888D+00 -0.119738D-01 -0.223874D-01  0.987341D-01
     34 -0.564936D-02  0.581422D-01  0.618990D-01  0.122582D+00  0.287266D-02
     35 -0.508354D-02  0.721594D-01 -0.264949D-01  0.667299D-01  0.399838D-02
     36 -0.172541D-01  0.140455D+00  0.646396D-01  0.781715D-01  0.676549D-02
     37 -0.126536D+00  0.687587D+00 -0.148208D+00  0.148816D+00  0.847707D-01
     38  0.164319D-01 -0.148969D+00 -0.426741D+00 -0.139374D-01 -0.168178D-01
     39  0.354889D-01  0.142333D+00 -0.149892D-01 -0.425373D+00  0.259680D-02
               11            12            13            14            15
     11  0.341387D+01
     12 -0.488517D-01  0.341246D+01
     13  0.829630D-01 -0.114424D-01  0.338648D+01
     14  0.181937D-01  0.100597D-01  0.499192D+00  0.104488D+01
     15  0.466201D-02  0.554088D-01 -0.513855D-01 -0.927353D-01  0.364665D+01
     16 -0.435424D-01  0.769202D-01  0.549645D-01  0.904710D-02 -0.116096D-01
     17  0.627661D-01  0.566668D-02 -0.300647D-01 -0.443703D-02  0.561266D-01
     18  0.156479D-01  0.461468D-01  0.110955D-01  0.340636D-01  0.331475D-01
     19  0.191518D-01  0.103304D-01 -0.457692D-01 -0.142457D-01 -0.694443D-02
     20  0.547790D-02  0.847139D-02 -0.128505D-01  0.155208D+00  0.626195D-01
     21  0.113964D-01 -0.186710D-01 -0.630072D-02  0.695835D-01 -0.249363D-01
     22  0.326299D-02  0.109698D-02 -0.255527D-02  0.484346D-02 -0.159063D-03
     23  0.133937D-02  0.795791D-03 -0.120889D-02  0.115909D-01 -0.130500D-03
     24 -0.302126D-02 -0.310946D-02  0.116596D-02 -0.814257D-02 -0.170578D-02
     25  0.278637D-02  0.297547D-02 -0.506766D-03  0.321937D-02  0.621823D-03
     26  0.239509D-02  0.493400D-02 -0.241265D-02  0.145945D-02 -0.349876D-02
     27  0.456292D-02  0.286294D-02 -0.199031D-02  0.608713D-02 -0.529450D-03
     28 -0.839844D-02 -0.589195D-02  0.265455D-02 -0.134766D-01 -0.136418D-02
     29  0.234286D-01  0.219120D-01 -0.297541D-02  0.666587D-02  0.150406D-02
     30  0.195680D-01 -0.196842D-02 -0.795302D-03  0.205382D-02 -0.150988D-02
     31  0.341318D-01  0.841387D-01 -0.214421D-01  0.297733D-03 -0.216262D-02
     32 -0.398344D-01  0.120355D-01 -0.225703D-02  0.159382D-01 -0.314495D-02
     33  0.123429D-01 -0.200500D-02  0.673738D-02  0.280301D-01 -0.881570D-02
     34 -0.142949D-02 -0.150983D-02  0.148102D-02  0.126094D-01  0.787205D-02
     35 -0.576601D-03  0.112719D-02  0.680612D-02  0.100270D-01  0.845255D-02
     36 -0.217843D-03  0.129062D-03  0.771882D-02  0.184378D-01  0.507374D-02
     37 -0.191873D-02  0.208119D-01  0.782351D-01  0.146379D+00  0.495234D-01
     38 -0.183719D-01 -0.236129D-02  0.415094D-01 -0.444711D-01  0.121557D-01
     39  0.917870D-03 -0.167327D-01  0.390343D-01  0.233298D-01 -0.653499D-01
               16            17            18            19            20
     16  0.324630D+01
     17 -0.309190D+00  0.331077D+01
     18  0.759662D+00  0.768342D+00  0.156700D+01
     19 -0.116383D-01 -0.471490D-02 -0.735229D-02  0.120965D+02
     20 -0.168574D-01 -0.137230D-01  0.767210D-02  0.108887D+01  0.948498D+01
     21 -0.251890D-01 -0.411257D-02  0.921755D-02  0.579854D-01 -0.275599D+00
     22 -0.221758D-01  0.284878D-02  0.673233D-02 -0.323457D+01  0.409814D+00
     23 -0.366157D-02  0.342705D-01  0.469705D-01  0.515367D+00 -0.303381D+01
     24  0.255497D-02  0.213962D-01 -0.108801D-01 -0.772385D+00 -0.878624D+00
     25 -0.303457D-02 -0.244319D-03  0.247652D-02 -0.325283D+01  0.351465D+00
     26 -0.219070D-02 -0.102901D-02  0.922628D-02  0.436417D+00 -0.290545D+01
     27 -0.358902D-02  0.138104D-02  0.118095D-01  0.648663D+00  0.911396D+00
     28  0.609965D-02  0.119264D-02 -0.124454D-01 -0.114834D+01 -0.258905D+00
     29 -0.227821D-02 -0.280173D-02  0.293220D-02 -0.384381D+00 -0.344733D+01
     30 -0.202202D-02 -0.820078D-03  0.135910D-02  0.790500D-01 -0.154177D-01
     31 -0.178365D-01 -0.240178D-02 -0.140292D-01  0.151947D+00 -0.132167D+00
     32  0.347474D-02 -0.125954D-01  0.111429D-01 -0.180442D+00 -0.536103D-02
     33 -0.162794D-01 -0.221871D-01  0.266920D-02  0.383299D-01 -0.277529D-01
     34 -0.963242D-03 -0.193132D-04  0.113289D-01  0.309478D-01 -0.199205D-01
     35  0.932933D-03 -0.481736D-02  0.771532D-02 -0.164740D-01 -0.381820D-01
     36  0.508526D-02 -0.572352D-03  0.179841D-01  0.743830D-01 -0.207095D-01
     37  0.384018D-01 -0.482041D-01  0.146481D+00  0.141828D+00 -0.279054D+00
     38 -0.155747D-01 -0.517179D-01 -0.350190D-01 -0.338660D+00  0.815717D-01
     39  0.598243D-01 -0.240640D-01  0.884771D-02 -0.746785D-01  0.586868D-01
               21            22            23            24            25
     21  0.126793D+02
     22 -0.718102D+00  0.317894D+01
     23 -0.103004D+01 -0.454877D+00  0.274070D+01
     24 -0.201968D+01  0.693486D+00  0.103923D+01  0.196988D+01
     25  0.573677D+00  0.659691D-01  0.786835D-02  0.244839D-01  0.318202D+01
     26  0.100976D+01  0.675668D-02  0.742812D-01  0.356175D-02 -0.337371D+00
     27 -0.193789D+01 -0.138922D-01 -0.520943D-02 -0.754050D-01 -0.587377D+00
     28  0.119837D+00 -0.249542D-01 -0.280877D-01  0.376222D-01 -0.761198D-02
     29 -0.280183D-01 -0.286594D-01  0.588474D-01  0.274067D-02 -0.268527D-01
     30 -0.347150D+01  0.748794D-01  0.117849D-01  0.379618D-01 -0.628570D-01
     31  0.609367D-01 -0.108781D-01 -0.119067D-01  0.125225D-01 -0.189152D-01
     32 -0.648421D-01 -0.309565D-02 -0.216126D-02 -0.294677D-01 -0.826173D-02
     33 -0.115161D+00  0.222865D-03 -0.157191D-01 -0.297827D-04 -0.419893D-02
     34  0.529840D-01 -0.101627D-02 -0.763540D-02  0.116426D-01  0.201444D-01
     35 -0.118775D-01 -0.334433D-02 -0.253653D-02 -0.277186D-02 -0.308647D-01
     36 -0.153794D-02  0.407368D-02 -0.113377D-01  0.128819D-01  0.122202D-01
     37 -0.622518D-01 -0.210439D-02 -0.657909D-01  0.366991D-01 -0.712794D-02
     38  0.615530D-01 -0.314211D-01  0.497458D-01 -0.425857D-01 -0.183574D-01
     39 -0.185494D+00  0.319224D-02 -0.715284D-03 -0.311994D-01 -0.995031D-02
               26            27            28            29            30
     26  0.266379D+01
     27 -0.111746D+01  0.188854D+01
     28 -0.181143D-01 -0.281717D-01  0.916177D+00
     29  0.484415D-01 -0.266050D-02  0.517441D+00  0.332372D+01
     30 -0.693364D-02  0.289296D-01 -0.791874D-01 -0.547162D-01  0.344827D+01
     31 -0.138617D-01 -0.125558D-01  0.983906D-01 -0.789450D-01  0.923645D-02
     32  0.842585D-02  0.283304D-01 -0.764459D-01  0.251828D-02 -0.730874D-02
     33  0.125048D-01 -0.136312D-01  0.179997D-01 -0.119680D-01 -0.355364D-01
     34 -0.486310D-01 -0.572144D-02  0.103595D-02  0.204408D-02 -0.505560D-03
     35  0.549070D-02 -0.411895D-03  0.513823D-02 -0.770447D-03  0.112804D-02
     36 -0.179482D-01 -0.310683D-01  0.644873D-02 -0.157424D-03  0.157037D-03
     37 -0.439219D-01 -0.399970D-01  0.458057D-01 -0.148489D-01 -0.187437D-02
     38  0.343106D-01  0.473443D-01 -0.364201D-01  0.810545D-03  0.824736D-03
     39  0.324524D-01  0.924944D-02 -0.155820D-01  0.311668D-02 -0.112128D-01
               31            32            33            34            35
     31  0.103405D+02
     32  0.632043D+01  0.194705D+02
     33  0.402286D+01 -0.709411D+01  0.168904D+02
     34 -0.335960D+01  0.593641D+00  0.886148D+00  0.338702D+01
     35  0.568444D+00 -0.295833D+01  0.110516D+01 -0.587922D+00  0.255800D+01
     36  0.888797D+00  0.115643D+01 -0.179585D+01 -0.882529D+00 -0.106326D+01
     37 -0.810212D+01 -0.607845D+01 -0.623535D+01  0.736655D-02  0.216317D+00
     38 -0.596996D+01 -0.112024D+02  0.617960D+01  0.231640D+00  0.997739D-01
     39 -0.601896D+01  0.609564D+01 -0.972106D+01  0.298587D+00  0.454110D-01
               36            37            38            39
     36  0.143654D+01
     37  0.284358D+00  0.598948D+01
     38  0.434133D-01  0.609884D+01  0.116104D+02
     39  0.249566D+00  0.515382D+01 -0.594835D+01  0.102633D+02
 ReadGW:  IGet=0 IStart=          96 Next=        5853 LGW=        5757.
 ICntrl=12127.
 Symmetry not used in FoFDir.
 MinBra= 0 MaxBra= 2 Meth= 1.
 IRaf=       0 NMat=   1 IRICut=       1 DoRegI=T DoRafI=F ISym2E= 0 JSym2E=0.
 PrsmSu:  NPrtUS=   8 ThrOK=T
 PRISM was handed    16323515 working-precision words and  1637 shell-pairs
 PRISM was handed    16323515 working-precision words and  1637 shell-pairs
 PRISM was handed    16323515 working-precision words and  1637 shell-pairs
 PRISM was handed    16323515 working-precision words and  1637 shell-pairs
 PRISM was handed    16323515 working-precision words and  1637 shell-pairs
 PRISM was handed    16323515 working-precision words and  1637 shell-pairs
 PRISM was handed    16323515 working-precision words and  1637 shell-pairs
 PRISM was handed    16323515 working-precision words and  1637 shell-pairs
 Pruned (  75, 302) grid will be used in CalDFT.
 CkSvGd:  ISavGI=        -1 IRadAn=       4 IRASav=       4 ISavGd=        -1.
 CalDSu:  NPrtUS=   8 ThrOK=T
 IPart= 0 IRanGd=          0 ScrnBf=T ScrnGd=T RCrit=4.00D+00 DoMicB=T.
 IPart= 6 IRanGd=          0 ScrnBf=T ScrnGd=T RCrit=4.00D+00 DoMicB=T.
 IPart= 5 IRanGd=          0 ScrnBf=T ScrnGd=T RCrit=4.00D+00 DoMicB=T.
 CutRad = 1000.00    CtRdIn =    0.00    XCrit =  15.00   ICut = 0
 IPart= 2 IRanGd=          0 ScrnBf=T ScrnGd=T RCrit=4.00D+00 DoMicB=T.
 CutRad = 1000.00    CtRdIn =    0.00    XCrit =  15.00   ICut = 0
 IPart= 3 IRanGd=          0 ScrnBf=T ScrnGd=T RCrit=4.00D+00 DoMicB=T.
 IPart= 4 IRanGd=          0 ScrnBf=T ScrnGd=T RCrit=4.00D+00 DoMicB=T.
 CutRad = 1000.00    CtRdIn =    0.00    XCrit =  15.00   ICut = 0
 IPart= 7 IRanGd=          0 ScrnBf=T ScrnGd=T RCrit=4.00D+00 DoMicB=T.
 CutRad = 1000.00    CtRdIn =    0.00    XCrit =  15.00   ICut = 0
 CutRad = 1000.00    CtRdIn =    0.00    XCrit =  15.00   ICut = 0
 IPart= 1 IRanGd=          0 ScrnBf=T ScrnGd=T RCrit=4.00D+00 DoMicB=T.
 CutRad = 1000.00    CtRdIn =    0.00    XCrit =  15.00   ICut = 0
 CutRad = 1000.00    CtRdIn =    0.00    XCrit =  15.00   ICut = 0
 CutRad = 1000.00    CtRdIn =    0.00    XCrit =  15.00   ICut = 0
 IPart= 1        11869 of        13760 points in      29 batches and       79 microbatches, Max-NSigAt=      13 Max-NSgAt2=      13
 IPart= 7        12325 of        13902 points in      28 batches and       79 microbatches, Max-NSigAt=      13 Max-NSgAt2=      13
 IPart= 3        10999 of        12678 points in      26 batches and       82 microbatches, Max-NSigAt=      13 Max-NSgAt2=      13
 IPart= 2        10830 of        12142 points in      24 batches and       72 microbatches, Max-NSigAt=      13 Max-NSgAt2=      13
 IPart= 4        10043 of        10866 points in      21 batches and       67 microbatches, Max-NSigAt=      13 Max-NSgAt2=      13
 IPart= 5        12163 of        13972 points in      28 batches and       80 microbatches, Max-NSigAt=      13 Max-NSgAt2=      13
 IPart= 6        11813 of        13336 points in      28 batches and      104 microbatches, Max-NSigAt=      13 Max-NSgAt2=      13
 IPart= 0        11561 of        12582 points in      25 batches and       88 microbatches, Max-NSigAt=      13 Max-NSgAt2=      13
 Polarizability after L703:
                1             2             3
      1  0.502072D+02
      2 -0.332599D+01  0.477767D+02
      3  0.968518D+00  0.589674D+01  0.468749D+02
 Dipole Derivatives after L703:
               1            2            3            4            5
      1-0.283938D+00 0.614834D-01-0.371673D-01 0.118198D-01-0.336779D-01
      2 0.112719D+00 0.906456D-01-0.281582D-01-0.147594D-01-0.141847D-02
      3-0.199397D-01-0.523184D-01 0.118096D+00 0.342851D-01 0.513165D-01
               6            7            8            9           10
      1 0.114998D-01 0.858257D-01 0.136323D-01-0.158502D-01-0.162300D+00
      2 0.678204D-01 0.132381D-02 0.121956D-01-0.255380D-01-0.362892D-02
      3-0.117989D+00-0.353629D-01-0.472114D-01 0.431570D-01-0.452622D-01
              11           12           13           14           15
      1 0.231045D-01-0.171098D-01 0.714940D-01 0.269884D-01-0.157984D-01
      2 0.688516D-01-0.164561D-01 0.607710D-01-0.124965D+00 0.285494D-02
      3-0.112909D-01 0.401993D-01-0.677853D-04-0.171186D-01 0.415212D-01
              16           17           18           19           20
      1 0.343657D-01-0.479159D-01 0.323031D-01 0.529597D-01-0.507505D-01
      2-0.425664D-01 0.180410D-01 0.379497D-01 0.153788D-01 0.752237D-01
      3 0.821868D-01 0.770419D-01-0.721874D-01-0.123940D-01-0.167760D-01
              21           22           23           24           25
      1-0.429525D-01 0.319213D-01 0.198107D-02 0.559429D-01 0.553623D-01
      2-0.309570D-01-0.371766D-01-0.283743D-02 0.100059D+00-0.483455D-01
      3 0.983391D-01 0.774481D-01 0.451687D-01-0.687289D-01-0.749838D-01
              26           27           28           29           30
      1-0.240913D-01-0.564215D-01-0.145714D+00 0.223950D-01-0.141253D-01
      2-0.216406D-01-0.106464D+00 0.495240D-01 0.291062D-01 0.902895D-02
      3-0.667293D-01-0.836447D-01-0.684438D-02 0.582771D-02 0.740396D-01
              31           32           33           34           35
      1 0.111694D+01-0.147733D+00 0.274312D-01-0.594455D-01-0.713080D-01
      2-0.313369D+00 0.389215D+00 0.383053D+00-0.465958D-01-0.369391D-01
      3-0.306316D-01 0.392834D+00 0.671729D+00-0.998556D-01-0.150144D+00
              36           37           38           39
      1-0.114635D+00-0.809290D+00 0.225892D+00 0.186883D+00
      2-0.137579D+00 0.266725D+00-0.495477D+00-0.255614D+00
      3-0.193803D+00 0.131422D+00-0.210601D+00-0.550730D+00
 Hessian after L703:
                1             2             3             4             5
      1  0.466968D+00
      2  0.202069D-01  0.448539D+00
      3 -0.177620D-01 -0.333903D-02  0.538840D+00
      4 -0.948635D-01 -0.487227D-01  0.878078D-01  0.101953D+00
      5 -0.439089D-01 -0.768854D-01  0.760376D-01  0.463243D-01  0.940568D-01
      6  0.809366D-01  0.768260D-01 -0.201314D+00 -0.926064D-01 -0.834610D-01
      7 -0.886955D-01 -0.143992D-01 -0.252706D-01  0.494284D-02  0.718903D-02
      8 -0.134806D-01 -0.103505D+00 -0.407290D-01  0.447948D-02  0.598933D-02
      9 -0.248962D-01 -0.430030D-01 -0.152686D+00 -0.102046D-01 -0.141714D-01
     10 -0.891192D-02  0.106279D-02 -0.194111D-03  0.563636D-03  0.111770D-03
     11 -0.175654D-01 -0.611830D-03 -0.954761D-03  0.599060D-03  0.453292D-03
     12 -0.292448D-01  0.152731D-02 -0.362898D-02  0.223201D-03  0.814187D-03
     13  0.183956D-02 -0.104788D-01  0.227202D-02  0.263057D-03  0.398578D-03
     14  0.288801D-02 -0.143900D-01  0.140626D-02  0.151345D-03  0.558543D-03
     15  0.817014D-02 -0.274212D-01  0.184254D-02  0.780609D-03  0.381742D-03
     16  0.433558D-02  0.513610D-02 -0.896865D-02 -0.250927D-03 -0.956745D-03
     17  0.812763D-02  0.603819D-02 -0.141999D-01 -0.109136D-02 -0.102580D-02
     18  0.101494D-01  0.105309D-01 -0.243120D-01 -0.245367D-02 -0.304345D-02
     19 -0.787466D-01  0.288515D-01 -0.859319D-02  0.486786D-02 -0.138728D-01
     20  0.152830D-01 -0.160823D+00  0.152220D-02  0.486943D-02 -0.196371D-01
     21 -0.606567D-02  0.539083D-02 -0.773617D-01 -0.785922D-02  0.265244D-01
     22  0.303722D-02  0.443260D-02 -0.779823D-02  0.338226D-03  0.212668D-02
     23 -0.106670D-01 -0.155834D-01  0.258136D-01  0.236338D-02 -0.603449D-02
     24 -0.144078D-02  0.589368D-03 -0.427548D-03 -0.308223D-03 -0.488204D-03
     25  0.191640D-02  0.254404D-02  0.811969D-02  0.249247D-03 -0.476427D-03
     26 -0.108091D-01 -0.135541D-01 -0.267589D-01 -0.605020D-03  0.957828D-03
     27  0.233001D-02  0.550199D-03  0.152270D-02  0.259098D-03 -0.368715D-03
     28 -0.678432D-02  0.732660D-03 -0.869717D-03  0.751525D-03  0.108534D-03
     29  0.344876D-01 -0.728323D-02  0.307585D-02 -0.598120D-03  0.203583D-02
     30 -0.812149D-03 -0.388219D-03 -0.912680D-03 -0.711045D-03 -0.185614D-03
     31 -0.157965D+00 -0.968186D-02 -0.315732D-01 -0.153476D-01  0.279791D-02
     32 -0.113975D-01 -0.831745D-01 -0.199788D-02 -0.132454D-01  0.691131D-03
     33 -0.344843D-01  0.479008D-03 -0.971630D-01  0.327290D-01 -0.269751D-02
     34 -0.591294D-02 -0.124019D-01 -0.264595D-01  0.118327D-02 -0.430285D-03
     35  0.375204D-02  0.970291D-02 -0.686688D-02  0.202726D-02 -0.188783D-03
     36 -0.187543D-02 -0.107951D-01  0.165064D-02 -0.337599D-02 -0.113369D-03
     37 -0.362169D-01  0.327179D-01  0.292896D-01 -0.465097D-02  0.588356D-03
     38  0.230832D-01  0.115300D-01 -0.130092D-01  0.344828D-02 -0.971222D-03
     39  0.149950D-01 -0.109472D-01  0.139498D-01 -0.428059D-02  0.771370D-03
                6             7             8             9            10
      6  0.223190D+00
      7  0.111196D-01  0.564670D+00
      8  0.909928D-02 -0.186260D-01  0.548498D+00
      9 -0.232893D-01 -0.230661D-01 -0.410210D-01  0.496366D+00
     10 -0.389209D-03 -0.305928D+00  0.144098D-01 -0.212162D-01  0.332577D+00
     11  0.400653D-03  0.152117D-01 -0.483955D-01  0.185864D-02 -0.160041D-01
     12  0.938493D-03 -0.201169D-01  0.187440D-02 -0.481183D-01  0.244543D-01
     13  0.182283D-03 -0.658462D-01  0.702894D-01 -0.460606D-02 -0.736224D-02
     14 -0.347343D-03  0.680551D-01 -0.292447D+00  0.132502D-01  0.294005D-03
     15  0.852818D-03 -0.434898D-02  0.149056D-01 -0.481473D-01 -0.165733D-03
     16 -0.213538D-02 -0.926278D-01 -0.442357D-01  0.901995D-01 -0.123312D-01
     17 -0.320182D-02 -0.436128D-01 -0.881805D-01  0.853749D-01  0.118003D-02
     18 -0.346895D-02  0.888274D-01  0.842980D-01 -0.221003D+00 -0.119056D-02
     19  0.125263D-02  0.356332D-02 -0.104172D-01  0.799448D-03  0.304216D-03
     20  0.999008D-03  0.325015D-02 -0.208728D-01 -0.387843D-02  0.556714D-03
     21 -0.101516D-02  0.771943D-02 -0.288048D-01  0.347383D-03  0.587450D-03
     22 -0.246277D-03 -0.494462D-04 -0.518847D-03 -0.513278D-04 -0.507101D-04
     23  0.200246D-03 -0.498352D-03  0.175449D-02  0.137828D-02 -0.359605D-04
     24  0.115927D-02 -0.521259D-03 -0.543820D-03  0.109702D-02 -0.228158D-04
     25 -0.153987D-03 -0.512743D-03  0.143964D-02 -0.151445D-03  0.327711D-03
     26  0.350645D-03  0.280344D-02 -0.598783D-02  0.221751D-02 -0.437776D-04
     27  0.677319D-03 -0.249017D-05 -0.389695D-03  0.993457D-03 -0.556726D-04
     28 -0.353346D-03  0.284971D-03 -0.623181D-03  0.143536D-04  0.464682D-03
     29 -0.590611D-04  0.643081D-03  0.171931D-02  0.778375D-03 -0.684495D-03
     30  0.180398D-04  0.710346D-03  0.243959D-04  0.144150D-03 -0.133964D-03
     31  0.118133D-02 -0.168030D-01 -0.629349D-02 -0.114834D-01  0.586881D-03
     32 -0.281702D-02 -0.190017D-01  0.264820D-02 -0.264922D-02 -0.174942D-03
     33  0.152431D-02 -0.334171D-01  0.176588D-02 -0.650044D-02 -0.851703D-03
     34  0.124934D-02 -0.592047D-02  0.209880D-02  0.103230D-02 -0.516078D-03
     35  0.182571D-03  0.676958D-03  0.169869D-02 -0.892024D-04 -0.126356D-03
     36  0.342428D-04 -0.134330D-02 -0.410706D-03  0.205541D-02 -0.108327D-03
     37 -0.371572D-04  0.292236D-02  0.147792D-02  0.362966D-02  0.276376D-03
     38  0.182785D-02 -0.169131D-02 -0.291897D-02 -0.456061D-04 -0.545491D-03
     39  0.692685D-03 -0.289946D-03 -0.685605D-04 -0.125884D-02 -0.713390D-03
               11            12            13            14            15
     11  0.485262D-01
     12  0.100229D-02  0.519533D-01
     13  0.313167D-01 -0.191855D-02  0.673575D-01
     14  0.299110D-03  0.293473D-03 -0.757433D-01  0.317724D+00
     15  0.227400D-02 -0.139074D-02  0.595271D-02 -0.126797D-01  0.517452D-01
     16 -0.133850D-01  0.265494D-01  0.336964D-02  0.342484D-02 -0.818376D-02
     17  0.981398D-04 -0.284154D-02 -0.139726D-01 -0.118974D-01  0.257342D-01
     18 -0.196849D-02  0.339307D-02  0.274827D-03  0.803314D-03 -0.105824D-02
     19 -0.947309D-03 -0.891076D-04 -0.900548D-03 -0.160293D-02 -0.249601D-02
     20  0.971062D-03  0.120962D-02 -0.723511D-03 -0.271173D-03 -0.158073D-02
     21  0.518636D-03  0.955983D-03 -0.167216D-02 -0.363313D-02 -0.459962D-02
     22 -0.803597D-04  0.153131D-03 -0.412281D-04  0.768091D-05 -0.225065D-03
     23 -0.913730D-04 -0.133030D-03  0.272038D-03  0.451590D-03 -0.212067D-03
     24 -0.172440D-04 -0.104641D-04 -0.709250D-04  0.282507D-04  0.118269D-03
     25  0.230488D-03  0.188973D-03  0.468183D-03  0.407622D-03  0.167508D-03
     26  0.206315D-03  0.287227D-03 -0.596165D-03 -0.968444D-03 -0.181157D-02
     27  0.137165D-03 -0.557892D-04 -0.318999D-03  0.000000D+00  0.111565D-03
     28  0.409497D-03  0.453284D-03  0.272417D-03  0.590957D-04  0.209914D-04
     29 -0.308484D-03 -0.479128D-03 -0.207163D-03  0.229165D-03  0.322582D-03
     30 -0.261903D-03  0.175946D-03 -0.116799D-03  0.119480D-03 -0.759008D-04
     31  0.775799D-03  0.537619D-03  0.969949D-03  0.248364D-02  0.752459D-03
     32 -0.228633D-02 -0.438099D-02 -0.143388D-02 -0.118759D-02 -0.335112D-03
     33 -0.379327D-02 -0.536632D-02 -0.357261D-03 -0.921335D-03  0.746426D-03
     34 -0.102467D-02 -0.176515D-02  0.110799D-03 -0.178945D-03  0.215240D-03
     35  0.201880D-03  0.843220D-04  0.182123D-03  0.235688D-04  0.104328D-04
     36 -0.321865D-03 -0.410594D-03  0.187103D-03  0.137713D-03 -0.149858D-03
     37  0.463629D-03  0.574516D-03 -0.500821D-03 -0.246166D-03 -0.640114D-03
     38  0.937578D-03  0.741862D-03  0.696688D-03  0.187524D-02  0.411813D-03
     39  0.112615D-02  0.156440D-02  0.191798D-03  0.154366D-02  0.489618D-05
               16            17            18            19            20
     16  0.965860D-01
     17  0.493156D-01  0.930599D-01
     18 -0.974782D-01 -0.908352D-01  0.243545D+00
     19  0.768217D-04  0.739229D-03  0.294589D-03  0.561136D+00
     20  0.262828D-03  0.165443D-02  0.142734D-02  0.254362D-01  0.451134D+00
     21  0.189182D-03 -0.746322D-03  0.928473D-03  0.196595D-02  0.309140D-02
     22  0.211029D-03 -0.246119D-03  0.996665D-05 -0.889047D-01 -0.453378D-01
     23  0.169599D-03 -0.226288D-03 -0.110114D-02 -0.455172D-01 -0.966978D-01
     24  0.247032D-03  0.332436D-03  0.414618D-03  0.822634D-01  0.917056D-01
     25 -0.190670D-04 -0.820227D-04 -0.297525D-03 -0.759321D-01 -0.397060D-01
     26  0.164747D-03  0.164572D-03 -0.588725D-04 -0.397885D-01 -0.103000D+00
     27 -0.975929D-04  0.273968D-03  0.424118D-03 -0.704228D-01 -0.981860D-01
     28 -0.707111D-04  0.179965D-04 -0.332731D-04 -0.308650D+00  0.245046D-01
     29 -0.101161D-03 -0.965561D-04 -0.889122D-04  0.236361D-01 -0.463063D-01
     30  0.112495D-03  0.102253D-04  0.481523D-05 -0.811021D-02  0.137669D-02
     31  0.892611D-03 -0.317851D-03  0.297752D-02 -0.104324D-01  0.179480D-01
     32  0.161497D-03  0.675889D-03 -0.744881D-03  0.390430D-01 -0.884848D-02
     33 -0.146450D-02  0.722291D-03 -0.753759D-03 -0.907781D-04 -0.577025D-03
     34  0.275855D-04  0.154467D-03 -0.167824D-03  0.549741D-03 -0.154276D-02
     35 -0.849044D-04 -0.300211D-03 -0.330253D-04 -0.231611D-02  0.864611D-03
     36  0.457798D-03  0.114615D-03  0.111958D-03  0.152962D-02 -0.864673D-03
     37 -0.199523D-03 -0.212109D-03 -0.912673D-03 -0.693236D-02 -0.480078D-02
     38  0.128357D-03  0.356430D-04  0.814412D-03 -0.324394D-02  0.183328D-02
     39  0.572596D-03 -0.737750D-03  0.177437D-02  0.169640D-02  0.375496D-02
               21            22            23            24            25
     21  0.565600D+00
     22  0.824651D-01  0.917078D-01
     23  0.907861D-01  0.479213D-01  0.107978D+00
     24 -0.216079D+00 -0.907497D-01 -0.102042D+00  0.232323D+00
     25 -0.710541D-01  0.422030D-02  0.728261D-02  0.110056D-01  0.787856D-01
     26 -0.974641D-01  0.607763D-02  0.726659D-02  0.116100D-01  0.428042D-01
     27 -0.221772D+00 -0.942902D-02 -0.120581D-01 -0.202600D-01  0.785222D-01
     28 -0.879263D-02 -0.116913D-01  0.808892D-03 -0.728628D-03 -0.963872D-02
     29  0.974112D-03 -0.142415D-01  0.948655D-03 -0.165687D-02 -0.153040D-01
     30 -0.469441D-01  0.269121D-01 -0.307551D-02  0.150619D-02 -0.272972D-01
     31  0.340991D-02  0.104915D-02 -0.315399D-02  0.133979D-02  0.210257D-04
     32  0.349248D-02  0.205376D-03  0.790423D-03  0.712779D-05  0.111245D-02
     33 -0.743905D-03 -0.144903D-02  0.106790D-02 -0.300062D-03  0.191658D-02
     34 -0.619005D-03 -0.373460D-04  0.128859D-03 -0.522784D-04 -0.185458D-03
     35  0.280854D-04 -0.918333D-04 -0.158992D-03  0.607044D-04  0.656587D-04
     36  0.104031D-05  0.707975D-04  0.269557D-03 -0.839353D-04 -0.241181D-03
     37 -0.274308D-03  0.210948D-03  0.925784D-03 -0.961283D-03  0.299595D-03
     38 -0.157689D-03 -0.254739D-03 -0.397610D-03  0.415098D-03 -0.318273D-03
     39  0.683383D-03  0.337463D-03 -0.893348D-03  0.542548D-03 -0.725173D-03
               26            27            28            29            30
     26  0.113159D+00
     27  0.109016D+00  0.238947D+00
     28  0.525970D-03 -0.155212D-03  0.333608D+00
     29  0.103043D-02  0.596599D-03 -0.278196D-01  0.537341D-01
     30  0.315823D-02 -0.686440D-03  0.100164D-01 -0.155326D-02  0.463225D-01
     31 -0.199861D-02 -0.190403D-02  0.153391D-02 -0.357135D-02 -0.943245D-03
     32  0.161406D-03  0.884128D-04  0.158250D-02 -0.696304D-02  0.788142D-03
     33 -0.243926D-02 -0.479378D-03  0.309050D-03 -0.105485D-02  0.702944D-04
     34  0.121878D-02  0.734704D-03  0.190086D-03  0.290248D-03  0.510068D-03
     35  0.246749D-03  0.217000D-03 -0.327459D-03  0.934070D-03  0.355050D-04
     36  0.820580D-03  0.339191D-03  0.698065D-04  0.231387D-03  0.443471D-04
     37  0.246488D-03  0.539786D-03 -0.271201D-03  0.347031D-02 -0.136830D-03
     38  0.318072D-03  0.124495D-03  0.205073D-04  0.326083D-03 -0.481650D-04
     39  0.107293D-02  0.238925D-03  0.489266D-04 -0.108682D-02  0.332868D-03
               31            32            33            34            35
     31  0.655995D+00
     32 -0.180601D+00  0.461819D+00
     33 -0.127550D+00  0.296650D+00  0.598073D+00
     34 -0.994188D-01 -0.387186D-01 -0.659362D-01  0.932541D-01
     35 -0.447422D-01 -0.972188D-01 -0.652827D-01  0.322307D-01  0.910778D-01
     36 -0.732454D-01 -0.632337D-01 -0.172627D+00  0.663031D-01  0.106915D+00
     37 -0.361081D+00  0.222469D+00  0.230647D+00  0.166755D-01  0.875414D-02
     38  0.226356D+00 -0.267108D+00 -0.223919D+00  0.181753D-01 -0.688344D-02
     39  0.236501D+00 -0.224867D+00 -0.316480D+00  0.249553D-01 -0.352616D-01
               36            37            38            39
     36  0.192456D+00
     37  0.115715D-01  0.389468D+00
     38 -0.327493D-01 -0.265854D+00  0.261423D+00
     39 -0.234213D-01 -0.273289D+00  0.265593D+00  0.321376D+00
 FrcOut:
 IF    =   896 IFX   =   935 IFXYZ =   974
 IFFX  =  1013 IFFFX =  1793 IFLen =    39
 IFFLen=   780 IFFFLn=     0 IEDerv=  1793
 LEDerv=  1925 IFroze=  3722 ICStrt= 42225
 DipoleDeriv   =-2.83938301D-01 1.12719483D-01-1.99396653D-02
                 6.14833823D-02 9.06455573D-02-5.23184246D-02
                -3.71672728D-02-2.81582043D-02 1.18096446D-01
                 1.18198388D-02-1.47593505D-02 3.42850773D-02
                -3.36778594D-02-1.41846740D-03 5.13165068D-02
                 1.14997832D-02 6.78203500D-02-1.17988902D-01
                 8.58257331D-02 1.32380612D-03-3.53629253D-02
                 1.36322981D-02 1.21956153D-02-4.72114389D-02
                -1.58501891D-02-2.55380010D-02 4.31570341D-02
                -1.62299893D-01-3.62892243D-03-4.52621592D-02
                 2.31045407D-02 6.88515539D-02-1.12908756D-02
                -1.71098255D-02-1.64561333D-02 4.01993499D-02
                 7.14940011D-02 6.07710285D-02-6.77852964D-05
                 2.69883685D-02-1.24965220D-01-1.71186010D-02
                -1.57983907D-02 2.85494263D-03 4.15211692D-02
                 3.43657119D-02-4.25664372D-02 8.21868266D-02
                -4.79158902D-02 1.80410013D-02 7.70419193D-02
                 3.23030694D-02 3.79496909D-02-7.21873818D-02
                 5.29596926D-02 1.53787675D-02-1.23939874D-02
                -5.07504902D-02 7.52236866D-02-1.67759630D-02
                -4.29524751D-02-3.09570014D-02 9.83391341D-02
                 3.19213226D-02-3.71766246D-02 7.74481127D-02
                 1.98107117D-03-2.83743144D-03 4.51687469D-02
                 5.59428824D-02 1.00059468D-01-6.87288974D-02
                 5.53622643D-02-4.83454526D-02-7.49837527D-02
                -2.40913426D-02-2.16405893D-02-6.67292977D-02
                -5.64215091D-02-1.06463670D-01-8.36447223D-02
                -1.45714089D-01 4.95240004D-02-6.84438369D-03
                 2.23950323D-02 2.91062383D-02 5.82770856D-03
                -1.41252501D-02 9.02894920D-03 7.40396214D-02
                 1.11693965D+00-3.13369450D-01-3.06315924D-02
                -1.47733411D-01 3.89214533D-01 3.92834401D-01
                 2.74312162D-02 3.83053282D-01 6.71729296D-01
                -5.94454585D-02-4.65957982D-02-9.98555986D-02
                -7.13080063D-02-3.69390513D-02-1.50143796D-01
                -1.14634964D-01-1.37579247D-01-1.93802583D-01
                -8.09290477D-01 2.66724950D-01 1.31421834D-01
                 2.25892306D-01-4.95477426D-01-2.10600885D-01
                 1.86882926D-01-2.55614426D-01-5.50729563D-01
 Full mass-weighted force constant matrix:
 Low frequencies ---  -16.3176   -6.3402   -0.0007    0.0007    0.0008    9.3535
 Low frequencies ---   93.1462  195.6939  230.3597
 Dipole derivatives wrt mode   1:  4.74027D-01  1.76436D+00 -1.15233D+00
 Vibrational polarizability contributions from mode   1       0.6969734       9.6557429       4.1187364
 Vibrational hyperpolarizability contributions from mode   1       0.0000000       0.0000000       0.0000000
 Dipole derivatives wrt mode   2:  2.11775D-01  2.20594D-01 -1.50918D-01
 Vibrational polarizability contributions from mode   2       0.0315167       0.0341961       0.0160056
 Vibrational hyperpolarizability contributions from mode   2       0.0000000       0.0000000       0.0000000
 Dipole derivatives wrt mode   3:  7.36938D-01  6.13354D-01  3.99505D-01
 Vibrational polarizability contributions from mode   3       0.2754176       0.1907883       0.0809418
 Vibrational hyperpolarizability contributions from mode   3       0.0000000       0.0000000       0.0000000
 Dipole derivatives wrt mode   4:  2.18068D+00  2.57739D-01  1.53670D+00
 Vibrational polarizability contributions from mode   4       1.7244699       0.0240897       0.8563481
 Vibrational hyperpolarizability contributions from mode   4       0.0000000       0.0000000       0.0000000
 Dipole derivatives wrt mode   5:  1.17885D-01 -2.51386D-02  6.60972D-01
 Vibrational polarizability contributions from mode   5       0.0031742       0.0001443       0.0997887
 Vibrational hyperpolarizability contributions from mode   5       0.0000000       0.0000000       0.0000000
 Dipole derivatives wrt mode   6:  9.20693D-01  2.39611D-01 -3.27983D-01
 Vibrational polarizability contributions from mode   6       0.1393927       0.0094411       0.0176895
 Vibrational hyperpolarizability contributions from mode   6       0.0000000       0.0000000       0.0000000
 Dipole derivatives wrt mode   7:  1.54121D+00 -1.02908D-01  1.19229D+00
 Vibrational polarizability contributions from mode   7       0.1564317       0.0006974       0.0936182
 Vibrational hyperpolarizability contributions from mode   7       0.0000000       0.0000000       0.0000000
 Dipole derivatives wrt mode   8: -3.48158D+00 -2.85161D-01 -1.22101D+00
 Vibrational polarizability contributions from mode   8       0.5190048       0.0034818       0.0638347
 Vibrational hyperpolarizability contributions from mode   8       0.0000000       0.0000000       0.0000000
 Dipole derivatives wrt mode   9: -3.54289D+00  1.20239D+00 -4.12432D-01
 Vibrational polarizability contributions from mode   9       0.4037516       0.0465038       0.0054715
 Vibrational hyperpolarizability contributions from mode   9       0.0000000       0.0000000       0.0000000
 Dipole derivatives wrt mode  10: -2.26501D+00  5.29025D-01 -1.54555D+00
 Vibrational polarizability contributions from mode  10       0.1612461       0.0087963       0.0750788
 Vibrational hyperpolarizability contributions from mode  10       0.0000000       0.0000000       0.0000000
 Dipole derivatives wrt mode  11: -2.53631D+00 -8.38930D-01 -8.97861D-01
 Vibrational polarizability contributions from mode  11       0.1944554       0.0212748       0.0243687
 Vibrational hyperpolarizability contributions from mode  11       0.0000000       0.0000000       0.0000000
 Dipole derivatives wrt mode  12: -8.97735D-01  4.17703D-01  1.20563D-01
 Vibrational polarizability contributions from mode  12       0.0229069       0.0049591       0.0004131
 Vibrational hyperpolarizability contributions from mode  12       0.0000000       0.0000000       0.0000000
 Dipole derivatives wrt mode  13: -2.26095D+00  3.58693D-01 -3.67908D-01
 Vibrational polarizability contributions from mode  13       0.1078818       0.0027153       0.0028566
 Vibrational hyperpolarizability contributions from mode  13       0.0000000       0.0000000       0.0000000
 Dipole derivatives wrt mode  14: -1.03968D+00  1.08916D+00 -7.95023D-01
 Vibrational polarizability contributions from mode  14       0.0218381       0.0239662       0.0127696
 Vibrational hyperpolarizability contributions from mode  14       0.0000000       0.0000000       0.0000000
 Dipole derivatives wrt mode  15: -6.13654D-01 -3.32729D-01  1.94984D-02
 Vibrational polarizability contributions from mode  15       0.0070386       0.0020693       0.0000071
 Vibrational hyperpolarizability contributions from mode  15       0.0000000       0.0000000       0.0000000
 Dipole derivatives wrt mode  16: -7.24340D-01  1.73195D-01  3.75841D-01
 Vibrational polarizability contributions from mode  16       0.0082920       0.0004741       0.0022325
 Vibrational hyperpolarizability contributions from mode  16       0.0000000       0.0000000       0.0000000
 Dipole derivatives wrt mode  17: -1.64765D+00  6.32339D-02  9.67018D-02
 Vibrational polarizability contributions from mode  17       0.0399912       0.0000589       0.0001378
 Vibrational hyperpolarizability contributions from mode  17       0.0000000       0.0000000       0.0000000
 Dipole derivatives wrt mode  18: -5.37480D-02 -2.20392D+00 -1.31781D+00
 Vibrational polarizability contributions from mode  18       0.0000394       0.0663045       0.0237060
 Vibrational hyperpolarizability contributions from mode  18       0.0000000       0.0000000       0.0000000
 Dipole derivatives wrt mode  19:  7.24264D-01  6.96283D-01  4.01109D-01
 Vibrational polarizability contributions from mode  19       0.0071253       0.0065854       0.0021854
 Vibrational hyperpolarizability contributions from mode  19       0.0000000       0.0000000       0.0000000
 Dipole derivatives wrt mode  20:  8.05218D-01  4.53734D-01  2.67237D+00
 Vibrational polarizability contributions from mode  20       0.0085176       0.0027046       0.0938178
 Vibrational hyperpolarizability contributions from mode  20       0.0000000       0.0000000       0.0000000
 Dipole derivatives wrt mode  21:  1.54529D-01  7.83645D-01  2.21033D-02
 Vibrational polarizability contributions from mode  21       0.0002908       0.0074779       0.0000059
 Vibrational hyperpolarizability contributions from mode  21       0.0000000       0.0000000       0.0000000
 Dipole derivatives wrt mode  22: -1.96615D-01 -1.93418D+00  2.94455D-01
 Vibrational polarizability contributions from mode  22       0.0004675       0.0452376       0.0010484
 Vibrational hyperpolarizability contributions from mode  22       0.0000000       0.0000000       0.0000000
 Dipole derivatives wrt mode  23: -1.10112D+00 -6.32709D-01  2.75683D+00
 Vibrational polarizability contributions from mode  23       0.0143859       0.0047498       0.0901755
 Vibrational hyperpolarizability contributions from mode  23       0.0000000       0.0000000       0.0000000
 Dipole derivatives wrt mode  24:  3.63887D+00  3.00852D-01 -1.19685D-01
 Vibrational polarizability contributions from mode  24       0.1562108       0.0010678       0.0001690
 Vibrational hyperpolarizability contributions from mode  24       0.0000000       0.0000000       0.0000000
 Dipole derivatives wrt mode  25:  9.69251D+00 -6.72661D+00 -5.72299D+00
 Vibrational polarizability contributions from mode  25       0.7678624       0.3698311       0.2677047
 Vibrational hyperpolarizability contributions from mode  25       0.0000000       0.0000000       0.0000000
 Dipole derivatives wrt mode  26:  5.54072D+00  5.12336D+00  9.25166D+00
 Vibrational polarizability contributions from mode  26       0.1021674       0.0873556       0.2848522
 Vibrational hyperpolarizability contributions from mode  26       0.0000000       0.0000000       0.0000000
 Dipole derivatives wrt mode  27: -3.37934D-01  1.47717D+00 -4.23872D+00
 Vibrational polarizability contributions from mode  27       0.0003470       0.0066301       0.0545921
 Vibrational hyperpolarizability contributions from mode  27       0.0000000       0.0000000       0.0000000
 Dipole derivatives wrt mode  28: -3.84526D-01  5.02511D+00  8.46086D-01
 Vibrational polarizability contributions from mode  28       0.0004347       0.0742355       0.0021045
 Vibrational hyperpolarizability contributions from mode  28       0.0000000       0.0000000       0.0000000
 Dipole derivatives wrt mode  29: -2.47169D+00 -6.66973D-01 -3.20134D+00
 Vibrational polarizability contributions from mode  29       0.0178179       0.0012974       0.0298904
 Vibrational hyperpolarizability contributions from mode  29       0.0000000       0.0000000       0.0000000
 Dipole derivatives wrt mode  30:  7.56462D-01  5.18840D-01  5.37424D+00
 Vibrational polarizability contributions from mode  30       0.0016149       0.0007597       0.0815068
 Vibrational hyperpolarizability contributions from mode  30       0.0000000       0.0000000       0.0000000
 Dipole derivatives wrt mode  31: -1.12113D+00 -1.42714D-02 -1.62666D+00
 Vibrational polarizability contributions from mode  31       0.0035247       0.0000006       0.0074200
 Vibrational hyperpolarizability contributions from mode  31       0.0000000       0.0000000       0.0000000
 Dipole derivatives wrt mode  32: -6.25144D+00 -1.70490D+00  2.32824D+00
 Vibrational polarizability contributions from mode  32       0.1093136       0.0081304       0.0151625
 Vibrational hyperpolarizability contributions from mode  32       0.0000000       0.0000000       0.0000000
 Dipole derivatives wrt mode  33:  1.79811D+00 -4.06326D+00  1.38360D+00
 Vibrational polarizability contributions from mode  33       0.0089867       0.0458902       0.0053210
 Vibrational hyperpolarizability contributions from mode  33       0.0000000       0.0000000       0.0000000
 Diagonal vibrational polarizability:
        5.7128895      10.7576575       6.4299610
 Harmonic frequencies (cm**-1), IR intensities (KM/Mole), Raman scattering
 activities (A**4/AMU), depolarization ratios for plane and unpolarized
 incident light, reduced masses (AMU), force constants (mDyne/A),
 and normal coordinates:
                           1         2         3         4         5
                           A         A         A         A         A
       Frequencies ---    93.1454  195.6912  230.3573  272.4154  343.2485
    Reduced masses ---     2.6817    1.0637    1.1263    2.9610    2.2005
   Force constants ---     0.0137    0.0240    0.0352    0.1295    0.1528
    IR Intensities ---     4.6655    0.1163    1.0789    7.1833    0.4514
 Coord Atom Element:
   1     1     6          0.05064   0.00810   0.00523  -0.00767   0.08382
   2     1     6          0.05631   0.00736   0.00967   0.06102   0.03070
   3     1     6         -0.04324  -0.00272   0.02369   0.09143   0.06034
   1     2     1          0.16805   0.02684   0.00565  -0.07673   0.09008
   2     2     1         -0.05239  -0.01467   0.00435   0.06966   0.04127
   3     2     1         -0.03131  -0.00339   0.02038   0.05769   0.07015
   1     3     6          0.03566   0.02816   0.04074   0.26635  -0.03545
   2     3     6          0.04807   0.00661  -0.01667  -0.01457   0.14608
   3     3     6         -0.03396  -0.01014   0.02697   0.03991   0.05090
   1     4     1          0.00979   0.07504   0.06367   0.26315  -0.03778
   2     4     1         -0.17967   0.40904   0.15537  -0.31644   0.28141
   3     4     1          0.12163  -0.29295  -0.12106  -0.07858   0.14416
   1     5     1          0.27872  -0.39464  -0.14241   0.57563  -0.15069
   2     5     1          0.11193  -0.10137  -0.06155   0.07280   0.10905
   3     5     1         -0.15353   0.21197   0.15961   0.03520  -0.09889
   1     6     1         -0.18764   0.42698   0.23709   0.25804  -0.07323
   2     6     1          0.21937  -0.29815  -0.17717   0.13620   0.21059
   3     6     1         -0.06727   0.04713   0.05021   0.10728   0.06180
   1     7     6         -0.13558  -0.04483  -0.01678  -0.04468  -0.15611
   2     7     6          0.00295  -0.00686   0.00459   0.05152  -0.03202
   3     7     6          0.07629   0.02525   0.01963  -0.01916  -0.11738
   1     8     1         -0.26468  -0.29408   0.38483  -0.20162  -0.19887
   2     8     1          0.11972  -0.03330   0.13362  -0.05146  -0.07495
   3     8     1          0.07924  -0.10991   0.28599  -0.15241  -0.16164
   1     9     1         -0.13683   0.17701  -0.46407   0.08967  -0.39031
   2     9     1         -0.01060   0.04743  -0.10009   0.17301   0.20280
   3     9     1          0.08496  -0.09517   0.25977  -0.14292  -0.16248
   1    10     1         -0.15268  -0.05872  -0.00240  -0.05439  -0.18386
   2    10     1         -0.12642  -0.04200  -0.02982   0.02044  -0.31753
   3    10     1          0.16209   0.31300  -0.49187   0.14606  -0.26447
   1    11     6          0.07310   0.01264   0.01241  -0.02749   0.09353
   2    11     6          0.13138   0.01795   0.03093  -0.03712  -0.10122
   3    11     6         -0.12313  -0.01693  -0.02562   0.06013   0.06696
   1    12     1          0.16282   0.02784   0.07827   0.13304   0.10834
   2    12     1          0.48429   0.05211   0.09488  -0.20959  -0.35405
   3    12     1         -0.37998  -0.04464  -0.09494   0.09354   0.21688
   1    13     8         -0.01016  -0.00219  -0.04133  -0.20210   0.06337
   2    13     8         -0.21477  -0.02000  -0.02263  -0.03901  -0.03888
   3    13     8          0.10466   0.00177  -0.03780  -0.13342  -0.03338
                           6         7         8         9        10
                           A         A         A         A         A
       Frequencies ---   404.5397  639.2446  792.7890  914.6761  925.3195
    Reduced masses ---     2.0657    3.3736    3.2239    1.4359    1.5902
   Force constants ---     0.1992    0.8122    1.1938    0.7078    0.8022
    IR Intensities ---     1.0127    3.8075   13.6936   14.1679    7.7989
 Coord Atom Element:
   1     1     6         -0.03651   0.24250   0.03673   0.06988   0.09398
   2     1     6         -0.13251   0.01953   0.05884  -0.06873  -0.05123
   3     1     6          0.14477  -0.12940  -0.11361   0.01165   0.04686
   1     2     1         -0.04392   0.18390   0.24043  -0.13472   0.52422
   2     2     1         -0.14305  -0.03962   0.06904   0.30413  -0.16299
   3     2     1          0.12781  -0.17875   0.00876   0.08411   0.22326
   1     3     6          0.00741  -0.00715   0.08520   0.01806  -0.00585
   2     3     6          0.10769  -0.01955   0.14579  -0.04877  -0.08068
   3     3     6         -0.00451  -0.05142   0.19538   0.01783  -0.03480
   1     4     1          0.02030  -0.04257   0.09036   0.02682   0.00763
   2     4     1          0.22134   0.21133   0.06221   0.14622   0.07714
   3     4     1         -0.07935   0.41146   0.15588   0.03870  -0.08235
   1     5     1         -0.06116  -0.25732   0.17940  -0.08961  -0.07950
   2     5     1          0.07908  -0.08607   0.18073  -0.08981  -0.11138
   3     5     1         -0.28153  -0.04362   0.35201  -0.30148  -0.31473
   1     6     1          0.10184  -0.31345   0.11902   0.01847   0.04327
   2     6     1          0.34062  -0.18320   0.05548   0.18621   0.12382
   3     6     1          0.15070  -0.27758   0.17026   0.12642   0.08221
   1     7     6          0.07752   0.07000   0.05759   0.04908  -0.00622
   2     7     6         -0.14026  -0.13361  -0.15734   0.08776   0.09448
   3     7     6         -0.06669  -0.00978  -0.02352  -0.03288   0.05430
   1     8     1          0.15444  -0.06639  -0.01700  -0.25533   0.05167
   2     8     1         -0.39315   0.06495  -0.01914   0.44647  -0.16894
   3     8     1         -0.17537   0.03694   0.02077   0.03100  -0.07052
   1     9     1          0.12273   0.01283   0.01801  -0.16934  -0.06647
   2     9     1          0.03152  -0.19066  -0.25441   0.00985   0.37447
   3     9     1         -0.18675   0.04685   0.04484   0.09967  -0.08968
   1    10     1          0.09384   0.04742   0.04315  -0.01065  -0.00133
   2    10     1         -0.02267  -0.32686  -0.29637  -0.38160   0.06253
   3    10     1         -0.13467   0.07429   0.02317   0.13030  -0.13937
   1    11     6         -0.00682   0.02725  -0.21966  -0.07980  -0.07157
   2    11     6          0.09342   0.13164  -0.02902  -0.08668   0.05582
   3    11     6         -0.01046   0.15270  -0.18920   0.01232  -0.09636
   1    12     1          0.09486   0.06414  -0.51464  -0.06717  -0.26196
   2    12     1          0.44781  -0.06159  -0.20019   0.34791  -0.33073
   3    12     1         -0.27459   0.25543   0.04579  -0.26372   0.22721
   1    13     8         -0.06164  -0.22612   0.02012   0.00001  -0.02147
   2    13     8          0.01839   0.04004   0.01166   0.02626  -0.00522
   3    13     8          0.00644   0.00796   0.04648  -0.00322   0.03283
                          11        12        13        14        15
                           A         A         A         A         A
       Frequencies ---   943.5380  973.0432 1129.2305 1154.1371 1199.9059
    Reduced masses ---     1.2551    1.4810    1.8732    2.0650    1.7364
   Force constants ---     0.6583    0.8262    1.4074    1.6206    1.4729
    IR Intensities ---     7.9428    0.9949    5.3759    2.8993    0.4877
 Coord Atom Element:
   1     1     6          0.03312   0.00149  -0.10125   0.07193   0.05995
   2     1     6         -0.00293  -0.08756   0.10123   0.20245  -0.05392
   3     1     6          0.02375  -0.03746   0.12785   0.00920   0.16116
   1     2     1         -0.12132  -0.09125  -0.36971   0.29302   0.33850
   2     2     1         -0.24438  -0.28016   0.32417   0.35100   0.02376
   3     2     1         -0.17781  -0.18168   0.08584   0.21194   0.35167
   1     3     6          0.01743   0.12177   0.09954   0.00479  -0.00286
   2     3     6          0.04466   0.01098  -0.05558  -0.06702   0.07897
   3     3     6         -0.04960   0.05971  -0.07800  -0.04425  -0.10920
   1     4     1         -0.01048   0.08963   0.06138   0.01173  -0.03378
   2     4     1         -0.10808   0.33025   0.21619   0.09795  -0.23597
   3     4     1          0.15670   0.53547   0.35916  -0.04025   0.05638
   1     5     1          0.02119  -0.23313  -0.28434  -0.07160   0.01851
   2     5     1          0.05784  -0.09017  -0.16130  -0.09070   0.09319
   3     5     1          0.32156  -0.08122  -0.16227  -0.22946   0.30722
   1     6     1         -0.12558  -0.20665  -0.28539  -0.05468  -0.06508
   2     6     1         -0.29460   0.01647  -0.04604   0.05940  -0.33571
   3     6     1         -0.27354  -0.09559  -0.25965  -0.02294  -0.32556
   1     7     6          0.03612  -0.09139   0.05300  -0.07648  -0.03624
   2     7     6          0.03189   0.06935  -0.05493  -0.09086   0.01615
   3     7     6          0.07624  -0.01974   0.01102   0.04499  -0.10461
   1     8     1         -0.05455   0.14036  -0.06625   0.24246   0.04902
   2     8     1         -0.25910  -0.01388  -0.02037  -0.37982   0.30205
   3     8     1         -0.13488   0.04170  -0.01936   0.03145   0.10855
   1     9     1         -0.16348   0.16297  -0.07282   0.18941   0.07255
   2     9     1          0.48832  -0.10164  -0.01550  -0.07789  -0.35040
   3     9     1         -0.11712  -0.01980   0.03787  -0.06965   0.07789
   1    10     1          0.01317  -0.04514   0.02866  -0.02331  -0.02948
   2    10     1         -0.24744   0.48873  -0.25143   0.28512   0.15433
   3    10     1         -0.16006   0.00618   0.03581  -0.08690   0.20004
   1    11     6         -0.05797  -0.02803  -0.02084  -0.07259  -0.04299
   2    11     6         -0.06405  -0.02999   0.06512  -0.13546  -0.02324
   3    11     6          0.00192  -0.00679  -0.09679   0.04544  -0.02265
   1    12     1         -0.03904  -0.02470   0.05269   0.03760  -0.05588
   2    12     1          0.23845   0.07517  -0.33732   0.36281   0.01174
   3    12     1         -0.19506  -0.07791   0.12313  -0.30433  -0.03357
   1    13     8          0.00871   0.01022   0.03611   0.01493  -0.00194
   2    13     8          0.01607   0.00117  -0.02352   0.02988   0.00776
   3    13     8         -0.00269  -0.00480   0.01432  -0.00941   0.00971
                          16        17        18        19        20
                           A         A         A         A         A
       Frequencies ---  1304.9075 1351.6007 1404.0753 1407.5393 1431.2646
    Reduced masses ---     1.3757    1.6922    1.2370    1.1866    1.2336
   Force constants ---     1.3801    1.8214    1.4369    1.3851    1.4889
    IR Intensities ---     0.6959    2.7281    6.5968    1.1703    7.9958
 Coord Atom Element:
   1     1     6          0.08380   0.16977  -0.01810  -0.00279  -0.00002
   2     1     6         -0.11855   0.06075  -0.01833   0.03363   0.02588
   3     1     6         -0.03606   0.11019  -0.02197   0.03038   0.02922
   1     2     1         -0.40662  -0.60939   0.05945  -0.07027  -0.04691
   2     2     1          0.76558  -0.29751   0.03216  -0.06896  -0.07158
   3     2     1          0.13289  -0.48970   0.04361  -0.05360  -0.03801
   1     3     6         -0.01124  -0.06443   0.02996   0.02989  -0.02971
   2     3     6          0.04051  -0.02565   0.04326   0.02038  -0.05247
   3     3     6         -0.01084   0.02278   0.06176   0.05340  -0.07729
   1     4     1         -0.01453  -0.03966   0.03486   0.04021  -0.04261
   2     4     1         -0.07977  -0.05804  -0.18796  -0.14134   0.22045
   3     4     1          0.03194  -0.22895  -0.23856  -0.27381   0.29995
   1     5     1          0.06974   0.11420  -0.16372  -0.16967   0.16853
   2     5     1          0.06346   0.00855  -0.03280  -0.05450   0.02880
   3     5     1          0.09928  -0.17722  -0.26051  -0.24541   0.32053
   1     6     1          0.06650   0.08891  -0.15975  -0.20684   0.17919
   2     6     1         -0.09269  -0.04973  -0.21037  -0.14710   0.26342
   3     6     1         -0.03301   0.07982  -0.16307  -0.15315   0.18465
   1     7     6         -0.05782  -0.04576  -0.02482   0.01043  -0.01830
   2     7     6         -0.00215   0.00025   0.11120  -0.03662   0.06233
   3     7     6          0.05902  -0.03390   0.00640  -0.01122  -0.01453
   1     8     1          0.09544   0.16886   0.16907  -0.02647   0.17705
   2     8     1         -0.19332   0.01626  -0.41008   0.10968  -0.24254
   3     8     1          0.02006   0.08169  -0.17725   0.05254  -0.08145
   1     9     1          0.10450   0.14836   0.20584  -0.09988   0.09180
   2     9     1          0.11692  -0.14049  -0.39175   0.10228  -0.25053
   3     9     1         -0.07423  -0.02335   0.18624  -0.03688   0.11965
   1    10     1         -0.03116  -0.03563  -0.07089   0.02316  -0.05055
   2    10     1          0.17008   0.02406  -0.46252   0.13456  -0.28329
   3    10     1         -0.10789   0.08462  -0.04493   0.07371   0.08033
   1    11     6          0.01178  -0.06297   0.00490   0.05803   0.03467
   2    11     6          0.03944   0.01412   0.00149   0.00884   0.01365
   3    11     6         -0.01867  -0.06531   0.00507   0.02469   0.02381
   1    12     1         -0.16682   0.07712   0.08344  -0.71613  -0.48078
   2    12     1         -0.03741  -0.16102  -0.01825   0.28302   0.19506
   3    12     1          0.09653  -0.03112  -0.01278   0.20399   0.15093
   1    13     8         -0.00207   0.00804  -0.00393   0.00556   0.01029
   2    13     8         -0.01435   0.00434   0.00271  -0.03339  -0.02822
   3    13     8         -0.00553   0.01905   0.00359  -0.04570  -0.03620
                          21        22        23        24        25
                           A         A         A         A         A
       Frequencies ---  1486.6064 1491.8108 1506.0241 1510.3516 1814.5179
    Reduced masses ---     1.0411    1.0483    1.0434    1.0606   10.5863
[...]
     27  0.258136D-01 -0.267589D-01  0.307585D-02 -0.199788D-02 -0.686688D-02
     28  0.200246D-03  0.350645D-03 -0.590611D-04 -0.281702D-02  0.182571D-03
     29  0.137828D-02  0.221751D-02  0.778375D-03 -0.264922D-02 -0.892024D-04
     30 -0.133030D-03  0.287227D-03 -0.479128D-03 -0.438099D-02  0.843220D-04
     31 -0.212067D-03 -0.181157D-02  0.322582D-03 -0.335112D-03  0.104328D-04
     32 -0.110114D-02 -0.588725D-04 -0.889122D-04 -0.744881D-03 -0.330253D-04
     33  0.907861D-01 -0.974641D-01  0.974112D-03  0.349248D-02  0.280854D-04
     34 -0.102042D+00  0.116100D-01 -0.165687D-02  0.712779D-05  0.607044D-04
     35 -0.120581D-01  0.109016D+00  0.596599D-03  0.884128D-04  0.217000D-03
     36 -0.307551D-02  0.315823D-02 -0.155326D-02  0.788142D-03  0.355050D-04
     37  0.106790D-02 -0.243926D-02 -0.105485D-02  0.296650D+00 -0.652827D-01
     38  0.269557D-03  0.820580D-03  0.231387D-03 -0.632337D-01  0.106915D+00
     39 -0.893348D-03  0.107293D-02 -0.108682D-02 -0.224867D+00 -0.352616D-01
               26            27            28            29            30
     26  0.261423D+00
     27 -0.130092D-01  0.538840D+00
     28  0.182785D-02 -0.201314D+00  0.223190D+00
     29 -0.456061D-04 -0.152686D+00 -0.232893D-01  0.496366D+00
     30  0.741862D-03 -0.362898D-02  0.938493D-03 -0.481183D-01  0.519533D-01
     31  0.411813D-03  0.184254D-02  0.852818D-03 -0.481473D-01 -0.139074D-02
     32  0.814412D-03 -0.243120D-01 -0.346895D-02 -0.221003D+00  0.339307D-02
     33 -0.157689D-03 -0.773617D-01 -0.101516D-02  0.347383D-03  0.955983D-03
     34  0.415098D-03 -0.427548D-03  0.115927D-02  0.109702D-02 -0.104641D-04
     35  0.124495D-03  0.152270D-02  0.677319D-03  0.993457D-03 -0.557892D-04
     36 -0.481650D-04 -0.912680D-03  0.180398D-04  0.144150D-03  0.175946D-03
     37 -0.223919D+00 -0.971630D-01  0.152431D-02 -0.650044D-02 -0.536632D-02
     38 -0.327493D-01  0.165064D-02  0.342428D-04  0.205541D-02 -0.410594D-03
     39  0.265593D+00  0.139498D-01  0.692685D-03 -0.125884D-02  0.156440D-02
               31            32            33            34            35
     31  0.517452D-01
     32 -0.105824D-02  0.243545D+00
     33 -0.459962D-02  0.928473D-03  0.565600D+00
     34  0.118269D-03  0.414618D-03 -0.216079D+00  0.232323D+00
     35  0.111565D-03  0.424118D-03 -0.221772D+00 -0.202600D-01  0.238947D+00
     36 -0.759008D-04  0.481523D-05 -0.469441D-01  0.150619D-02 -0.686440D-03
     37  0.746426D-03 -0.753759D-03 -0.743905D-03 -0.300062D-03 -0.479378D-03
     38 -0.149858D-03  0.111958D-03  0.104031D-05 -0.839353D-04  0.339191D-03
     39  0.489618D-05  0.177437D-02  0.683383D-03  0.542548D-03  0.238925D-03
               36            37            38            39
     36  0.463225D-01
     37  0.702944D-04  0.598073D+00
     38  0.443471D-04 -0.172627D+00  0.192456D+00
     39  0.332868D-03 -0.316480D+00 -0.234213D-01  0.321376D+00
 Final forces over variables, Energy=-2.32527239D+02:
  3.95667104D-07 6.11467725D-06-2.64115964D-06 8.55710900D-06
 -5.95429375D-06-5.20555108D-06-2.89613075D-06-4.81690611D-06
 -9.89700148D-07 1.19845441D-05 1.60508229D-04 1.99563978D-06
 -1.67052125D-04-8.05048983D-06 3.18763120D-06-3.69766799D-06
  5.36781151D-07 9.43931689D-06-4.98681142D-06 9.75499645D-06
 -4.70479515D-06-4.74156812D-06-9.10817886D-07-1.31218901D-04
 -3.32166313D-06 1.38713989D-04 9.11205165D-06-5.48072986D-06
 -3.41490620D-06 3.30382670D-06 2.29441636D-06 7.19743563D-06
  5.22726244D-07 6.39915159D-06-1.07470076D-05 2.80243018D-06
 -1.48423901D-04-1.04839373D-05 1.46918444D-04

 GradGradGradGradGradGradGradGradGradGradGradGradGradGradGradGradGradGrad
 Berny optimization.
 Search for a local minimum.
 Step number   1 out of a maximum of   2
 All quantities printed in internal units (Hartrees-Bohrs-Radians)
 Second derivative matrix not updated -- analytic derivatives used.
     Eigenvalues ---    0.00112   0.00183   0.00237   0.00964   0.01104
     Eigenvalues ---    0.01415   0.04097   0.04326   0.05414   0.05749
     Eigenvalues ---    0.06750   0.07154   0.08672   0.10035   0.10667
     Eigenvalues ---    0.11516   0.11865   0.14450   0.18220   0.18938
     Eigenvalues ---    0.23338   0.26021   0.39181   0.43242   0.59501
     Eigenvalues ---    0.68003   0.70280   0.72360   0.76320   0.79121
     Eigenvalues ---    0.82019   0.84648   1.69481
 Angle between quadratic step and forces=  83.17 degrees.
 Linear search not attempted -- first point.
 TrRot= -0.000002 -0.000005  0.000004 -0.000003  0.000009 -0.000003
 Variable       Old X    -DE/DX   Delta X   Delta X   Delta X     New X
                                 (Linear)    (Quad)   (Total)
    X1       -0.80346   0.00000   0.00000   0.00002   0.00001  -0.80345
    Y1       -1.78177  -0.00001   0.00000  -0.00005  -0.00005  -1.78183
    Z1       -0.00088   0.00001   0.00000  -0.00001   0.00000  -0.00088
    X2        0.07487   0.00001   0.00000   0.00013   0.00010   0.07497
    Y2       -0.94791   0.00000   0.00000  -0.00017  -0.00017  -0.94809
    Z2       -1.69342  -0.00001   0.00000  -0.00005  -0.00005  -1.69346
    X3        0.08001   0.00000   0.00000   0.00008   0.00010   0.08011
    Y3       -0.35354   0.00000   0.00000   0.00004   0.00003  -0.35351
    Z3        2.34738   0.00000   0.00000  -0.00008  -0.00007   2.34731
    X4        2.13378   0.00001   0.00000   0.00020   0.00022   2.13400
    Y4       -0.46031   0.00000   0.00000   0.00082   0.00080  -0.45950
    Z4        2.53652   0.00000   0.00000  -0.00062  -0.00064   2.53588
    X5       -0.46960  -0.00001   0.00000  -0.00077  -0.00074  -0.47034
    Y5        1.63238   0.00001   0.00000  -0.00015  -0.00016   1.63222
    Z5        2.26076   0.00000   0.00000   0.00028   0.00028   2.26105
    X6       -0.77026  -0.00001   0.00000   0.00083   0.00086  -0.76940
    Y6       -1.15296   0.00000   0.00000  -0.00049  -0.00049  -1.15346
    Z6        4.05139   0.00001   0.00000   0.00008   0.00009   4.05148
    X7       -0.08655   0.00000   0.00000  -0.00009  -0.00011  -0.08666
    Y7       -4.60260   0.00001   0.00000  -0.00009  -0.00010  -4.60269
    Z7        0.03787   0.00000   0.00000   0.00009   0.00009   0.03797
    X8       -0.88866   0.00000   0.00000  -0.00067  -0.00069  -0.88935
    Y8       -5.54179   0.00000   0.00000  -0.00017  -0.00017  -5.54196
    Z8        1.69554   0.00001   0.00000  -0.00020  -0.00019   1.69535
    X9       -0.76729   0.00000   0.00000   0.00046   0.00041  -0.76687
    Y9       -5.58697   0.00000   0.00000  -0.00001  -0.00001  -5.58697
    Z9       -1.64758  -0.00001   0.00000  -0.00022  -0.00021  -1.64779
   X10        1.96414   0.00001   0.00000  -0.00008  -0.00011   1.96403
   Y10       -4.82485   0.00000   0.00000  -0.00014  -0.00015  -4.82500
   Z10        0.11223   0.00000   0.00000   0.00078   0.00077   0.11299
   X11       -3.62588   0.00016   0.00000   0.00008   0.00007  -3.62581
   Y11       -1.51805  -0.00013   0.00000   0.00004   0.00005  -1.51800
   Z11       -0.43528  -0.00015   0.00000  -0.00012  -0.00008  -0.43536
   X12       -4.34194   0.00000   0.00000   0.00005   0.00002  -4.34193
   Y12       -2.56209   0.00000   0.00000   0.00032   0.00034  -2.56175
   Z12       -2.11947  -0.00001   0.00000  -0.00026  -0.00022  -2.11968
   X13       -5.05194  -0.00017   0.00000  -0.00013  -0.00013  -5.05207
   Y13       -0.31657   0.00014   0.00000   0.00006   0.00008  -0.31649
   Z13        0.86853   0.00015   0.00000   0.00018   0.00023   0.86876
         Item               Value     Threshold  Converged?
 Maximum Force            0.000167     0.000450     YES
 RMS     Force            0.000059     0.000300     YES
 Maximum Displacement     0.000857     0.001800     YES
 RMS     Displacement     0.000338     0.001200     YES
 Predicted change in Energy=-4.524146D-08
 Optimization completed.
    -- Stationary point found.
 GradGradGradGradGradGradGradGradGradGradGradGradGradGradGradGradGradGrad


 Test job not archived.
 1\1\GINC-NODE47\Freq\RB3LYP\CBSB7\C4H8O1\NYEE\15-Jul-2014\0\\# freq no
 symm b3lyp/cbsb7 iop(7/33=1)\\Title Card Required\\0,1\C,-0.425171,-0.
 942873,-0.000464\H,0.039618,-0.501613,-0.896118\C,0.042342,-0.187084,1
 .242182\H,1.12915,-0.243584,1.342269\H,-0.2485,0.863816,1.196345\H,-0.
 407604,-0.610121,2.143905\C,-0.045799,-2.435589,0.020042\H,-0.47026,-2
 .932589,0.897242\H,-0.40603,-2.956495,-0.871863\H,1.039378,-2.553202,0
 .059388\C,-1.918733,-0.803318,-0.23034\H,-2.297658,-1.3558,-1.121574\O
 ,-2.673372,-0.16752,0.459607\\Version=AM64L-G03RevD.01\HF=-232.5272388
 \RMSD=5.800e-09\RMSF=5.882e-05\ZeroPoint=0.1120907\Thermal=0.118411\Di
 pole=0.8026672,-0.4894834,-0.4428208\DipoleDeriv=-0.2839383,0.1127195,
 -0.0199397,0.0614834,0.0906456,-0.0523184,-0.0371673,-0.0281582,0.1180
 964,0.0118198,-0.0147594,0.0342851,-0.0336779,-0.0014185,0.0513165,0.0
 114998,0.0678204,-0.1179889,0.0858257,0.0013238,-0.0353629,0.0136323,0
 .0121956,-0.0472114,-0.0158502,-0.025538,0.043157,-0.1622999,-0.003628
 9,-0.0452622,0.0231045,0.0688516,-0.0112909,-0.0171098,-0.0164561,0.04
 01993,0.071494,0.060771,-0.0000678,0.0269884,-0.1249652,-0.0171186,-0.
 0157984,0.0028549,0.0415212,0.0343657,-0.0425664,0.0821868,-0.0479159,
 0.018041,0.0770419,0.0323031,0.0379497,-0.0721874,0.0529597,0.0153788,
 -0.012394,-0.0507505,0.0752237,-0.016776,-0.0429525,-0.030957,0.098339
 1,0.0319213,-0.0371766,0.0774481,0.0019811,-0.0028374,0.0451687,0.0559
 429,0.1000595,-0.0687289,0.0553623,-0.0483455,-0.0749838,-0.0240913,-0
 .0216406,-0.0667293,-0.0564215,-0.1064637,-0.0836447,-0.1457141,0.0495
 24,-0.0068444,0.022395,0.0291062,0.0058277,-0.0141253,0.0090289,0.0740
 396,1.1169397,-0.3133694,-0.0306316,-0.1477334,0.3892145,0.3928344,0.0
 274312,0.3830533,0.6717293,-0.0594455,-0.0465958,-0.0998556,-0.071308,
 -0.0369391,-0.1501438,-0.114635,-0.1375792,-0.1938026,-0.8092905,0.266
 7249,0.1314218,0.2258923,-0.4954774,-0.2106009,0.1868829,-0.2556144,-0
 .5507296\Polar=50.2071956,-3.3259888,47.7767441,0.9685184,5.8967373,46
 .8748665\PG=C01 [X(C4H8O1)]\NImag=0\\0.46696837,0.02020692,0.44853918,
 -0.01776197,-0.00333903,0.53884012,-0.09486349,-0.04872266,0.08780783,
 0.10195334,-0.04390893,-0.07688535,0.07603756,0.04632434,0.09405680,0.
 08093657,0.07682599,-0.20131363,-0.09260639,-0.08346100,0.22318986,-0.
 08869552,-0.01439921,-0.02527062,0.00494284,0.00718903,0.01111959,0.56
 467000,-0.01348060,-0.10350494,-0.04072897,0.00447948,0.00598933,0.009
 09928,-0.01862600,0.54849752,-0.02489617,-0.04300300,-0.15268619,-0.01
 020457,-0.01417144,-0.02328930,-0.02306613,-0.04102098,0.49636598,-0.0
 0891192,0.00106279,-0.00019411,0.00056364,0.00011177,-0.00038921,-0.30
 592825,0.01440980,-0.02121623,0.33257688,-0.01756537,-0.00061183,-0.00
 095476,0.00059906,0.00045329,0.00040065,0.01521167,-0.04839553,0.00185
 864,-0.01600409,0.04852617,-0.02924475,0.00152731,-0.00362898,0.000223
 20,0.00081419,0.00093849,-0.02011686,0.00187440,-0.04811833,0.02445427
 ,0.00100229,0.05195334,0.00183956,-0.01047883,0.00227202,0.00026306,0.
 00039858,0.00018228,-0.06584624,0.07028936,-0.00460606,-0.00736224,0.0
 3131669,-0.00191855,0.06735747,0.00288801,-0.01438998,0.00140626,0.000
 15134,0.00055854,-0.00034734,0.06805509,-0.29244700,0.01325023,0.00029
 401,0.00029911,0.00029347,-0.07574329,0.31772439,0.00817014,-0.0274212
 0,0.00184254,0.00078061,0.00038174,0.00085282,-0.00434898,0.01490558,-
 0.04814734,-0.00016573,0.00227400,-0.00139074,0.00595271,-0.01267966,0
 .05174519,0.00433558,0.00513610,-0.00896865,-0.00025093,-0.00095675,-0
 .00213538,-0.09262783,-0.04423567,0.09019953,-0.01233118,-0.01338504,0
 .02654943,0.00336964,0.00342484,-0.00818376,0.09658597,0.00812763,0.00
 603819,-0.01419989,-0.00109136,-0.00102580,-0.00320182,-0.04361282,-0.
 08818047,0.08537485,0.00118003,0.00009814,-0.00284154,-0.01397264,-0.0
 1189742,0.02573418,0.04931556,0.09305989,0.01014944,0.01053095,-0.0243
 1202,-0.00245367,-0.00304345,-0.00346895,0.08882736,0.08429799,-0.2210
 0295,-0.00119056,-0.00196849,0.00339307,0.00027483,0.00080331,-0.00105
 824,-0.09747817,-0.09083524,0.24354450,-0.07874663,0.02885146,-0.00859
 319,0.00486786,-0.01387281,0.00125263,0.00356332,-0.01041720,0.0007994
 5,0.00030422,-0.00094731,-0.00008911,-0.00090055,-0.00160293,-0.002496
 01,0.00007682,0.00073923,0.00029459,0.56113640,0.01528303,-0.16082301,
 0.00152220,0.00486943,-0.01963711,0.00099901,0.00325015,-0.02087278,-0
 .00387843,0.00055671,0.00097106,0.00120962,-0.00072351,-0.00027117,-0.
 00158073,0.00026283,0.00165443,0.00142734,0.02543619,0.45113383,-0.006
 06567,0.00539083,-0.07736174,-0.00785922,0.02652444,-0.00101516,0.0077
 1943,-0.02880480,0.00034738,0.00058745,0.00051864,0.00095598,-0.001672
 16,-0.00363313,-0.00459962,0.00018918,-0.00074632,0.00092847,0.0019659
 5,0.00309140,0.56560005,0.00303722,0.00443260,-0.00779823,0.00033823,0
 .00212668,-0.00024628,-0.00004945,-0.00051885,-0.00005133,-0.00005071,
 -0.00008036,0.00015313,-0.00004123,0.00000768,-0.00022507,0.00021103,-
 0.00024612,0.00000997,-0.08890468,-0.04533783,0.08246514,0.09170781,-0
 .01066697,-0.01558337,0.02581360,0.00236338,-0.00603449,0.00020025,-0.
 00049835,0.00175449,0.00137828,-0.00003596,-0.00009137,-0.00013303,0.0
 0027204,0.00045159,-0.00021207,0.00016960,-0.00022629,-0.00110114,-0.0
 4551717,-0.09669784,0.09078606,0.04792127,0.10797822,-0.00144078,0.000
 58937,-0.00042755,-0.00030822,-0.00048820,0.00115927,-0.00052126,-0.00
 054382,0.00109702,-0.00002282,-0.00001724,-0.00001046,-0.00007093,0.00
 002825,0.00011827,0.00024703,0.00033244,0.00041462,0.08226341,0.091705
 63,-0.21607936,-0.09074968,-0.10204248,0.23232344,0.00191640,0.0025440
 4,0.00811969,0.00024925,-0.00047643,-0.00015399,-0.00051274,0.00143964
 ,-0.00015144,0.00032771,0.00023049,0.00018897,0.00046818,0.00040762,0.
 00016751,-0.00001907,-0.00008202,-0.00029753,-0.07593207,-0.03970598,-
 0.07105406,0.00422030,0.00728261,0.01100564,0.07878561,-0.01080912,-0.
 01355411,-0.02675886,-0.00060502,0.00095783,0.00035065,0.00280344,-0.0
 0598783,0.00221751,-0.00004378,0.00020631,0.00028723,-0.00059616,-0.00
 096844,-0.00181157,0.00016475,0.00016457,-0.00005887,-0.03978854,-0.10
 300047,-0.09746410,0.00607763,0.00726659,0.01161000,0.04280419,0.11315
 890,0.00233001,0.00055020,0.00152270,0.00025910,-0.00036871,0.00067732
 ,-0.00000249,-0.00038969,0.00099346,-0.00005567,0.00013717,-0.00005579
 ,-0.00031900,-0.00000091,0.00011156,-0.00009759,0.00027397,0.00042412,
 -0.07042277,-0.09818598,-0.22177243,-0.00942902,-0.01205808,-0.0202599
 9,0.07852219,0.10901554,0.23894675,-0.00678432,0.00073266,-0.00086972,
 0.00075152,0.00010853,-0.00035335,0.00028497,-0.00062318,0.00001435,0.
 00046468,0.00040950,0.00045328,0.00027242,0.00005910,0.00002099,-0.000
 07071,0.00001800,-0.00003327,-0.30864963,0.02450456,-0.00879263,-0.011
 69127,0.00080889,-0.00072863,-0.00963872,0.00052597,-0.00015521,0.3336
 0826,0.03448764,-0.00728323,0.00307585,-0.00059812,0.00203583,-0.00005
 906,0.00064308,0.00171931,0.00077838,-0.00068449,-0.00030848,-0.000479
 13,-0.00020716,0.00022917,0.00032258,-0.00010116,-0.00009656,-0.000088
 91,0.02363610,-0.04630634,0.00097411,-0.01424152,0.00094866,-0.0016568
 7,-0.01530399,0.00103043,0.00059660,-0.02781958,0.05373412,-0.00081215
 ,-0.00038822,-0.00091268,-0.00071105,-0.00018561,0.00001804,0.00071035
 ,0.00002440,0.00014415,-0.00013396,-0.00026190,0.00017595,-0.00011680,
 0.00011948,-0.00007590,0.00011250,0.00001023,0.00000482,-0.00811021,0.
 00137669,-0.04694409,0.02691213,-0.00307551,0.00150619,-0.02729720,0.0
 0315823,-0.00068644,0.01001640,-0.00155326,0.04632246,-0.15796540,-0.0
 0968186,-0.03157315,-0.01534763,0.00279791,0.00118133,-0.01680300,-0.0
 0629349,-0.01148335,0.00058688,0.00077580,0.00053762,0.00096995,0.0024
 8364,0.00075246,0.00089261,-0.00031785,0.00297752,-0.01043244,0.017947
 95,0.00340991,0.00104915,-0.00315399,0.00133979,0.00002103,-0.00199861
 ,-0.00190403,0.00153391,-0.00357135,-0.00094324,0.65599518,-0.01139751
 ,-0.08317446,-0.00199788,-0.01324540,0.00069113,-0.00281702,-0.0190017
 4,0.00264820,-0.00264922,-0.00017494,-0.00228633,-0.00438099,-0.001433
 88,-0.00118759,-0.00033511,0.00016150,0.00067589,-0.00074488,0.0390430
 2,-0.00884848,0.00349248,0.00020538,0.00079042,0.00000713,0.00111245,0
 .00016141,0.00008841,0.00158250,-0.00696304,0.00078814,-0.18060144,0.4
 6181927,-0.03448428,0.00047901,-0.09716303,0.03272897,-0.00269751,0.00
 152431,-0.03341715,0.00176588,-0.00650044,-0.00085170,-0.00379327,-0.0
 0536632,-0.00035726,-0.00092133,0.00074643,-0.00146450,0.00072229,-0.0
 0075376,-0.00009078,-0.00057702,-0.00074391,-0.00144903,0.00106790,-0.
 00030006,0.00191658,-0.00243926,-0.00047938,0.00030905,-0.00105485,0.0
 0007029,-0.12755036,0.29664980,0.59807308,-0.00591294,-0.01240189,-0.0
 2645955,0.00118327,-0.00043029,0.00124934,-0.00592047,0.00209880,0.001
 03230,-0.00051608,-0.00102467,-0.00176515,0.00011080,-0.00017895,0.000
 21524,0.00002759,0.00015447,-0.00016782,0.00054974,-0.00154276,-0.0006
 1901,-0.00003735,0.00012886,-0.00005228,-0.00018546,0.00121878,0.00073
 470,0.00019009,0.00029025,0.00051007,-0.09941877,-0.03871860,-0.065936
 25,0.09325407,0.00375204,0.00970291,-0.00686688,0.00202726,-0.00018878
 ,0.00018257,0.00067696,0.00169869,-0.00008920,-0.00012636,0.00020188,0
 .00008432,0.00018212,0.00002357,0.00001043,-0.00008490,-0.00030021,-0.
 00003303,-0.00231611,0.00086461,0.00002809,-0.00009183,-0.00015899,0.0
 0006070,0.00006566,0.00024675,0.00021700,-0.00032746,0.00093407,0.0000
 3550,-0.04474224,-0.09721884,-0.06528273,0.03223071,0.09107779,-0.0018
 7543,-0.01079506,0.00165064,-0.00337599,-0.00011337,0.00003424,-0.0013
 4330,-0.00041071,0.00205541,-0.00010833,-0.00032186,-0.00041059,0.0001
 8710,0.00013771,-0.00014986,0.00045780,0.00011461,0.00011196,0.0015296
 2,-0.00086467,0.00000104,0.00007080,0.00026956,-0.00008394,-0.00024118
 ,0.00082058,0.00033919,0.00006981,0.00023139,0.00004435,-0.07324543,-0
 .06323372,-0.17262709,0.06630306,0.10691480,0.19245593,-0.03621691,0.0
 3271788,0.02928965,-0.00465097,0.00058836,-0.00003716,0.00292236,0.001
 47792,0.00362966,0.00027638,0.00046363,0.00057452,-0.00050082,-0.00024
 617,-0.00064011,-0.00019952,-0.00021211,-0.00091267,-0.00693236,-0.004
 80078,-0.00027431,0.00021095,0.00092578,-0.00096128,0.00029959,0.00024
 649,0.00053979,-0.00027120,0.00347031,-0.00013683,-0.36108148,0.222468
 66,0.23064670,0.01667551,0.00875414,0.01157147,0.38946848,0.02308322,0
 .01153001,-0.01300920,0.00344828,-0.00097122,0.00182785,-0.00169131,-0
 .00291897,-0.00004561,-0.00054549,0.00093758,0.00074186,0.00069669,0.0
 0187524,0.00041181,0.00012836,0.00003564,0.00081441,-0.00324394,0.0018
 3328,-0.00015769,-0.00025474,-0.00039761,0.00041510,-0.00031827,0.0003
 1807,0.00012449,0.00002051,0.00032608,-0.00004817,0.22635553,-0.267107
 57,-0.22391889,0.01817530,-0.00688344,-0.03274927,-0.26585412,0.261422
 91,0.01499504,-0.01094715,0.01394981,-0.00428059,0.00077137,0.00069268
 ,-0.00028995,-0.00006856,-0.00125884,-0.00071339,0.00112615,0.00156440
 ,0.00019180,0.00154366,0.00000490,0.00057260,-0.00073775,0.00177437,0.
 00169640,0.00375496,0.00068338,0.00033746,-0.00089335,0.00054255,-0.00
 072517,0.00107293,0.00023893,0.00004893,-0.00108682,0.00033287,0.23650
 094,-0.22486713,-0.31648013,0.02495534,-0.03526159,-0.02342129,-0.2732
 8941,0.26559329,0.32137638\\-0.00000040,0.00000805,-0.00000911,-0.0000
 0611,-0.00000319,0.00000548,0.00000264,0.00000370,0.00000341,-0.000008
 56,-0.00000054,-0.00000330,0.00000595,-0.00000944,-0.00000229,0.000005
 21,0.00000499,-0.00000720,0.00000290,-0.00000975,-0.00000052,0.0000048
 2,0.00000470,-0.00000640,0.00000099,0.00000474,0.00001075,-0.00001198,
 0.00000091,-0.00000280,-0.00016051,0.00013122,0.00014842,-0.00000200,0
 .00000332,0.00001048,0.00016705,-0.00013871,-0.00014692\\\@


 YOU CAN LEAD A BOY TO COLLEGE....
 BUT YOU CANNOT MAKE HIM THINK....
           ELBERT HUBBARD
 Job cpu time:  0 days  0 hours 18 minutes 37.2 seconds.
 File lengths (MBytes):  RWF=     31 Int=      0 D2E=      0 Chk=      7 Scr=      1
 Normal termination of Gaussian 03 at Tue Jul 15 17:50:28 2014.
