 Entering Gaussian System, Link 0=g03
 Input=TS2cbsqb3.gjf
 Output=TS2cbsqb3.log
 Initial command:
 /opt/g03/l1.exe /scratch/nyee/Gau-25002.inp -scrdir=/scratch/nyee/
 Entering Link 1 = /opt/g03/l1.exe PID=     25004.
  
 Copyright (c) 1988,1990,1992,1993,1995,1998,2003,2004, Gaussian, Inc.
                  All Rights Reserved.
  
 This is the Gaussian(R) 03 program.  It is based on the
 the Gaussian(R) 98 system (copyright 1998, Gaussian, Inc.),
 the Gaussian(R) 94 system (copyright 1995, Gaussian, Inc.),
 the Gaussian 92(TM) system (copyright 1992, Gaussian, Inc.),
 the Gaussian 90(TM) system (copyright 1990, Gaussian, Inc.),
 the Gaussian 88(TM) system (copyright 1988, Gaussian, Inc.),
 the Gaussian 86(TM) system (copyright 1986, Carnegie Mellon
 University), and the Gaussian 82(TM) system (copyright 1983,
 Carnegie Mellon University). Gaussian is a federally registered
 trademark of Gaussian, Inc.
  
 This software contains proprietary and confidential information,
 including trade secrets, belonging to Gaussian, Inc.
  
 This software is provided under written license and may be
 used, copied, transmitted, or stored only in accord with that
 written license.
  
 The following legend is applicable only to US Government
 contracts under FAR:
  
                    RESTRICTED RIGHTS LEGEND
  
 Use, reproduction and disclosure by the US Government is
 subject to restrictions as set forth in subparagraphs (a)
 and (c) of the Commercial Computer Software - Restricted
 Rights clause in FAR 52.227-19.
  
 Gaussian, Inc.
 340 Quinnipiac St., Bldg. 40, Wallingford CT 06492
  
  
 ---------------------------------------------------------------
 Warning -- This program may not be used in any manner that
 competes with the business of Gaussian, Inc. or will provide
 assistance to any competitor of Gaussian, Inc.  The licensee
 of this program is prohibited from giving any competitor of
 Gaussian, Inc. access to this program.  By using this program,
 the user acknowledges that Gaussian, Inc. is engaged in the
 business of creating and licensing software in the field of
 computational chemistry and represents and warrants to the
 licensee that it is not a competitor of Gaussian, Inc. and that
 it will not use this program in any manner prohibited above.
 ---------------------------------------------------------------
  

 Cite this work as:
 Gaussian 03, Revision D.01,
 M. J. Frisch, G. W. Trucks, H. B. Schlegel, G. E. Scuseria, 
 M. A. Robb, J. R. Cheeseman, J. A. Montgomery, Jr., T. Vreven, 
 K. N. Kudin, J. C. Burant, J. M. Millam, S. S. Iyengar, J. Tomasi, 
 V. Barone, B. Mennucci, M. Cossi, G. Scalmani, N. Rega, 
 G. A. Petersson, H. Nakatsuji, M. Hada, M. Ehara, K. Toyota, 
 R. Fukuda, J. Hasegawa, M. Ishida, T. Nakajima, Y. Honda, O. Kitao, 
 H. Nakai, M. Klene, X. Li, J. E. Knox, H. P. Hratchian, J. B. Cross, 
 V. Bakken, C. Adamo, J. Jaramillo, R. Gomperts, R. E. Stratmann, 
 O. Yazyev, A. J. Austin, R. Cammi, C. Pomelli, J. W. Ochterski, 
 P. Y. Ayala, K. Morokuma, G. A. Voth, P. Salvador, J. J. Dannenberg, 
 V. G. Zakrzewski, S. Dapprich, A. D. Daniels, M. C. Strain, 
 O. Farkas, D. K. Malick, A. D. Rabuck, K. Raghavachari, 
 J. B. Foresman, J. V. Ortiz, Q. Cui, A. G. Baboul, S. Clifford, 
 J. Cioslowski, B. B. Stefanov, G. Liu, A. Liashenko, P. Piskorz, 
 I. Komaromi, R. L. Martin, D. J. Fox, T. Keith, M. A. Al-Laham, 
 C. Y. Peng, A. Nanayakkara, M. Challacombe, P. M. W. Gill, 
 B. Johnson, W. Chen, M. W. Wong, C. Gonzalez, and J. A. Pople, 
 Gaussian, Inc., Wallingford CT, 2004.
 
 ******************************************
 Gaussian 03:  AM64L-G03RevD.01 13-Oct-2005
                 9-Jun-2013 
 ******************************************
 %chk=TS2cbsqb3.chk
 %mem=1000mb
 %nproc=8
 Will use up to    8 processors via shared memory.
 -------------------------------------------------
 # opt=(calcfc,ts,noeigentest) cbs-qb3 nosymm freq
 -------------------------------------------------
 1/5=1,10=4,11=1,14=-1,18=20,26=3,38=1/1,3;
 2/9=110,15=1,17=6,18=5,40=1/2;
 3/5=4,6=6,7=700,11=2,16=1,25=1,30=1,74=-5/1,2,3;
 4//1;
 5/5=2,38=5/2;
 8/6=4,10=90,11=11/1;
 11/6=1,8=1,9=11,15=111,16=1,31=1/1,2,10;
 10/6=1,7=6,31=1/2;
 6/7=2,8=2,9=2,10=2,28=1/1;
 7/10=1,18=20,25=1,30=1/1,2,3,16;
 1/5=1,10=4,11=1,14=-1,18=20/3(3);
 2/9=110,15=1/2;
 6/7=2,8=2,9=2,10=2,19=2,28=1/1;
 99//99;
 2/9=110,15=1/2;
 3/5=4,6=6,7=700,11=2,16=1,25=1,30=1,74=-5/1,2,3;
 4/5=5,16=3/1;
 5/5=2,38=5/2;
 7/30=1/1,2,3,16;
 1/5=1,11=1,14=-1,18=20/3(-5);
 2/9=110,15=1/2;
 6/7=2,8=2,9=2,10=2,19=2,28=1/1;
 99/9=1/99;
 -------------------
 Title Card Required
 -------------------
 Symbolic Z-matrix:
 Charge =  0 Multiplicity = 2
 C                    -1.81166   0.64765   0.41486 
 C                    -1.49883   1.59748   1.50946 
 H                    -2.22045   2.35865   1.77823 
 H                    -0.51148   1.61038   1.95572 
 C                    -1.03821  -0.66157   0.39744 
 H                    -1.42497  -1.35268   1.15528 
 H                    -1.12688  -1.13053  -0.58664 
 H                     0.02238  -0.47893   0.59456 
 O                    -1.24129   1.65492  -0.40936 
 O                    -1.28715   1.12634  -2.06641 
 H                    -1.71968   1.94063  -2.38306 
 C                    -3.30869   0.47751   0.12844 
 H                    -3.77746  -0.12228   0.91547 
 H                    -3.41225  -0.05754  -0.82622 
 O                    -3.98385   1.72316   0.10135 
 H                    -3.44259   2.29419  -0.46985 
 

 GradGradGradGradGradGradGradGradGradGradGradGradGradGradGradGradGradGrad
 Berny optimization.
 Initialization pass.
                           ----------------------------
                           !    Initial Parameters    !
                           ! (Angstroms and Degrees)  !
 --------------------------                            --------------------------
 ! Name  Definition              Value          Derivative Info.                !
 --------------------------------------------------------------------------------
 ! R1    R(1,2)                  1.4826         calculate D2E/DX2 analytically  !
 ! R2    R(1,5)                  1.5207         calculate D2E/DX2 analytically  !
 ! R3    R(1,9)                  1.421          calculate D2E/DX2 analytically  !
 ! R4    R(1,12)                 1.5337         calculate D2E/DX2 analytically  !
 ! R5    R(2,3)                  1.0828         calculate D2E/DX2 analytically  !
 ! R6    R(2,4)                  1.0836         calculate D2E/DX2 analytically  !
 ! R7    R(5,6)                  1.0961         calculate D2E/DX2 analytically  !
 ! R8    R(5,7)                  1.0937         calculate D2E/DX2 analytically  !
 ! R9    R(5,8)                  1.0941         calculate D2E/DX2 analytically  !
 ! R10   R(9,10)                 1.7399         calculate D2E/DX2 analytically  !
 ! R11   R(10,11)                0.9749         calculate D2E/DX2 analytically  !
 ! R12   R(12,13)                1.095          calculate D2E/DX2 analytically  !
 ! R13   R(12,14)                1.0993         calculate D2E/DX2 analytically  !
 ! R14   R(12,15)                1.4171         calculate D2E/DX2 analytically  !
 ! R15   R(15,16)                0.9723         calculate D2E/DX2 analytically  !
 ! A1    A(2,1,5)              116.9155         calculate D2E/DX2 analytically  !
 ! A2    A(2,1,9)               83.6515         calculate D2E/DX2 analytically  !
 ! A3    A(2,1,12)             114.5137         calculate D2E/DX2 analytically  !
 ! A4    A(5,1,9)              113.545          calculate D2E/DX2 analytically  !
 ! A5    A(5,1,12)             113.504          calculate D2E/DX2 analytically  !
 ! A6    A(9,1,12)             111.2303         calculate D2E/DX2 analytically  !
 ! A7    A(1,2,3)              119.538          calculate D2E/DX2 analytically  !
 ! A8    A(1,2,4)              120.2613         calculate D2E/DX2 analytically  !
 ! A9    A(3,2,4)              119.7799         calculate D2E/DX2 analytically  !
 ! A10   A(1,5,6)              110.8203         calculate D2E/DX2 analytically  !
 ! A11   A(1,5,7)              109.7683         calculate D2E/DX2 analytically  !
 ! A12   A(1,5,8)              110.3189         calculate D2E/DX2 analytically  !
 ! A13   A(6,5,7)              108.8522         calculate D2E/DX2 analytically  !
 ! A14   A(6,5,8)              108.8272         calculate D2E/DX2 analytically  !
 ! A15   A(7,5,8)              108.1956         calculate D2E/DX2 analytically  !
 ! A16   A(1,9,10)             109.055          calculate D2E/DX2 analytically  !
 ! A17   A(9,10,11)             93.8575         calculate D2E/DX2 analytically  !
 ! A18   A(1,12,13)            110.1473         calculate D2E/DX2 analytically  !
 ! A19   A(1,12,14)            107.9475         calculate D2E/DX2 analytically  !
 ! A20   A(1,12,15)            111.7842         calculate D2E/DX2 analytically  !
 ! A21   A(13,12,14)           108.4974         calculate D2E/DX2 analytically  !
 ! A22   A(13,12,15)           106.9341         calculate D2E/DX2 analytically  !
 ! A23   A(14,12,15)           111.4914         calculate D2E/DX2 analytically  !
 ! A24   A(12,15,16)           105.2039         calculate D2E/DX2 analytically  !
 ! D1    D(5,1,2,3)           -158.92           calculate D2E/DX2 analytically  !
 ! D2    D(5,1,2,4)             28.5402         calculate D2E/DX2 analytically  !
 ! D3    D(9,1,2,3)             87.8588         calculate D2E/DX2 analytically  !
 ! D4    D(9,1,2,4)            -84.6809         calculate D2E/DX2 analytically  !
 ! D5    D(12,1,2,3)           -22.6109         calculate D2E/DX2 analytically  !
 ! D6    D(12,1,2,4)           164.8493         calculate D2E/DX2 analytically  !
 ! D7    D(2,1,5,6)             76.6131         calculate D2E/DX2 analytically  !
 ! D8    D(2,1,5,7)           -163.1206         calculate D2E/DX2 analytically  !
 ! D9    D(2,1,5,8)            -43.9827         calculate D2E/DX2 analytically  !
 ! D10   D(9,1,5,6)            171.5435         calculate D2E/DX2 analytically  !
 ! D11   D(9,1,5,7)            -68.1903         calculate D2E/DX2 analytically  !
 ! D12   D(9,1,5,8)             50.9477         calculate D2E/DX2 analytically  !
 ! D13   D(12,1,5,6)           -60.1224         calculate D2E/DX2 analytically  !
 ! D14   D(12,1,5,7)            60.1438         calculate D2E/DX2 analytically  !
 ! D15   D(12,1,5,8)           179.2818         calculate D2E/DX2 analytically  !
 ! D16   D(2,1,9,10)           179.929          calculate D2E/DX2 analytically  !
 ! D17   D(5,1,9,10)            63.291          calculate D2E/DX2 analytically  !
 ! D18   D(12,1,9,10)          -66.2021         calculate D2E/DX2 analytically  !
 ! D19   D(2,1,12,13)          -74.2186         calculate D2E/DX2 analytically  !
 ! D20   D(2,1,12,14)          167.483          calculate D2E/DX2 analytically  !
 ! D21   D(2,1,12,15)           44.5153         calculate D2E/DX2 analytically  !
 ! D22   D(5,1,12,13)           63.5855         calculate D2E/DX2 analytically  !
 ! D23   D(5,1,12,14)          -54.7128         calculate D2E/DX2 analytically  !
 ! D24   D(5,1,12,15)         -177.6806         calculate D2E/DX2 analytically  !
 ! D25   D(9,1,12,13)         -166.8997         calculate D2E/DX2 analytically  !
 ! D26   D(9,1,12,14)           74.802          calculate D2E/DX2 analytically  !
 ! D27   D(9,1,12,15)          -48.1658         calculate D2E/DX2 analytically  !
 ! D28   D(1,9,10,11)          127.9857         calculate D2E/DX2 analytically  !
 ! D29   D(1,12,15,16)          48.2945         calculate D2E/DX2 analytically  !
 ! D30   D(13,12,15,16)        168.9196         calculate D2E/DX2 analytically  !
 ! D31   D(14,12,15,16)        -72.636          calculate D2E/DX2 analytically  !
 --------------------------------------------------------------------------------
 Trust Radius=3.00D-01 FncErr=1.00D-07 GrdErr=1.00D-06
 Number of steps in this run=  80 maximum allowed number of steps= 100.
 Search for a saddle point of order  1.
 GradGradGradGradGradGradGradGradGradGradGradGradGradGradGradGradGradGrad

                          Input orientation:                          
 ---------------------------------------------------------------------
 Center     Atomic     Atomic              Coordinates (Angstroms)
 Number     Number      Type              X           Y           Z
 ---------------------------------------------------------------------
    1          6             0       -1.811659    0.647654    0.414857
    2          6             0       -1.498825    1.597475    1.509458
    3          1             0       -2.220449    2.358645    1.778228
    4          1             0       -0.511480    1.610384    1.955721
    5          6             0       -1.038214   -0.661570    0.397443
    6          1             0       -1.424965   -1.352678    1.155281
    7          1             0       -1.126876   -1.130527   -0.586639
    8          1             0        0.022375   -0.478928    0.594557
    9          8             0       -1.241288    1.654919   -0.409362
   10          8             0       -1.287154    1.126336   -2.066410
   11          1             0       -1.719675    1.940632   -2.383058
   12          6             0       -3.308690    0.477514    0.128442
   13          1             0       -3.777464   -0.122284    0.915472
   14          1             0       -3.412252   -0.057544   -0.826216
   15          8             0       -3.983851    1.723162    0.101354
   16          1             0       -3.442593    2.294192   -0.469848
 ---------------------------------------------------------------------
                    Distance matrix (angstroms):
                    1          2          3          4          5
     1  C    0.000000
     2  C    1.482625   0.000000
     3  H    2.225619   1.082755   0.000000
     4  H    2.234184   1.083590   1.874026   0.000000
     5  C    1.520720   2.559692   3.525045   2.804898   0.000000
     6  H    2.167738   2.972255   3.846398   3.202327   1.096141
     7  H    2.152638   3.460342   4.354632   3.788786   1.093709
     8  H    2.159898   2.731765   3.805674   2.550097   1.094103
     9  O    1.421001   1.936878   2.497906   2.475524   2.461360
    10  O    2.580877   3.612978   4.143774   4.124744   3.054366
    11  H    3.083599   3.913849   4.212103   4.515950   3.868725
    12  C    1.533650   2.537150   2.728501   3.527992   2.554395
    13  H    2.169749   2.915919   3.053466   3.840691   2.839485
    14  H    2.144636   3.443205   3.747198   4.351510   2.738292
    15  O    2.444058   2.859005   2.515021   3.938116   3.801499
    16  H    2.480672   2.860297   2.559616   3.865540   3.907654
                    6          7          8          9         10
     6  H    0.000000
     7  H    1.781149   0.000000
     8  H    1.781192   1.772169   0.000000
     9  O    3.395215   2.793426   2.675444   0.000000
    10  O    4.067406   2.703487   3.372311   1.739917   0.000000
    11  H    4.842787   3.607014   4.213692   2.050844   0.974894
    12  C    2.820004   2.803114   3.496861   2.439194   3.053679
    13  H    2.665639   3.209129   3.830008   3.368356   4.080725
    14  H    3.090795   2.536066   3.740698   2.796316   2.730512
    15  O    4.137566   4.096240   4.598075   2.790545   3.511065
    16  H    4.473425   4.135805   4.563897   2.293049   2.925545
                   11         12         13         14         15
    11  H    0.000000
    12  C    3.312599   0.000000
    13  H    4.401184   1.094953   0.000000
    14  H    3.046520   1.099265   1.780744   0.000000
    15  O    3.368396   1.417115   2.027574   2.087588   0.000000
    16  H    2.598812   1.917342   2.805460   2.378777   0.972269
                   16
    16  H    0.000000
 Symmetry turned off by external request.
 Stoichiometry    C4H9O3(2)
 Framework group  C1[X(C4H9O3)]
 Deg. of freedom    42
 Full point group                 C1
 Rotational constants (GHZ):      2.8035998      2.4195522      1.9214404
 Standard basis: CBSB7 (5D, 7F)
 Integral buffers will be    131072 words long.
 Raffenetti 2 integral format.
 Two-electron integral symmetry is turned off.
   180 basis functions,   296 primitive gaussians,   187 cartesian basis functions
    29 alpha electrons       28 beta electrons
       nuclear repulsion energy       334.6963971861 Hartrees.
 NAtoms=   16 NActive=   16 NUniq=   16 SFac= 7.50D-01 NAtFMM=   80 NAOKFM=F Big=F
 One-electron integrals computed using PRISM.
 NBasis=   180 RedAO= T  NBF=   180
 NBsUse=   180 1.00D-06 NBFU=   180
 Harris functional with IExCor=  402 diagonalized for initial guess.
 ExpMin= 1.03D-01 ExpMax= 8.59D+03 ExpMxC= 1.30D+03 IAcc=1 IRadAn=         1 AccDes= 1.00D-06
 HarFok:  IExCor= 402 AccDes= 1.00D-06 IRadAn=         1 IDoV=1
 ScaDFX=  1.000000  1.000000  1.000000  1.000000
 <S**2> of initial guess= 0.7500
 Requested convergence on RMS density matrix=1.00D-08 within 128 cycles.
 Requested convergence on MAX density matrix=1.00D-06.
 Requested convergence on             energy=1.00D-06.
 No special actions if energy rises.
 Integral accuracy reduced to 1.0D-05 until final iterations.
 Initial convergence to 1.0D-05 achieved.  Increase integral accuracy.
 SCF Done:  E(UB+HF-LYP) =  -383.443807151     A.U. after   22 cycles
             Convg  =    0.8032D-08             -V/T =  2.0034
             S**2   =   0.8077
 Annihilation of the first spin contaminant:
 S**2 before annihilation     0.8077,   after     0.7503
 Range of M.O.s used for correlation:     1   180
 NBasis=   180 NAE=    29 NBE=    28 NFC=     0 NFV=     0
 NROrb=    180 NOA=    29 NOB=    28 NVA=   151 NVB=   152
 Symmetrizing basis deriv contribution to polar:
 IMax=3 JMax=2 DiffMx= 0.00D+00
 G2DrvN: will do   17 centers at a time, making    1 passes doing MaxLOS=2.
 FoFDir/FoFCou used for L=0 through L=2.
 DoAtom=TTTTTTTTTTTTTTTT
          Differentiating once with respect to electric field.
                with respect to dipole field.
          Differentiating once with respect to nuclear coordinates.
 Symmetry not used in FoFDir.
 MinBra= 0 MaxBra= 2 Meth= 1.
 IRaf=       0 NMat=  51 IRICut=      51 DoRegI=T DoRafI=T ISym2E= 0 JSym2E=0.
          There are  51 degrees of freedom in the 1st order CPHF.
    48 vectors were produced by pass  0.
 AX will form  48 AO Fock derivatives at one time.
    48 vectors were produced by pass  1.
    48 vectors were produced by pass  2.
    48 vectors were produced by pass  3.
    42 vectors were produced by pass  4.
    12 vectors were produced by pass  5.
     3 vectors were produced by pass  6.
 Inv2:  IOpt= 1 Iter= 1 AM= 2.54D-15 Conv= 1.00D-12.
 Inverted reduced A of dimension  249 with in-core refinement.
 Isotropic polarizability for W=    0.000000       65.42 Bohr**3.
 End of Minotr Frequency-dependent properties file   721 does not exist.

 **********************************************************************

            Population analysis using the SCF density.

 **********************************************************************

 Alpha  occ. eigenvalues --  -19.16715 -19.14073 -19.11918 -10.24661 -10.22877
 Alpha  occ. eigenvalues --  -10.22016 -10.17110  -1.05421  -1.02118  -0.95319
 Alpha  occ. eigenvalues --   -0.77854  -0.71354  -0.68874  -0.57343  -0.52309
 Alpha  occ. eigenvalues --   -0.49739  -0.47459  -0.46985  -0.43488  -0.42418
 Alpha  occ. eigenvalues --   -0.40873  -0.40182  -0.38217  -0.36537  -0.34018
 Alpha  occ. eigenvalues --   -0.31278  -0.28986  -0.26982  -0.24930
 Alpha virt. eigenvalues --   -0.05528   0.02770   0.05154   0.06725   0.08315
 Alpha virt. eigenvalues --    0.09592   0.09902   0.11975   0.12714   0.14986
 Alpha virt. eigenvalues --    0.17021   0.18433   0.20257   0.23475   0.24866
 Alpha virt. eigenvalues --    0.29590   0.30068   0.33347   0.37157   0.37708
 Alpha virt. eigenvalues --    0.39199   0.42816   0.43087   0.43955   0.48866
 Alpha virt. eigenvalues --    0.52369   0.52755   0.54281   0.56526   0.57122
 Alpha virt. eigenvalues --    0.57429   0.58548   0.60746   0.61487   0.63413
 Alpha virt. eigenvalues --    0.65821   0.74624   0.76837   0.77649   0.80990
 Alpha virt. eigenvalues --    0.82397   0.87564   0.89486   0.91034   0.93892
 Alpha virt. eigenvalues --    0.95803   0.97969   1.01111   1.05268   1.08321
 Alpha virt. eigenvalues --    1.09126   1.17205   1.23505   1.28091   1.31307
 Alpha virt. eigenvalues --    1.31962   1.36016   1.38360   1.39109   1.40653
 Alpha virt. eigenvalues --    1.42694   1.45486   1.45925   1.48919   1.52101
 Alpha virt. eigenvalues --    1.52466   1.54735   1.55154   1.57182   1.60836
 Alpha virt. eigenvalues --    1.63172   1.64179   1.67864   1.68445   1.69995
 Alpha virt. eigenvalues --    1.71775   1.76514   1.80343   1.86273   1.86963
 Alpha virt. eigenvalues --    1.93053   1.94954   1.96346   2.00192   2.00644
 Alpha virt. eigenvalues --    2.05600   2.09529   2.11384   2.17098   2.21701
 Alpha virt. eigenvalues --    2.32292   2.34674   2.36280   2.37501   2.42734
 Alpha virt. eigenvalues --    2.44140   2.46565   2.49002   2.49516   2.50863
 Alpha virt. eigenvalues --    2.51594   2.55454   2.61717   2.63077   2.66493
 Alpha virt. eigenvalues --    2.68828   2.75224   2.77064   2.80663   2.82335
 Alpha virt. eigenvalues --    2.89794   2.92424   2.94451   2.95130   3.02205
 Alpha virt. eigenvalues --    3.08871   3.10259   3.13325   3.13961   3.18959
 Alpha virt. eigenvalues --    3.22721   3.24568   3.33705   3.37716   3.55287
 Alpha virt. eigenvalues --    3.67491   3.70505   3.76577   3.79335   3.81340
 Alpha virt. eigenvalues --    3.86105   3.91334   3.94347   4.22158   4.32592
 Alpha virt. eigenvalues --    4.79230   4.87267   4.89640   4.97011   5.08537
 Alpha virt. eigenvalues --    5.27466   5.39460   5.46001   5.60740  23.70284
 Alpha virt. eigenvalues --   23.76679  23.83888  23.91952  49.77956  49.84903
 Alpha virt. eigenvalues --   49.89088
  Beta  occ. eigenvalues --  -19.16986 -19.12626 -19.11913 -10.24723 -10.22007
  Beta  occ. eigenvalues --  -10.21883 -10.17101  -1.05207  -1.01924  -0.92555
  Beta  occ. eigenvalues --   -0.77588  -0.69630  -0.68691  -0.56995  -0.52003
  Beta  occ. eigenvalues --   -0.49452  -0.47016  -0.46507  -0.43004  -0.41757
  Beta  occ. eigenvalues --   -0.40470  -0.39981  -0.38198  -0.34860  -0.33535
  Beta  occ. eigenvalues --   -0.30678  -0.28445  -0.26445
  Beta virt. eigenvalues --   -0.12002  -0.01590   0.03038   0.05351   0.07106
  Beta virt. eigenvalues --    0.08480   0.09704   0.10041   0.12217   0.12762
  Beta virt. eigenvalues --    0.15014   0.17111   0.18552   0.20365   0.23551
  Beta virt. eigenvalues --    0.25194   0.29813   0.31070   0.33511   0.37691
  Beta virt. eigenvalues --    0.38555   0.39510   0.43291   0.43966   0.45550
  Beta virt. eigenvalues --    0.48995   0.52605   0.52996   0.54404   0.56737
  Beta virt. eigenvalues --    0.57548   0.57622   0.58769   0.60890   0.61579
  Beta virt. eigenvalues --    0.63950   0.66422   0.75122   0.77247   0.78783
  Beta virt. eigenvalues --    0.81548   0.82765   0.88628   0.89942   0.91771
  Beta virt. eigenvalues --    0.94272   0.96549   0.98529   1.01344   1.05875
  Beta virt. eigenvalues --    1.08433   1.10364   1.18665   1.23678   1.28512
  Beta virt. eigenvalues --    1.31508   1.32110   1.36145   1.38705   1.39500
  Beta virt. eigenvalues --    1.40778   1.42709   1.45524   1.46075   1.49163
  Beta virt. eigenvalues --    1.52317   1.52718   1.55240   1.55608   1.57800
  Beta virt. eigenvalues --    1.61515   1.63404   1.64329   1.68300   1.68654
  Beta virt. eigenvalues --    1.70346   1.72181   1.76985   1.80692   1.86808
  Beta virt. eigenvalues --    1.87817   1.93886   1.95616   1.96649   2.00647
  Beta virt. eigenvalues --    2.01043   2.06020   2.09795   2.11619   2.17426
  Beta virt. eigenvalues --    2.21898   2.32382   2.34709   2.36352   2.37896
  Beta virt. eigenvalues --    2.42830   2.44222   2.46879   2.49265   2.49707
  Beta virt. eigenvalues --    2.50981   2.51894   2.55667   2.61901   2.63611
  Beta virt. eigenvalues --    2.66935   2.70443   2.75721   2.77878   2.81777
  Beta virt. eigenvalues --    2.83005   2.91064   2.93534   2.94741   2.95010
  Beta virt. eigenvalues --    3.02800   3.09495   3.13101   3.13473   3.14642
  Beta virt. eigenvalues --    3.19029   3.22903   3.25397   3.34123   3.38687
  Beta virt. eigenvalues --    3.55272   3.67695   3.71655   3.77455   3.79518
  Beta virt. eigenvalues --    3.81701   3.86232   3.91653   3.94377   4.22172
  Beta virt. eigenvalues --    4.33091   4.81488   4.89156   4.92617   4.96804
  Beta virt. eigenvalues --    5.06922   5.27464   5.40440   5.45883   5.60736
  Beta virt. eigenvalues --   23.70438  23.76864  23.84583  23.92025  49.79353
  Beta virt. eigenvalues --   49.84769  49.89068
          Condensed to atoms (all electrons):
              1          2          3          4          5          6
     1  C    5.347523   0.278797  -0.036687  -0.034805   0.303924  -0.035210
     2  C    0.278797   5.130423   0.393060   0.400530  -0.053618  -0.002778
     3  H   -0.036687   0.393060   0.505744  -0.026208   0.006801  -0.000105
     4  H   -0.034805   0.400530  -0.026208   0.511949  -0.003559  -0.000029
     5  C    0.303924  -0.053618   0.006801  -0.003559   4.926267   0.386767
     6  H   -0.035210  -0.002778  -0.000105  -0.000029   0.386767   0.592523
     7  H   -0.031461   0.007801  -0.000192   0.000022   0.405736  -0.027352
     8  H   -0.019795  -0.006713  -0.000089   0.002718   0.385422  -0.025549
     9  O    0.169479  -0.007183  -0.000207   0.003179  -0.059810   0.004714
    10  O   -0.040974   0.011295  -0.000373  -0.000266  -0.003961   0.000118
    11  H   -0.000802  -0.002416  -0.000040   0.000031   0.000183  -0.000028
    12  C    0.288962  -0.058579  -0.011611   0.004854  -0.070999   0.000254
    13  H   -0.032860  -0.006204  -0.002417   0.000008  -0.001116   0.002186
    14  H   -0.051511   0.011859   0.001664  -0.000263  -0.005612  -0.000496
    15  O   -0.032541  -0.004952   0.026844   0.000136   0.004903  -0.000087
    16  H   -0.012868   0.000092  -0.002789  -0.000078   0.001036  -0.000151
              7          8          9         10         11         12
     1  C   -0.031461  -0.019795   0.169479  -0.040974  -0.000802   0.288962
     2  C    0.007801  -0.006713  -0.007183   0.011295  -0.002416  -0.058579
     3  H   -0.000192  -0.000089  -0.000207  -0.000373  -0.000040  -0.011611
     4  H    0.000022   0.002718   0.003179  -0.000266   0.000031   0.004854
     5  C    0.405736   0.385422  -0.059810  -0.003961   0.000183  -0.070999
     6  H   -0.027352  -0.025549   0.004714   0.000118  -0.000028   0.000254
     7  H    0.533703  -0.023947  -0.003725   0.008568  -0.000866  -0.007542
     8  H   -0.023947   0.565231   0.003997  -0.000415   0.000026   0.007332
     9  O   -0.003725   0.003997   8.230408   0.021493  -0.003745  -0.060174
    10  O    0.008568  -0.000415   0.021493   8.041029   0.261598   0.007810
    11  H   -0.000866   0.000026  -0.003745   0.261598   0.497927   0.002450
    12  C   -0.007542   0.007332  -0.060174   0.007810   0.002450   4.818605
    13  H   -0.000154  -0.000606   0.004409   0.000334   0.000035   0.382050
    14  H    0.005438  -0.000238  -0.003742   0.013881  -0.001613   0.398657
    15  O    0.000003  -0.000214  -0.007180  -0.000734   0.000794   0.283746
    16  H   -0.000020  -0.000066   0.023658   0.003235   0.001496  -0.055730
             13         14         15         16
     1  C   -0.032860  -0.051511  -0.032541  -0.012868
     2  C   -0.006204   0.011859  -0.004952   0.000092
     3  H   -0.002417   0.001664   0.026844  -0.002789
     4  H    0.000008  -0.000263   0.000136  -0.000078
     5  C   -0.001116  -0.005612   0.004903   0.001036
     6  H    0.002186  -0.000496  -0.000087  -0.000151
     7  H   -0.000154   0.005438   0.000003  -0.000020
     8  H   -0.000606  -0.000238  -0.000214  -0.000066
     9  O    0.004409  -0.003742  -0.007180   0.023658
    10  O    0.000334   0.013881  -0.000734   0.003235
    11  H    0.000035  -0.001613   0.000794   0.001496
    12  C    0.382050   0.398657   0.283746  -0.055730
    13  H    0.606375  -0.040220  -0.030433   0.011394
    14  H   -0.040220   0.596793  -0.031165  -0.006000
    15  O   -0.030433  -0.031165   7.872769   0.310086
    16  H    0.011394  -0.006000   0.310086   0.498756
 Mulliken atomic charges:
              1
     1  C   -0.059170
     2  C   -0.091414
     3  H    0.146605
     4  H    0.141781
     5  C   -0.222364
     6  H    0.105222
     7  H    0.133988
     8  H    0.112906
     9  O   -0.315569
    10  O   -0.322637
    11  H    0.244971
    12  C    0.069915
    13  H    0.107220
    14  H    0.112569
    15  O   -0.391973
    16  H    0.227950
 Sum of Mulliken charges=   0.00000
 Atomic charges with hydrogens summed into heavy atoms:
              1
     1  C   -0.059170
     2  C    0.196973
     3  H    0.000000
     4  H    0.000000
     5  C    0.129752
     6  H    0.000000
     7  H    0.000000
     8  H    0.000000
     9  O   -0.315569
    10  O   -0.077666
    11  H    0.000000
    12  C    0.289704
    13  H    0.000000
    14  H    0.000000
    15  O   -0.164023
    16  H    0.000000
 Sum of Mulliken charges=   0.00000
          Atomic-Atomic Spin Densities.
              1          2          3          4          5          6
     1  C   -0.034050  -0.022623  -0.002488  -0.001502   0.003970  -0.000220
     2  C   -0.022623   0.784416   0.001495   0.003017  -0.001976   0.000920
     3  H   -0.002488   0.001495  -0.036652   0.002827  -0.000353   0.000003
     4  H   -0.001502   0.003017   0.002827  -0.038891   0.000747   0.000046
     5  C    0.003970  -0.001976  -0.000353   0.000747   0.000176  -0.000266
     6  H   -0.000220   0.000920   0.000003   0.000046  -0.000266  -0.000110
     7  H   -0.000919   0.000135   0.000043  -0.000009  -0.001009   0.000264
     8  H    0.000928  -0.000242  -0.000022  -0.000101  -0.000222   0.000025
     9  O    0.010992  -0.014943  -0.000133  -0.000667  -0.001694   0.000178
    10  O    0.000263   0.007321  -0.000155  -0.000062   0.000360  -0.000070
    11  H   -0.000189  -0.001195   0.000033   0.000006  -0.000041   0.000008
    12  C    0.005051  -0.005004   0.000842  -0.000306   0.001986  -0.000041
    13  H    0.000004   0.000722   0.000065  -0.000015   0.000028  -0.000024
    14  H    0.000313  -0.000129   0.000069   0.000027  -0.000380   0.000101
    15  O   -0.000407  -0.000621   0.000358   0.000009  -0.000032   0.000001
    16  H    0.000635   0.000874  -0.000116   0.000005   0.000090  -0.000009
              7          8          9         10         11         12
     1  C   -0.000919   0.000928   0.010992   0.000263  -0.000189   0.005051
     2  C    0.000135  -0.000242  -0.014943   0.007321  -0.001195  -0.005004
     3  H    0.000043  -0.000022  -0.000133  -0.000155   0.000033   0.000842
     4  H   -0.000009  -0.000101  -0.000667  -0.000062   0.000006  -0.000306
     5  C   -0.001009  -0.000222  -0.001694   0.000360  -0.000041   0.001986
     6  H    0.000264   0.000025   0.000178  -0.000070   0.000008  -0.000041
     7  H    0.004096  -0.000438   0.001934  -0.002035   0.000321  -0.000909
     8  H   -0.000438  -0.000088  -0.000491   0.000213  -0.000029   0.000114
     9  O    0.001934  -0.000491  -0.084540  -0.082715   0.006586  -0.003402
    10  O   -0.002035   0.000213  -0.082715   0.603675  -0.001356   0.001296
    11  H    0.000321  -0.000029   0.006586  -0.001356  -0.013025  -0.000270
    12  C   -0.000909   0.000114  -0.003402   0.001296  -0.000270   0.002963
    13  H    0.000078  -0.000011   0.000141  -0.000079   0.000016   0.000001
    14  H    0.000575  -0.000022   0.001555  -0.002205   0.000545  -0.002050
    15  O    0.000002  -0.000002   0.000229   0.000024  -0.000014   0.000442
    16  H   -0.000043   0.000007  -0.001216   0.000829  -0.000309  -0.000135
             13         14         15         16
     1  C    0.000004   0.000313  -0.000407   0.000635
     2  C    0.000722  -0.000129  -0.000621   0.000874
     3  H    0.000065   0.000069   0.000358  -0.000116
     4  H   -0.000015   0.000027   0.000009   0.000005
     5  C    0.000028  -0.000380  -0.000032   0.000090
     6  H   -0.000024   0.000101   0.000001  -0.000009
     7  H    0.000078   0.000575   0.000002  -0.000043
     8  H   -0.000011  -0.000022  -0.000002   0.000007
     9  O    0.000141   0.001555   0.000229  -0.001216
    10  O   -0.000079  -0.002205   0.000024   0.000829
    11  H    0.000016   0.000545  -0.000014  -0.000309
    12  C    0.000001  -0.002050   0.000442  -0.000135
    13  H   -0.000489   0.000161   0.000071  -0.000054
    14  H    0.000161   0.004196  -0.000148  -0.000544
    15  O    0.000071  -0.000148   0.001360   0.000182
    16  H   -0.000054  -0.000544   0.000182   0.000129
 Mulliken atomic spin densities:
              1
     1  C   -0.040242
     2  C    0.752168
     3  H   -0.034183
     4  H   -0.034869
     5  C    0.001383
     6  H    0.000807
     7  H    0.002085
     8  H   -0.000384
     9  O   -0.168186
    10  O    0.525304
    11  H   -0.008914
    12  C    0.000578
    13  H    0.000614
    14  H    0.002062
    15  O    0.001454
    16  H    0.000325
 Sum of Mulliken spin densities=   1.00000
 APT atomic charges:
              1
     1  C    0.332411
     2  C   -0.163333
     3  H    0.066950
     4  H    0.051327
     5  C    0.008315
     6  H   -0.003733
     7  H    0.019377
     8  H   -0.006858
     9  O   -0.015258
    10  O   -0.553413
    11  H    0.238496
    12  C    0.405969
    13  H   -0.018552
    14  H   -0.037686
    15  O   -0.570178
    16  H    0.246168
 Sum of APT charges=   0.00000
 APT Atomic charges with hydrogens summed into heavy atoms:
              1
     1  C    0.332411
     2  C   -0.045057
     3  H    0.000000
     4  H    0.000000
     5  C    0.017100
     6  H    0.000000
     7  H    0.000000
     8  H    0.000000
     9  O   -0.015258
    10  O   -0.314917
    11  H    0.000000
    12  C    0.349731
    13  H    0.000000
    14  H    0.000000
    15  O   -0.324010
    16  H    0.000000
 Sum of APT charges=   0.00000
 Electronic spatial extent (au):  <R**2>=  1785.5905
 Charge=     0.0000 electrons
 Dipole moment (field-independent basis, Debye):
    X=     0.1720    Y=    -0.0845    Z=     1.3852  Tot=     1.3984
 Quadrupole moment (field-independent basis, Debye-Ang):
   XX=   -49.6794   YY=   -39.7661   ZZ=   -40.1410
   XY=     1.0445   XZ=     2.0255   YZ=    -1.4497
 Traceless Quadrupole moment (field-independent basis, Debye-Ang):
   XX=    -6.4839   YY=     3.4294   ZZ=     3.0545
   XY=     1.0445   XZ=     2.0255   YZ=    -1.4497
 Octapole moment (field-independent basis, Debye-Ang**2):
  XXX=   312.1077  YYY=  -100.5151  ZZZ=    -7.0778  XYY=    79.3938
  XXY=   -54.2116  XXZ=   -11.0262  XZZ=    77.3038  YZZ=   -25.0060
  YYZ=    -9.5886  XYZ=    10.7605
 Hexadecapole moment (field-independent basis, Debye-Ang**3):
 XXXX= -1702.9915 YYYY=  -423.9776 ZZZZ=  -311.9439 XXXY=   374.7406
 XXXZ=    50.0782 YYYX=   226.3818 YYYZ=   -18.2315 ZZZX=    34.6058
 ZZZY=   -13.1575 XXYY=  -315.3245 XXZZ=  -264.9062 YYZZ=   -95.1655
 XXYZ=   -33.6321 YYXZ=    33.0661 ZZXY=    60.4027
 N-N= 3.346963971861D+02 E-N=-1.569454287775D+03  KE= 3.821501576080D+02
  Exact polarizability:  54.275  -2.099  57.363   0.163   1.679  84.618
 Approx polarizability:  72.695  -1.062  79.142  -5.026   6.544 146.430
                          Isotropic Fermi Contact Couplings
        Atom                 a.u.       MegaHertz       Gauss      10(-4) cm-1
     1  C(13)             -0.00824      -9.26209      -3.30494      -3.08950
     2  C(13)              0.02729      30.67942      10.94718      10.23355
     3  H(1)              -0.00996     -44.52239     -15.88670     -14.85107
     4  H(1)              -0.00984     -44.00559     -15.70229     -14.67868
     5  C(13)              0.00360       4.04675       1.44398       1.34985
     6  H(1)               0.00017       0.75309       0.26872       0.25120
     7  H(1)               0.00068       3.02027       1.07771       1.00745
     8  H(1)              -0.00020      -0.88784      -0.31680      -0.29615
     9  O(17)              0.47195    -286.09498    -102.08580     -95.43101
    10  O(17)              0.03770     -22.85232      -8.15428      -7.62271
    11  H(1)              -0.00800     -35.76390     -12.76145     -11.92955
    12  C(13)              0.00291       3.27398       1.16824       1.09208
    13  H(1)               0.00013       0.58870       0.21006       0.19637
    14  H(1)               0.00101       4.50389       1.60710       1.50233
    15  O(17)             -0.00020       0.12264       0.04376       0.04091
    16  H(1)               0.00000       0.01064       0.00380       0.00355
 --------------------------------------------------------
       Center         ----  Spin Dipole Couplings  ----
                      3XX-RR        3YY-RR        3ZZ-RR
 --------------------------------------------------------
     1   Atom        0.002076      0.009641     -0.011717
     2   Atom       -0.258387      0.062637      0.195750
     3   Atom        0.002744      0.017565     -0.020309
     4   Atom        0.041575     -0.032242     -0.009333
     5   Atom       -0.004725      0.002952      0.001774
     6   Atom       -0.004390      0.006100     -0.001710
     7   Atom       -0.004527      0.003454      0.001073
     8   Atom       -0.000845      0.001102     -0.000257
     9   Atom        0.393927      0.208252     -0.602179
    10   Atom       -1.089488     -0.725974      1.815461
    11   Atom       -0.036848      0.048859     -0.012011
    12   Atom        0.002362     -0.006671      0.004309
    13   Atom        0.002625     -0.001071     -0.001554
    14   Atom        0.001458     -0.002020      0.000562
    15   Atom        0.009017     -0.006608     -0.002409
    16   Atom        0.001223     -0.003494      0.002271
 --------------------------------------------------------
                        XY            XZ            YZ
 --------------------------------------------------------
     1   Atom        0.002613      0.001969      0.001493
     2   Atom        0.257988     -0.300792     -0.555252
     3   Atom       -0.038399     -0.029636     -0.003317
     4   Atom        0.010409      0.027173     -0.021469
     5   Atom       -0.004748     -0.003789      0.005137
     6   Atom       -0.000510     -0.000292      0.000709
     7   Atom       -0.000816      0.000104     -0.001751
     8   Atom       -0.004629     -0.001343      0.001695
     9   Atom        0.016202     -0.005788     -0.466689
    10   Atom       -0.013080     -0.030712      1.011775
    11   Atom       -0.059920      0.023049     -0.031680
    12   Atom        0.003720      0.006938      0.001605
    13   Atom        0.005029      0.001149      0.001008
    14   Atom        0.003754     -0.001643      0.000088
    15   Atom        0.004124      0.007285      0.001943
    16   Atom       -0.002665      0.001233     -0.000021
 --------------------------------------------------------


 ---------------------------------------------------------------------------------
              Anisotropic Spin Dipole Couplings in Principal Axis System
 ---------------------------------------------------------------------------------

       Atom             a.u.   MegaHertz   Gauss  10(-4) cm-1        Axes

              Baa    -0.0121    -1.617    -0.577    -0.539 -0.1283 -0.0527  0.9903
     1 C(13)  Bbb     0.0014     0.190     0.068     0.063  0.9421 -0.3183  0.1051
              Bcc     0.0106     1.428     0.509     0.476  0.3097  0.9465  0.0905
 
              Baa    -0.4314   -57.888   -20.656   -19.309  0.1985  0.6846  0.7013
     2 C(13)  Bbb    -0.4010   -53.806   -19.199   -17.948  0.9187 -0.3792  0.1102
              Bcc     0.8324   111.694    39.855    37.257 -0.3414 -0.6225  0.7042
 
              Baa    -0.0511   -27.266    -9.729    -9.095  0.6418  0.3908  0.6598
     3 H(1)   Bbb    -0.0022    -1.168    -0.417    -0.389 -0.3687 -0.5972  0.7124
              Bcc     0.0533    28.433    10.146     9.484 -0.6724  0.7005  0.2392
 
              Baa    -0.0512   -27.298    -9.740    -9.105 -0.2541  0.7834  0.5672
     4 H(1)   Bbb    -0.0022    -1.177    -0.420    -0.392 -0.3012 -0.6214  0.7233
              Bcc     0.0534    28.474    10.160     9.498  0.9191  0.0130  0.3939
 
              Baa    -0.0072    -0.972    -0.347    -0.324  0.9229  0.3288  0.2005
     5 C(13)  Bbb    -0.0028    -0.374    -0.133    -0.125  0.0603 -0.6375  0.7681
              Bcc     0.0100     1.346     0.480     0.449 -0.3804  0.6967  0.6082
 
              Baa    -0.0044    -2.369    -0.845    -0.790  0.9945  0.0417  0.0957
     6 H(1)   Bbb    -0.0018    -0.935    -0.334    -0.312 -0.0914 -0.0955  0.9912
              Bcc     0.0062     3.303     1.179     1.102 -0.0505  0.9946  0.0911
 
              Baa    -0.0046    -2.460    -0.878    -0.821  0.9945  0.1035  0.0136
     7 H(1)   Bbb     0.0002     0.087     0.031     0.029 -0.0598  0.4572  0.8873
              Bcc     0.0044     2.373     0.847     0.791 -0.0856  0.8833 -0.4609
 
              Baa    -0.0046    -2.455    -0.876    -0.819  0.7755  0.6313 -0.0065
     8 H(1)   Bbb    -0.0010    -0.560    -0.200    -0.187  0.2218 -0.2628  0.9390
              Bcc     0.0057     3.015     1.076     1.006 -0.5911  0.7297  0.3438
 
              Baa    -0.8150    58.975    21.044    19.672 -0.0012  0.4150  0.9098
     9 O(17)  Bbb     0.3856   -27.905    -9.957    -9.308  0.9003 -0.3956  0.1816
              Bcc     0.4294   -31.070   -11.087   -10.364  0.4353  0.8193 -0.3731
 
              Baa    -1.0903    78.892    28.151    26.316  0.9792  0.1945 -0.0574
    10 O(17)  Bbb    -1.0791    78.084    27.862    26.046 -0.2025  0.9238 -0.3250
              Bcc     2.1694  -156.976   -56.013   -52.362 -0.0102  0.3299  0.9440
 
              Baa    -0.0684   -36.517   -13.030   -12.181  0.8968  0.4234 -0.1286
    11 H(1)   Bbb    -0.0254   -13.562    -4.839    -4.524 -0.0390  0.3652  0.9301
              Bcc     0.0939    50.078    17.869    16.704 -0.4407  0.8291 -0.3440
 
              Baa    -0.0081    -1.086    -0.387    -0.362 -0.3926  0.9141  0.1013
    12 C(13)  Bbb    -0.0030    -0.404    -0.144    -0.135 -0.6401 -0.3507  0.6836
              Bcc     0.0111     1.490     0.532     0.497  0.6604  0.2035  0.7228
 
              Baa    -0.0046    -2.450    -0.874    -0.817 -0.5644  0.8234 -0.0595
    13 H(1)   Bbb    -0.0018    -0.978    -0.349    -0.326 -0.1877 -0.0577  0.9805
              Bcc     0.0064     3.428     1.223     1.143  0.8039  0.5646  0.1871
 
              Baa    -0.0046    -2.456    -0.876    -0.819 -0.5536  0.8108 -0.1899
    14 H(1)   Bbb     0.0003     0.139     0.050     0.046  0.1870  0.3432  0.9205
              Bcc     0.0043     2.317     0.827     0.773  0.8115  0.4741 -0.3416
 
              Baa    -0.0076     0.553     0.197     0.184 -0.2123  0.9749 -0.0665
    15 O(17)  Bbb    -0.0060     0.431     0.154     0.144 -0.4302 -0.0322  0.9022
              Bcc     0.0136    -0.983    -0.351    -0.328  0.8774  0.2201  0.4262
 
              Baa    -0.0047    -2.523    -0.900    -0.842  0.4198  0.9048 -0.0713
    16 H(1)   Bbb     0.0012     0.658     0.235     0.220 -0.6030  0.3367  0.7232
              Bcc     0.0035     1.865     0.665     0.622  0.6783 -0.2606  0.6870
 

 ---------------------------------------------------------------------------------

 -------------------------------------------------------------------
 Center     Atomic                   Forces (Hartrees/Bohr)
 Number     Number              X              Y              Z
 -------------------------------------------------------------------
    1          6           0.001038698   -0.000340554    0.001250330
    2          6           0.000639940    0.000876355    0.000258217
    3          1           0.000648979   -0.001325422   -0.000661967
    4          1          -0.001325131   -0.000429485   -0.000796645
    5          6           0.000432638   -0.000609543   -0.000131125
    6          1           0.000453022    0.001056985   -0.001011170
    7          1           0.000113871    0.001039452    0.001360939
    8          1          -0.001662767   -0.000117531   -0.000366103
    9          8          -0.001139402    0.000268382    0.003678961
   10          8          -0.004171062    0.004547388   -0.005058059
   11          1           0.004315269   -0.005448778    0.001455650
   12          6          -0.000272247   -0.002308633    0.000245514
   13          1           0.000826703    0.000688872   -0.000804222
   14          1           0.000496501    0.001263567    0.001288870
   15          8           0.004270991    0.004186760   -0.004778397
   16          1          -0.004666004   -0.003347813    0.004069207
 -------------------------------------------------------------------
 Cartesian Forces:  Max     0.005448778 RMS     0.002353553

 GradGradGradGradGradGradGradGradGradGradGradGradGradGradGradGradGradGrad
 Berny optimization.
 Internal  Forces:  Max     0.006956119 RMS     0.001466574
 Search for a saddle point.
 Step number   1 out of a maximum of  80
 All quantities printed in internal units (Hartrees-Bohrs-Radians)
 Swaping is turned off.
 Second derivative matrix not updated -- analytic derivatives used.
     Eigenvalues ---   -0.12428  -0.00042   0.00172   0.00339   0.00902
     Eigenvalues ---    0.01068   0.01114   0.01907   0.02962   0.04358
     Eigenvalues ---    0.04463   0.04937   0.06011   0.06820   0.08634
     Eigenvalues ---    0.09553   0.10209   0.10965   0.11223   0.12087
     Eigenvalues ---    0.12327   0.12922   0.14113   0.15445   0.16891
     Eigenvalues ---    0.18367   0.19762   0.23170   0.27658   0.28844
     Eigenvalues ---    0.30936   0.31650   0.32866   0.33106   0.33377
     Eigenvalues ---    0.34067   0.35376   0.36147   0.36452   0.38477
     Eigenvalues ---    0.48967   0.494161000.000001000.000001000.00000
     Eigenvalues --- 1000.000001000.000001000.000001000.000001000.00000
     Eigenvalues --- 1000.000001000.000001000.000001000.000001000.00000
     Eigenvalues --- 1000.000001000.000001000.000001000.000001000.00000
     Eigenvalues --- 1000.000001000.000001000.000001000.000001000.00000
     Eigenvalues --- 1000.000001000.000001000.000001000.000001000.00000
 Eigenvectors required to have negative eigenvalues:
                          R1        R2        R3        R4        R5
         1             -0.11215   0.00025  -0.16106   0.00056   0.00039
                          R6        R7        R8        R9        R10
         1             -0.00103   0.00071  -0.00022   0.00180   0.70760
                          R11       R12       R13       R14       R15
         1              0.00727   0.00078  -0.00013   0.00233   0.00248
                          A1        A2        A3        A4        A5
         1              0.10063  -0.33629   0.07606   0.11323  -0.08052
                          A6        A7        A8        A9        A10
         1              0.08905  -0.00145   0.00889  -0.00439   0.00066
                          A11       A12       A13       A14       A15
         1             -0.00686   0.00822   0.00286  -0.00126  -0.00374
                          A16       A17       A18       A19       A20
         1              0.01315  -0.05520   0.00126  -0.00121  -0.00270
                          A21       A22       A23       A24       D1
         1              0.00211   0.00289  -0.00215  -0.01079  -0.02801
                          D2        D3        D4        D5        D6
         1             -0.05458   0.00452  -0.02205   0.05234   0.02577
                          D7        D8        D9        D10       D11
         1              0.15083   0.15036   0.14655  -0.14919  -0.14966
                          D12       D13       D14       D15       D16
         1             -0.15347   0.00606   0.00559   0.00178   0.02238
                          D17       D18       D19       D20       D21
         1              0.04673  -0.01776  -0.15595  -0.15849  -0.15322
                          D22       D23       D24       D25       D26
         1             -0.00163  -0.00417   0.00110   0.16509   0.16255
                          D27       D28       D29       D30       D31
         1              0.16782   0.00865   0.00643   0.00825   0.01138
 RFO step:  Lambda0=6.064647945D-05 Lambda=-2.55021634D-03.
 Linear search not attempted -- option 19 set.
 Maximum step size (   0.300) exceeded in Quadratic search.
    -- Step size scaled by   0.304
 Iteration  1 RMS(Cart)=  0.04151271 RMS(Int)=  0.01066033
 Iteration  2 RMS(Cart)=  0.01625104 RMS(Int)=  0.00069310
 Iteration  3 RMS(Cart)=  0.00069223 RMS(Int)=  0.00000502
 Iteration  4 RMS(Cart)=  0.00000094 RMS(Int)=  0.00000498
 Variable       Old X    -DE/DX   Delta X   Delta X   Delta X     New X
                                 (Linear)    (Quad)   (Total)
    R1        2.80175  -0.00146   0.00000   0.00052   0.00052   2.80228
    R2        2.87374  -0.00151   0.00000   0.00003   0.00003   2.87377
    R3        2.68530  -0.00089   0.00000  -0.00408  -0.00408   2.68122
    R4        2.89818  -0.00071   0.00000   0.00103   0.00103   2.89921
    R5        2.04611  -0.00154   0.00000  -0.00124  -0.00124   2.04488
    R6        2.04769  -0.00153   0.00000  -0.00113  -0.00113   2.04656
    R7        2.07141  -0.00153   0.00000  -0.00133  -0.00133   2.07007
    R8        2.06681  -0.00167   0.00000  -0.00113  -0.00113   2.06568
    R9        2.06755  -0.00170   0.00000  -0.00146  -0.00146   2.06610
   R10        3.28797   0.00370   0.00000  -0.00306  -0.00306   3.28490
   R11        1.84228  -0.00693   0.00000  -0.00443  -0.00443   1.83785
   R12        2.06916  -0.00131   0.00000  -0.00112  -0.00112   2.06804
   R13        2.07731  -0.00179   0.00000  -0.00268  -0.00268   2.07463
   R14        2.67796   0.00095   0.00000  -0.00109  -0.00109   2.67687
   R15        1.83732  -0.00696   0.00000  -0.00503  -0.00503   1.83229
    A1        2.04056   0.00002   0.00000  -0.00102  -0.00103   2.03953
    A2        1.45999   0.00002   0.00000   0.00767   0.00767   1.46767
    A3        1.99864   0.00019   0.00000  -0.00179  -0.00182   1.99682
    A4        1.98173  -0.00029   0.00000  -0.00287  -0.00286   1.97887
    A5        1.98102  -0.00014   0.00000  -0.00343  -0.00343   1.97758
    A6        1.94134   0.00024   0.00000   0.00466   0.00466   1.94600
    A7        2.08633  -0.00039   0.00000  -0.00503  -0.00503   2.08130
    A8        2.09896  -0.00025   0.00000   0.00112   0.00112   2.10008
    A9        2.09055   0.00065   0.00000   0.00343   0.00342   2.09398
   A10        1.93418  -0.00004   0.00000   0.00062   0.00062   1.93480
   A11        1.91582  -0.00041   0.00000   0.00013   0.00013   1.91595
   A12        1.92543  -0.00015   0.00000  -0.00004  -0.00004   1.92539
   A13        1.89983   0.00028   0.00000  -0.00096  -0.00096   1.89887
   A14        1.89939   0.00017   0.00000   0.00039   0.00039   1.89978
   A15        1.88837   0.00017   0.00000  -0.00017  -0.00017   1.88820
   A16        1.90337   0.00047   0.00000  -0.00502  -0.00502   1.89835
   A17        1.63812   0.00114   0.00000  -0.01201  -0.01201   1.62612
   A18        1.92243  -0.00057   0.00000  -0.00435  -0.00435   1.91808
   A19        1.88404  -0.00053   0.00000   0.00125   0.00125   1.88529
   A20        1.95100   0.00129   0.00000   0.00172   0.00172   1.95273
   A21        1.89364   0.00043   0.00000   0.00281   0.00281   1.89645
   A22        1.86635  -0.00019   0.00000  -0.00013  -0.00013   1.86622
   A23        1.94589  -0.00044   0.00000  -0.00136  -0.00137   1.94453
   A24        1.83615   0.00196   0.00000   0.00064   0.00064   1.83679
    D1       -2.77368  -0.00007   0.00000  -0.00440  -0.00440  -2.77808
    D2        0.49812  -0.00018   0.00000  -0.00044  -0.00044   0.49768
    D3        1.53343   0.00025   0.00000  -0.00495  -0.00495   1.52847
    D4       -1.47796   0.00014   0.00000  -0.00099  -0.00099  -1.47895
    D5       -0.39463  -0.00003   0.00000  -0.01340  -0.01340  -0.40803
    D6        2.87716  -0.00014   0.00000  -0.00944  -0.00944   2.86772
    D7        1.33715   0.00013   0.00000  -0.00314  -0.00314   1.33401
    D8       -2.84699   0.00018   0.00000  -0.00387  -0.00386  -2.85086
    D9       -0.76764   0.00004   0.00000  -0.00401  -0.00401  -0.77165
   D10        2.99400   0.00000   0.00000   0.00416   0.00415   2.99815
   D11       -1.19014   0.00006   0.00000   0.00344   0.00343  -1.18671
   D12        0.88920  -0.00008   0.00000   0.00329   0.00328   0.89249
   D13       -1.04933  -0.00004   0.00000   0.00509   0.00509  -1.04424
   D14        1.04971   0.00001   0.00000   0.00437   0.00437   1.05408
   D15        3.12906  -0.00013   0.00000   0.00422   0.00422   3.13328
   D16        3.14035  -0.00021   0.00000   0.03512   0.03510  -3.10773
   D17        1.10464  -0.00022   0.00000   0.03319   0.03320   1.13783
   D18       -1.15545   0.00001   0.00000   0.03631   0.03632  -1.11912
   D19       -1.29536  -0.00012   0.00000   0.01951   0.01950  -1.27586
   D20        2.92313   0.00000   0.00000   0.01784   0.01784   2.94097
   D21        0.77694   0.00009   0.00000   0.01758   0.01758   0.79452
   D22        1.10978  -0.00003   0.00000   0.01185   0.01185   1.12163
   D23       -0.95492   0.00010   0.00000   0.01018   0.01019  -0.94473
   D24       -3.10111   0.00019   0.00000   0.00992   0.00993  -3.09118
   D25       -2.91295  -0.00033   0.00000   0.00903   0.00903  -2.90392
   D26        1.30554  -0.00021   0.00000   0.00736   0.00736   1.31290
   D27       -0.84065  -0.00012   0.00000   0.00711   0.00710  -0.83355
   D28        2.23377   0.00252   0.00000   0.27231   0.27231   2.50608
   D29        0.84290   0.00011   0.00000   0.05911   0.05911   0.90200
   D30        2.94820   0.00005   0.00000   0.05470   0.05470   3.00290
   D31       -1.26774   0.00020   0.00000   0.05726   0.05726  -1.21048
         Item               Value     Threshold  Converged?
 Maximum Force            0.006956     0.000450     NO 
 RMS     Force            0.001467     0.000300     NO 
 Maximum Displacement     0.328037     0.001800     NO 
 RMS     Displacement     0.053421     0.001200     NO 
 Predicted change in Energy=-7.558719D-04
 GradGradGradGradGradGradGradGradGradGradGradGradGradGradGradGradGradGrad

                          Input orientation:                          
 ---------------------------------------------------------------------
 Center     Atomic     Atomic              Coordinates (Angstroms)
 Number     Number      Type              X           Y           Z
 ---------------------------------------------------------------------
    1          6             0       -1.814681    0.647221    0.416151
    2          6             0       -1.494370    1.597056    1.508952
    3          1             0       -2.215274    2.358670    1.775756
    4          1             0       -0.505121    1.610293    1.949505
    5          6             0       -1.040902   -0.661764    0.394841
    6          1             0       -1.419971   -1.351328    1.156935
    7          1             0       -1.138541   -1.133176   -0.586552
    8          1             0        0.020696   -0.478279    0.581162
    9          8             0       -1.252948    1.647024   -0.419292
   10          8             0       -1.371559    1.125295   -2.073198
   11          1             0       -1.546085    2.024232   -2.400772
   12          6             0       -3.315128    0.469815    0.149808
   13          1             0       -3.769301   -0.117280    0.953967
   14          1             0       -3.429926   -0.079286   -0.793897
   15          8             0       -3.995011    1.711937    0.111415
   16          1             0       -3.494938    2.256952   -0.515503
 ---------------------------------------------------------------------
                    Distance matrix (angstroms):
                    1          2          3          4          5
     1  C    0.000000
     2  C    1.482902   0.000000
     3  H    2.222174   1.082101   0.000000
     4  H    2.234643   1.082993   1.874801   0.000000
     5  C    1.520734   2.559129   3.522655   2.804690   0.000000
     6  H    2.167662   2.970256   3.844416   3.199425   1.095436
     7  H    2.152300   3.460046   4.351188   3.789384   1.093112
     8  H    2.159303   2.731892   3.804589   2.551662   1.093331
     9  O    1.418842   1.943941   2.500150   2.484310   2.457290
    10  O    2.573280   3.615167   4.128863   4.143438   3.064984
    11  H    3.146960   3.933331   4.243000   4.492200   3.909633
    12  C    1.534194   2.536356   2.724180   3.526434   2.551983
    13  H    2.166621   2.902115   3.036555   3.824980   2.837824
    14  H    2.145005   3.443779   3.744613   4.351484   2.731266
    15  O    2.445470   2.866970   2.521063   3.945661   3.800204
    16  H    2.506487   2.921670   2.626358   3.928542   3.920449
                    6          7          8          9         10
     6  H    0.000000
     7  H    1.779477   0.000000
     8  H    1.780239   1.770954   0.000000
     9  O    3.391534   2.787575   2.672076   0.000000
    10  O    4.070597   2.713873   3.399331   1.738296   0.000000
    11  H    4.905872   3.664248   4.196343   2.038254   0.972549
    12  C    2.814691   2.801667   3.494663   2.441778   3.024709
    13  H    2.661470   3.213431   3.825360   3.366101   4.056709
    14  H    3.076322   2.530636   3.735877   2.803517   2.706382
    15  O    4.136126   4.091607   4.598219   2.793703   3.463984
    16  H    4.485780   4.129240   4.587358   2.325466   2.866321
                   11         12         13         14         15
    11  H    0.000000
    12  C    3.471481   0.000000
    13  H    4.558841   1.094361   0.000000
    14  H    3.248952   1.097848   1.780912   0.000000
    15  O    3.522194   1.416539   2.026543   2.085040   0.000000
    16  H    2.721475   1.915419   2.805637   2.353665   0.969609
                   16
    16  H    0.000000
 Symmetry turned off by external request.
 Stoichiometry    C4H9O3(2)
 Framework group  C1[X(C4H9O3)]
 Deg. of freedom    42
 Full point group                 C1
 Rotational constants (GHZ):      2.7812657      2.4423315      1.9252658
 Standard basis: CBSB7 (5D, 7F)
 Integral buffers will be    131072 words long.
 Raffenetti 2 integral format.
 Two-electron integral symmetry is turned off.
   180 basis functions,   296 primitive gaussians,   187 cartesian basis functions
    29 alpha electrons       28 beta electrons
       nuclear repulsion energy       334.7479322793 Hartrees.
 NAtoms=   16 NActive=   16 NUniq=   16 SFac= 7.50D-01 NAtFMM=   80 NAOKFM=F Big=F
 One-electron integrals computed using PRISM.
 NBasis=   180 RedAO= T  NBF=   180
 NBsUse=   180 1.00D-06 NBFU=   180
 Initial guess read from the read-write file:
 <S**2> of initial guess= 0.8079
 Harris functional with IExCor=  402 diagonalized for initial guess.
 ExpMin= 1.03D-01 ExpMax= 8.59D+03 ExpMxC= 1.30D+03 IAcc=1 IRadAn=         1 AccDes= 1.00D-06
 HarFok:  IExCor= 402 AccDes= 1.00D-06 IRadAn=         1 IDoV=1
 ScaDFX=  1.000000  1.000000  1.000000  1.000000
 Requested convergence on RMS density matrix=1.00D-08 within 128 cycles.
 Requested convergence on MAX density matrix=1.00D-06.
 Requested convergence on             energy=1.00D-06.
 No special actions if energy rises.
 Integral accuracy reduced to 1.0D-05 until final iterations.
 Initial convergence to 1.0D-05 achieved.  Increase integral accuracy.
 SCF Done:  E(UB+HF-LYP) =  -383.444573112     A.U. after   18 cycles
             Convg  =    0.4990D-08             -V/T =  2.0033
             S**2   =   0.8076
 Annihilation of the first spin contaminant:
 S**2 before annihilation     0.8076,   after     0.7503
 -------------------------------------------------------------------
 Center     Atomic                   Forces (Hartrees/Bohr)
 Number     Number              X              Y              Z
 -------------------------------------------------------------------
    1          6           0.001158998   -0.000346637    0.000986252
    2          6           0.000370026    0.000553112    0.000212257
    3          1           0.000464531   -0.000892013   -0.000483969
    4          1          -0.000941149   -0.000314478   -0.000543305
    5          6           0.000271770   -0.000491171   -0.000080403
    6          1           0.000315602    0.000739923   -0.000686148
    7          1           0.000137203    0.000774561    0.000963707
    8          1          -0.001164061   -0.000074810   -0.000237370
    9          8          -0.001057298    0.000168418    0.002630511
   10          8          -0.002255131    0.003940852   -0.003535171
   11          1           0.002142939   -0.004354646    0.000977813
   12          6          -0.000199577   -0.001458058    0.000315454
   13          1           0.000534452    0.000433297   -0.000641084
   14          1           0.000352022    0.000765452    0.000859962
   15          8           0.002910096    0.002741640   -0.003544606
   16          1          -0.003040421   -0.002185442    0.002806100
 -------------------------------------------------------------------
 Cartesian Forces:  Max     0.004354646 RMS     0.001649413

 GradGradGradGradGradGradGradGradGradGradGradGradGradGradGradGradGradGrad
 Berny optimization.
 Internal  Forces:  Max     0.004733000 RMS     0.001019910
 Search for a saddle point.
 Step number   2 out of a maximum of  80
 All quantities printed in internal units (Hartrees-Bohrs-Radians)
 Swaping is turned off.
 Update second derivatives using D2CorX and points  1  2
     Eigenvalues ---   -0.12427  -0.00103   0.00173   0.00342   0.00904
     Eigenvalues ---    0.01083   0.01117   0.01907   0.02962   0.04359
     Eigenvalues ---    0.04463   0.04938   0.06009   0.06821   0.08634
     Eigenvalues ---    0.09553   0.10209   0.10964   0.11223   0.12086
     Eigenvalues ---    0.12327   0.12922   0.14112   0.15445   0.16891
     Eigenvalues ---    0.18364   0.19761   0.23170   0.27658   0.28844
     Eigenvalues ---    0.30935   0.31650   0.32866   0.33106   0.33377
     Eigenvalues ---    0.34067   0.35376   0.36147   0.36452   0.38477
     Eigenvalues ---    0.48967   0.494171000.000001000.000001000.00000
     Eigenvalues --- 1000.000001000.000001000.000001000.000001000.00000
     Eigenvalues --- 1000.000001000.000001000.000001000.000001000.00000
     Eigenvalues --- 1000.000001000.000001000.000001000.000001000.00000
     Eigenvalues --- 1000.000001000.000001000.000001000.000001000.00000
     Eigenvalues --- 1000.000001000.000001000.000001000.000001000.00000
 Eigenvectors required to have negative eigenvalues:
                          R1        R2        R3        R4        R5
         1             -0.11214   0.00026  -0.16108   0.00056   0.00039
                          R6        R7        R8        R9        R10
         1             -0.00104   0.00071  -0.00022   0.00180   0.70761
                          R11       R12       R13       R14       R15
         1              0.00725   0.00078  -0.00015   0.00234   0.00245
                          A1        A2        A3        A4        A5
         1              0.10071  -0.33652   0.07678   0.11321  -0.08001
                          A6        A7        A8        A9        A10
         1              0.08912  -0.00144   0.00894  -0.00434   0.00066
                          A11       A12       A13       A14       A15
         1             -0.00686   0.00822   0.00285  -0.00126  -0.00374
                          A16       A17       A18       A19       A20
         1              0.01308  -0.05530   0.00123  -0.00120  -0.00267
                          A21       A22       A23       A24       D1
         1              0.00214   0.00286  -0.00214  -0.01077  -0.02785
                          D2        D3        D4        D5        D6
         1             -0.05441   0.00464  -0.02192   0.05198   0.02542
                          D7        D8        D9        D10       D11
         1              0.15083   0.15034   0.14654  -0.14907  -0.14955
                          D12       D13       D14       D15       D16
         1             -0.15336   0.00597   0.00549   0.00168   0.02310
                          D17       D18       D19       D20       D21
         1              0.04673  -0.01831  -0.15584  -0.15840  -0.15316
                          D22       D23       D24       D25       D26
         1             -0.00160  -0.00416   0.00109   0.16507   0.16251
                          D27       D28       D29       D30       D31
         1              0.16776   0.00969   0.00669   0.00847   0.01160
 RFO step:  Lambda0=3.082564590D-05 Lambda=-2.92721007D-03.
 Linear search not attempted -- option 19 set.
 Maximum step size (   0.300) exceeded in Quadratic search.
    -- Step size scaled by   0.251
 Iteration  1 RMS(Cart)=  0.04205060 RMS(Int)=  0.00989180
 Iteration  2 RMS(Cart)=  0.01452640 RMS(Int)=  0.00056231
 Iteration  3 RMS(Cart)=  0.00057659 RMS(Int)=  0.00000346
 Iteration  4 RMS(Cart)=  0.00000071 RMS(Int)=  0.00000342
 Variable       Old X    -DE/DX   Delta X   Delta X   Delta X     New X
                                 (Linear)    (Quad)   (Total)
    R1        2.80228  -0.00105   0.00000   0.00060   0.00060   2.80288
    R2        2.87377  -0.00103   0.00000   0.00018   0.00018   2.87395
    R3        2.68122  -0.00068   0.00000  -0.00354  -0.00354   2.67768
    R4        2.89921  -0.00055   0.00000   0.00184   0.00184   2.90105
    R5        2.04488  -0.00107   0.00000  -0.00064  -0.00064   2.04423
    R6        2.04656  -0.00108   0.00000  -0.00055  -0.00055   2.04601
    R7        2.07007  -0.00105   0.00000  -0.00069  -0.00069   2.06939
    R8        2.06568  -0.00120   0.00000  -0.00051  -0.00051   2.06517
    R9        2.06610  -0.00119   0.00000  -0.00079  -0.00079   2.06531
   R10        3.28490   0.00256   0.00000  -0.00467  -0.00467   3.28024
   R11        1.83785  -0.00473   0.00000  -0.00237  -0.00237   1.83548
   R12        2.06804  -0.00092   0.00000  -0.00054  -0.00054   2.06750
   R13        2.07463  -0.00117   0.00000  -0.00166  -0.00166   2.07297
   R14        2.67687   0.00058   0.00000  -0.00200  -0.00200   2.67487
   R15        1.83229  -0.00461   0.00000  -0.00262  -0.00262   1.82967
    A1        2.03953  -0.00004   0.00000  -0.00006  -0.00007   2.03946
    A2        1.46767   0.00001   0.00000   0.00576   0.00576   1.47342
    A3        1.99682   0.00019   0.00000  -0.00242  -0.00243   1.99439
    A4        1.97887  -0.00001   0.00000  -0.00149  -0.00149   1.97738
    A5        1.97758  -0.00007   0.00000  -0.00280  -0.00280   1.97478
    A6        1.94600  -0.00006   0.00000   0.00350   0.00351   1.94951
    A7        2.08130  -0.00026   0.00000  -0.00485  -0.00485   2.07645
    A8        2.10008  -0.00019   0.00000   0.00188   0.00188   2.10195
    A9        2.09398   0.00045   0.00000   0.00242   0.00241   2.09639
   A10        1.93480  -0.00002   0.00000   0.00060   0.00060   1.93540
   A11        1.91595  -0.00029   0.00000   0.00048   0.00048   1.91643
   A12        1.92539  -0.00012   0.00000   0.00022   0.00022   1.92561
   A13        1.89887   0.00022   0.00000  -0.00104  -0.00104   1.89783
   A14        1.89978   0.00012   0.00000  -0.00004  -0.00004   1.89974
   A15        1.88820   0.00011   0.00000  -0.00026  -0.00026   1.88794
   A16        1.89835   0.00056   0.00000  -0.00269  -0.00269   1.89566
   A17        1.62612   0.00090   0.00000  -0.00943  -0.00943   1.61669
   A18        1.91808  -0.00036   0.00000  -0.00391  -0.00391   1.91418
   A19        1.88529  -0.00029   0.00000   0.00229   0.00229   1.88758
   A20        1.95273   0.00073   0.00000   0.00017   0.00017   1.95289
   A21        1.89645   0.00022   0.00000   0.00101   0.00101   1.89746
   A22        1.86622   0.00004   0.00000   0.00148   0.00148   1.86770
   A23        1.94453  -0.00034   0.00000  -0.00114  -0.00114   1.94339
   A24        1.83679   0.00130   0.00000  -0.00192  -0.00192   1.83488
    D1       -2.77808  -0.00001   0.00000  -0.00531  -0.00531  -2.78338
    D2        0.49768  -0.00008   0.00000  -0.00079  -0.00078   0.49690
    D3        1.52847  -0.00001   0.00000  -0.00654  -0.00654   1.52193
    D4       -1.47895  -0.00007   0.00000  -0.00201  -0.00202  -1.48097
    D5       -0.40803   0.00005   0.00000  -0.01280  -0.01280  -0.42083
    D6        2.86772  -0.00002   0.00000  -0.00828  -0.00828   2.85945
    D7        1.33401   0.00008   0.00000  -0.00032  -0.00032   1.33369
    D8       -2.85086   0.00015   0.00000  -0.00092  -0.00092  -2.85178
    D9       -0.77165   0.00003   0.00000  -0.00081  -0.00081  -0.77247
   D10        2.99815   0.00006   0.00000   0.00585   0.00585   3.00400
   D11       -1.18671   0.00013   0.00000   0.00525   0.00524  -1.18147
   D12        0.89249   0.00001   0.00000   0.00536   0.00536   0.89785
   D13       -1.04424  -0.00009   0.00000   0.00695   0.00695  -1.03729
   D14        1.05408  -0.00002   0.00000   0.00635   0.00635   1.06043
   D15        3.13328  -0.00014   0.00000   0.00646   0.00646   3.13974
   D16       -3.10773   0.00011   0.00000   0.05358   0.05357  -3.05416
   D17        1.13783   0.00015   0.00000   0.05132   0.05132   1.18916
   D18       -1.11912   0.00031   0.00000   0.05341   0.05342  -1.06570
   D19       -1.27586  -0.00006   0.00000   0.02740   0.02740  -1.24846
   D20        2.94097   0.00005   0.00000   0.02705   0.02705   2.96802
   D21        0.79452   0.00021   0.00000   0.02679   0.02679   0.82130
   D22        1.12163   0.00001   0.00000   0.02139   0.02139   1.14302
   D23       -0.94473   0.00011   0.00000   0.02104   0.02105  -0.92369
   D24       -3.09118   0.00027   0.00000   0.02078   0.02079  -3.07040
   D25       -2.90392  -0.00012   0.00000   0.01998   0.01998  -2.88394
   D26        1.31290  -0.00001   0.00000   0.01963   0.01963   1.33254
   D27       -0.83355   0.00015   0.00000   0.01937   0.01937  -0.81417
   D28        2.50608   0.00246   0.00000   0.26263   0.26263   2.76871
   D29        0.90200   0.00017   0.00000   0.05084   0.05084   0.95284
   D30        3.00290   0.00018   0.00000   0.04709   0.04709   3.04999
   D31       -1.21048   0.00028   0.00000   0.04858   0.04858  -1.16190
         Item               Value     Threshold  Converged?
 Maximum Force            0.004733     0.000450     NO 
 RMS     Force            0.001020     0.000300     NO 
 Maximum Displacement     0.306292     0.001800     NO 
 RMS     Displacement     0.050601     0.001200     NO 
 Predicted change in Energy=-7.678731D-04
 GradGradGradGradGradGradGradGradGradGradGradGradGradGradGradGradGradGrad

                          Input orientation:                          
 ---------------------------------------------------------------------
 Center     Atomic     Atomic              Coordinates (Angstroms)
 Number     Number      Type              X           Y           Z
 ---------------------------------------------------------------------
    1          6             0       -1.816128    0.647654    0.417790
    2          6             0       -1.490275    1.595377    1.511216
    3          1             0       -2.211040    2.357171    1.776502
    4          1             0       -0.499721    1.609063    1.948088
    5          6             0       -1.041792   -0.660976    0.389449
    6          1             0       -1.415648   -1.352498    1.151824
    7          1             0       -1.144912   -1.131023   -0.591734
    8          1             0        0.020463   -0.477593    0.569571
    9          8             0       -1.263138    1.644334   -0.424012
   10          8             0       -1.475814    1.154915   -2.075778
   11          1             0       -1.384002    2.064475   -2.403931
   12          6             0       -3.319837    0.464587    0.168624
   13          1             0       -3.763052   -0.103918    0.991646
   14          1             0       -3.445416   -0.105043   -0.760403
   15          8             0       -3.999690    1.704659    0.108603
   16          1             0       -3.533059    2.216200   -0.568177
 ---------------------------------------------------------------------
                    Distance matrix (angstroms):
                    1          2          3          4          5
     1  C    0.000000
     2  C    1.483219   0.000000
     3  H    2.219122   1.081761   0.000000
     4  H    2.235855   1.082702   1.875559   0.000000
     5  C    1.520826   2.559420   3.521402   2.806470   0.000000
     6  H    2.167902   2.970639   3.845064   3.200594   1.095073
     7  H    2.152525   3.460482   4.348870   3.791443   1.092840
     8  H    2.159233   2.732441   3.804232   2.554415   1.092913
     9  O    1.416968   1.949126   2.499783   2.492169   2.454622
    10  O    2.567295   3.613964   4.101955   4.165394   3.092439
    11  H    3.186883   3.944581   4.271497   4.464239   3.917674
    12  C    1.535167   2.535456   2.719665   3.525532   2.550519
    13  H    2.164413   2.884973   3.013586   3.807679   2.842219
    14  H    2.146921   3.445904   3.744606   4.353298   2.721880
    15  O    2.445567   2.876878   2.531191   3.955076   3.797929
    16  H    2.525929   2.980312   2.695390   3.987649   3.924488
                    6          7          8          9         10
     6  H    0.000000
     7  H    1.778298   0.000000
     8  H    1.779576   1.770226   0.000000
     9  O    3.389324   2.782933   2.671594   0.000000
    10  O    4.087560   2.745432   3.449898   1.735827   0.000000
    11  H    4.931541   3.681363   4.156483   2.027611   0.971295
    12  C    2.809700   2.802574   3.493719   2.443979   2.985685
    13  H    2.663628   3.227490   3.825280   3.363041   4.028052
    14  H    3.054949   2.524560   3.730944   2.817058   2.682729
    15  O    4.136640   4.084278   4.597429   2.788554   3.382852
    16  H    4.491930   4.111898   4.602012   2.345284   2.762507
                   11         12         13         14         15
    11  H    0.000000
    12  C    3.595155   0.000000
    13  H    4.678862   1.094076   0.000000
    14  H    3.414296   1.096969   1.780609   0.000000
    15  O    3.644738   1.415479   2.026503   2.082646   0.000000
    16  H    2.830452   1.912195   2.805155   2.330837   0.968220
                   16
    16  H    0.000000
 Symmetry turned off by external request.
 Stoichiometry    C4H9O3(2)
 Framework group  C1[X(C4H9O3)]
 Deg. of freedom    42
 Full point group                 C1
 Rotational constants (GHZ):      2.7466024      2.4844018      1.9345344
 Standard basis: CBSB7 (5D, 7F)
 Integral buffers will be    131072 words long.
 Raffenetti 2 integral format.
 Two-electron integral symmetry is turned off.
   180 basis functions,   296 primitive gaussians,   187 cartesian basis functions
    29 alpha electrons       28 beta electrons
       nuclear repulsion energy       334.9804077175 Hartrees.
 NAtoms=   16 NActive=   16 NUniq=   16 SFac= 7.50D-01 NAtFMM=   80 NAOKFM=F Big=F
 One-electron integrals computed using PRISM.
 NBasis=   180 RedAO= T  NBF=   180
 NBsUse=   180 1.00D-06 NBFU=   180
 Initial guess read from the read-write file:
 <S**2> of initial guess= 0.8078
 Harris functional with IExCor=  402 diagonalized for initial guess.
 ExpMin= 1.03D-01 ExpMax= 8.59D+03 ExpMxC= 1.30D+03 IAcc=1 IRadAn=         1 AccDes= 1.00D-06
 HarFok:  IExCor= 402 AccDes= 1.00D-06 IRadAn=         1 IDoV=1
 ScaDFX=  1.000000  1.000000  1.000000  1.000000
 Requested convergence on RMS density matrix=1.00D-08 within 128 cycles.
 Requested convergence on MAX density matrix=1.00D-06.
 Requested convergence on             energy=1.00D-06.
 No special actions if energy rises.
 Integral accuracy reduced to 1.0D-05 until final iterations.
 Initial convergence to 1.0D-05 achieved.  Increase integral accuracy.
 SCF Done:  E(UB+HF-LYP) =  -383.445337380     A.U. after   18 cycles
             Convg  =    0.5983D-08             -V/T =  2.0033
             S**2   =   0.8072
 Annihilation of the first spin contaminant:
 S**2 before annihilation     0.8072,   after     0.7503
 -------------------------------------------------------------------
 Center     Atomic                   Forces (Hartrees/Bohr)
 Number     Number              X              Y              Z
 -------------------------------------------------------------------
    1          6           0.001451257   -0.000570532    0.000986908
    2          6           0.000146129    0.000339717    0.000132442
    3          1           0.000377590   -0.000615408   -0.000384304
    4          1          -0.000722497   -0.000246747   -0.000404959
    5          6           0.000150610   -0.000504178   -0.000073488
    6          1           0.000256108    0.000557857   -0.000472472
    7          1           0.000147957    0.000700374    0.000737104
    8          1          -0.000867010   -0.000042779   -0.000130839
    9          8          -0.001060480    0.000033593    0.002067644
   10          8          -0.001301768    0.003660431   -0.002542275
   11          1           0.000862916   -0.003628842    0.000605817
   12          6          -0.000143700   -0.000673111    0.000417541
   13          1           0.000360487    0.000262773   -0.000584075
   14          1           0.000262368    0.000317770    0.000584861
   15          8           0.002161819    0.001768412   -0.002818603
   16          1          -0.002081785   -0.001359330    0.001878695
 -------------------------------------------------------------------
 Cartesian Forces:  Max     0.003660431 RMS     0.001258955

 GradGradGradGradGradGradGradGradGradGradGradGradGradGradGradGradGradGrad
 Berny optimization.
 Internal  Forces:  Max     0.003515985 RMS     0.000784420
 Search for a saddle point.
 Step number   3 out of a maximum of  80
 All quantities printed in internal units (Hartrees-Bohrs-Radians)
 Swaping is turned off.
 Update second derivatives using D2CorX and points  1  2  3
     Eigenvalues ---   -0.12427  -0.00129   0.00176   0.00348   0.00907
     Eigenvalues ---    0.01101   0.01152   0.01908   0.02967   0.04359
     Eigenvalues ---    0.04463   0.04939   0.06015   0.06821   0.08644
     Eigenvalues ---    0.09554   0.10209   0.10970   0.11224   0.12086
     Eigenvalues ---    0.12328   0.12922   0.14113   0.15445   0.16899
     Eigenvalues ---    0.18370   0.19761   0.23169   0.27658   0.28844
     Eigenvalues ---    0.30936   0.31652   0.32866   0.33107   0.33377
     Eigenvalues ---    0.34067   0.35377   0.36147   0.36452   0.38477
     Eigenvalues ---    0.48967   0.494261000.000001000.000001000.00000
     Eigenvalues --- 1000.000001000.000001000.000001000.000001000.00000
     Eigenvalues --- 1000.000001000.000001000.000001000.000001000.00000
     Eigenvalues --- 1000.000001000.000001000.000001000.000001000.00000
     Eigenvalues --- 1000.000001000.000001000.000001000.000001000.00000
     Eigenvalues --- 1000.000001000.000001000.000001000.000001000.00000
 Eigenvectors required to have negative eigenvalues:
                          R1        R2        R3        R4        R5
         1             -0.11212   0.00027  -0.16110   0.00058   0.00039
                          R6        R7        R8        R9        R10
         1             -0.00103   0.00071  -0.00021   0.00179   0.70762
                          R11       R12       R13       R14       R15
         1              0.00724   0.00079  -0.00018   0.00234   0.00240
                          A1        A2        A3        A4        A5
         1              0.10084  -0.33670   0.07733   0.11321  -0.07963
                          A6        A7        A8        A9        A10
[...]
   XX=    -9.4268   YY=     2.8259   ZZ=     6.6010
   XY=     5.8487   XZ=     0.5341   YZ=    -3.8779
 Octapole moment (field-independent basis, Debye-Ang**2):
  XXX=   330.9088  YYY=  -110.6709  ZZZ=   -17.6874  XYY=    94.7796
  XXY=   -69.3946  XXZ=    -4.1087  XZZ=    84.5055  YZZ=   -23.4600
  YYZ=   -14.6933  XYZ=     7.2859
 Hexadecapole moment (field-independent basis, Debye-Ang**3):
 XXXX= -1774.7310 YYYY=  -458.7349 ZZZZ=  -307.5223 XXXY=   422.0520
 XXXZ=    11.3881 YYYX=   272.2106 YYYZ=   -19.6358 ZZZX=     9.5987
 ZZZY=   -18.1739 XXYY=  -364.9117 XXZZ=  -284.1393 YYZZ=   -90.9628
 XXYZ=   -16.1433 YYXZ=    20.7667 ZZXY=    74.3403
 N-N= 3.370791728547D+02 E-N=-1.572347582061D+03  KE= 3.810968345476D+02
 1\1\GINC-NODE38\SP\UMP2-FC\CBSB3\C4H9O3(2)\NYEE\09-Jun-2013\0\\#N Geom
 =AllCheck Guess=Read SCRF=Check MP2/CBSB3 CBSExtrap=(NMin=10,MinPop)\\
 Title Card Required\\0,2\C,0,-1.7898185579,0.6458090092,0.4386585238\C
 ,0,-1.4620906697,1.5736385996,1.5456716945\H,0,-2.1677501506,2.3589217
 609,1.7781829225\H,0,-0.4813893013,1.5696548096,2.002662028\C,0,-1.033
 7542943,-0.6716337031,0.3885500767\H,0,-1.448842356,-1.3901744483,1.10
 16632655\H,0,-1.105920196,-1.094169941,-0.6155895873\H,0,0.0218349967,
 -0.5175241125,0.6212502692\O,0,-1.2364632545,1.6336266231,-0.417353611
 1\O,0,-1.8287341281,1.3929728711,-2.0075602022\H,0,-1.2682659599,2.089
 338176,-2.3772012691\C,0,-3.3024915781,0.472653266,0.1939656561\H,0,-3
 .7582353817,0.0148153164,1.0758731671\H,0,-3.4336812398,-0.2095360105,
 -0.6546290541\O,0,-3.948110179,1.7050121657,-0.0298181367\H,0,-3.53934
 77498,2.053977618,-0.835045743\\Version=AM64L-G03RevD.01\HF=-381.25971
 3\MP2=-382.5850641\E2(CBS)=-1.4611896\CBS-Int=-1.419286\OIii=11.356055
 4\PUHF=-381.2924136\PMP2-0=-382.615089\S2=1.278832\S2-1=1.189846\S2A=0
 .775079\RMSD=7.541e-09\Thermal=0.\PG=C01 [X(C4H9O3)]\\@


 CHARLIE BROWN..'I CAN'T GET THAT STUPID KITE IN THE   
 AIR... I CAN'T... I C A N N O T...'                          
 LUCY..'OH COME NOW CHARLIE BROWN...THAT'S NO WAY TO TALK...  
 THE TROUBLE WITH YOU IS YOU DON'T BELIEVE IN YOURSELF... YOU 
 DON'T BELIEVE IN YOUR OWN ABILITIES...  YOU'VE GOT TO SAY TO 
 YOURSELF...'I BELIEVE I CAN FLY THIS KITE.'... GO AHEAD SAY  
 IT....'
 CHARLIE BROWN..'I BELIEVE THAT I CAN FLY THIS STUPID  
 KITE.....I BELIEVE THAT I CAN FLY THIS KITE........          
 I  A C T U A L L Y  B E L I E V E  T H A T  I  C A N ******' 
 LUCY..'I'LL BET YOU TEN-TO-ONE YOU'RE WRONG.......'    SCHULZ
 Diagonal vibrational polarizability:
        0.0000000       0.0000000       0.0000000
    1 imaginary frequencies ignored.

 Complete Basis Set (CBS) Extrapolation:
 M. R. Nyden and G. A. Petersson, JCP 75, 1843 (1981)
 G. A. Petersson and M. A. Al-Laham, JCP 94, 6081 (1991)
 G. A. Petersson, T. Tensfeldt, and J. A. Montgomery, JCP 94, 6091 (1991)
 J. A. Montgomery, J. W. Ochterski, and G. A. Petersson, JCP 101, 5900 (1994)

 Temperature=            298.150000 Pressure=                    1.000000
 E(ZPE)=                   0.126730 E(Thermal)=                  0.135467
 E(SCF)=                 -381.259713 DE(MP2)=                     -1.325351
 DE(CBS)=                  -0.135839 DE(MP34)=                    -0.075854
 DE(CCSD)=                 -0.056211 DE(Int)=                      0.041904
 DE(Empirical)=            -0.070797
 CBS-QB3 (0 K)=          -382.755131 CBS-QB3 Energy=            -382.746394
 CBS-QB3 Enthalpy=       -382.745450 CBS-QB3 Free Energy=       -382.788145
 1\1\GINC-NODE38\Mixed\CBS-QB3\CBS-QB3\C4H9O3(2)\NYEE\09-Jun-2013\0\\# 
 opt=(calcfc,ts,noeigentest) cbs-qb3 nosymm freq\\Title Card Required\\
 0,2\C,0,-1.7898185579,0.6458090092,0.4386585238\C,0,-1.4620906697,1.57
 36385996,1.5456716945\H,0,-2.1677501506,2.3589217609,1.7781829225\H,0,
 -0.4813893013,1.5696548096,2.002662028\C,0,-1.0337542943,-0.6716337031
 ,0.3885500767\H,0,-1.448842356,-1.3901744483,1.1016632655\H,0,-1.10592
 0196,-1.094169941,-0.6155895873\H,0,0.0218349967,-0.5175241125,0.62125
 02692\O,0,-1.2364632545,1.6336266231,-0.4173536111\O,0,-1.8287341281,1
 .3929728711,-2.0075602022\H,0,-1.2682659599,2.089338176,-2.3772012691\
 C,0,-3.3024915781,0.472653266,0.1939656561\H,0,-3.7582353817,0.0148153
 164,1.0758731671\H,0,-3.4336812398,-0.2095360105,-0.6546290541\O,0,-3.
 948110179,1.7050121657,-0.0298181367\H,0,-3.5393477498,2.053977618,-0.
 835045743\\Version=AM64L-G03RevD.01\HF/CbsB3=-381.259713\E2(CBS)/CbsB3
 =-1.4611896\CBS-Int/CbsB3=0.0419035\OIii/CbsB3=11.3560554\MP2/CbsB4=-3
 82.2477239\MP4(SDQ)/CbsB4=-382.3235776\MP4(SDQ)/6-31+G(d')=-382.235718
 4\QCISD(T)/6-31+G(d')=-382.2919297\CBSQB3=-382.7551307\FreqCoord=-3.38
 22669039,1.2204021622,0.8289444763,-2.7629509487,2.973745987,2.9208961
 955,-4.0964541114,4.4577160994,3.3602787395,-0.9096939432,2.9662177149
 ,3.7844827718,-1.9535125059,-1.2692037612,0.7342532343,-2.7379152641,-
 2.6270489857,2.0818418636,-2.0898862964,-2.0676815325,-1.1632957309,0.
 0412621639,-0.9779788403,1.1739928694,-2.3365769257,3.0871069227,-0.78
 8684026,-3.4558066738,2.6323372384,-3.7937389795,-2.3966753293,3.94827
 69538,-4.4922593638,-6.2408046422,0.893185229,0.3665419695,-7.10203561
 83,0.0279968906,2.0331056406,-6.4887171744,-0.395965675,-1.2370696316,
 -7.4608469849,3.2220060481,-0.0563481121,-6.6883979398,3.8814551832,-1
 .5780077635\PG=C01 [X(C4H9O3)]\NImag=1\\0.47414280,-0.00314227,0.54555
 203,0.04410735,0.07327513,0.39110686,-0.08289269,-0.01012809,-0.036184
 80,0.57360417,-0.00725342,-0.12960410,-0.09199448,-0.14821546,0.393592
 69,-0.05007729,-0.12456471,-0.12128899,0.14286552,0.19825361,0.2683292
 4,0.00979825,-0.00632299,-0.00152355,-0.17921070,0.14869651,0.03135333
 ,0.17871486,0.01337107,-0.01245470,0.00003049,0.15008204,-0.20065609,-
 0.06342305,-0.15838519,0.20618229,0.01186705,-0.01215684,-0.00434733,0
 .03027762,-0.05290166,-0.04804937,-0.03504776,0.06414378,0.04726356,-0
 .00365869,0.00307712,0.00247317,-0.29638558,0.01154962,-0.12333399,-0.
 00830998,-0.00396646,-0.00800665,0.30418154,-0.01888960,0.00530907,-0.
 00456680,0.01102162,-0.04366357,-0.01666583,0.01636735,0.00428471,0.00
 794005,-0.01034303,0.03505901,-0.01646308,-0.00109505,-0.00599770,-0.1
 1632072,-0.01089651,-0.08540226,0.00555215,-0.00084649,0.00724722,0.12
 911362,0.01541499,0.08509155,-0.11764977,0.05757805,0.00116559,0.00250
 671,-0.00240304,-0.00027096,-0.00053100,-0.00114768,-0.00116500,0.0008
 1722,-0.00139386,-0.00057341,0.55638200,0.04849757,-0.15197368,-0.0105
 5604,0.00896539,-0.01683042,-0.00452302,-0.00075049,-0.00044383,-0.000
 29700,0.00036355,0.00124196,0.00100602,0.04481280,0.49173417,0.0021148
 9,-0.01503580,-0.07692334,0.01646580,-0.02515475,-0.00162351,-0.001671
 58,-0.00396000,-0.00261237,0.00035944,0.00094820,0.00068918,0.00475609
 ,-0.00294627,0.56905909,0.00710842,0.00750195,-0.01190180,0.00038157,-
 0.00056952,-0.00002995,0.00000584,-0.00003939,-0.00004861,-0.00003336,
 0.00000181,0.00014181,-0.08647451,-0.06394063,0.06586133,0.08939796,-0
 .01440769,-0.01345436,0.01856355,-0.00007697,0.00068698,-0.00048213,-0
 .00003778,-0.00006897,0.00002534,-0.00005264,-0.00024164,-0.00002066,-
 0.06283744,-0.15744675,0.11018540,0.07008789,0.17068166,-0.00103059,-0
 .00231475,-0.00042810,-0.00041795,0.00030993,0.00049162,0.00007185,0.0
 0009300,0.00009701,-0.00003479,0.00004320,-0.00003106,0.06486768,0.110
 75874,-0.15704155,-0.07251797,-0.12306007,0.16810262,0.00039798,0.0054
 8648,0.01677125,-0.00162429,0.00181672,-0.00042637,0.00044179,0.000551
 74,0.00040265,0.00012253,0.00025200,0.00020086,-0.04910163,-0.00652611
 ,-0.01834831,0.00007137,0.00572611,0.01151370,0.05030434,-0.00213633,-
 0.01308122,-0.02830425,0.00409696,-0.00427528,0.00070191,-0.00060168,-
 0.00124201,-0.00072422,-0.00000262,0.00022941,0.00005079,-0.00705989,-
 0.08412929,-0.09185459,0.00249328,0.00956027,0.02030329,0.00535744,0.0
 9114935,0.00010423,-0.00042196,-0.00152031,0.00038764,0.00030428,0.000
 82470,-0.00023285,-0.00002934,0.00018373,0.00007781,0.00021645,-0.0000
 2764,-0.01712600,-0.09459437,-0.27305634,-0.00192606,-0.00788382,-0.01
 743735,0.01925654,0.10379756,0.29469002,-0.01839528,-0.00375223,-0.003
 00890,0.00046113,-0.00106477,-0.00024073,0.00024929,-0.00004386,0.0001
 1735,0.00036856,0.00078384,0.00069010,-0.29286182,-0.03829965,-0.05538
 883,-0.01005200,-0.00133419,-0.00240284,-0.00091099,-0.00028267,-0.000
 26908,0.31829893,0.03162286,0.00315880,0.00662660,0.00070637,0.0012733
 6,0.00092264,-0.00009840,0.00019162,0.00002848,-0.00038466,-0.00024491
 ,-0.00047765,-0.04174642,-0.05266058,-0.00919654,-0.01996878,-0.003184
 07,-0.00614855,-0.01176807,-0.00247648,-0.00147263,0.04080526,0.056663
 28,0.00235352,0.00027115,-0.00140513,0.00121691,0.00007669,0.00025131,
 -0.00008691,0.00011063,0.00000266,-0.00008752,-0.00017980,0.00002450,-
 0.05529167,-0.00922887,-0.05865135,0.02118169,0.00211280,0.00497238,-0
 .02931618,-0.00403978,-0.00499016,0.06048229,0.01096661,0.05912706,-0.
 08440850,-0.04248870,0.00538026,-0.00950192,0.00039534,0.03667754,-0.0
 0085418,-0.00295679,0.00161149,0.00214911,0.00196035,-0.00411832,0.008
 29010,0.00378632,-0.00751855,-0.00019622,0.00295469,-0.00025454,0.0004
 2254,-0.00108852,0.00008731,0.00213188,-0.00110788,-0.00030236,0.12576
 753,-0.05165209,-0.14470605,0.03266536,0.00162881,-0.00248859,0.021602
 11,0.00159731,0.00377163,-0.00713506,0.00025616,0.00011878,-0.00258774
 ,-0.01697897,-0.03414978,0.03209509,0.00484717,-0.00768179,-0.00033811
 ,-0.00127486,0.00242038,-0.00060934,-0.00057260,0.00266254,0.00001294,
 0.08879492,0.21552792,0.04870788,0.10973236,-0.06656591,-0.01651410,-0
 .03102466,0.07377762,0.00200391,0.00064197,-0.00033929,-0.00059179,-0.
 00065776,0.00122435,0.00418642,0.01140704,-0.00568881,-0.00080244,0.00
 210193,0.00021466,-0.00055864,-0.00217363,0.00040491,-0.00091102,-0.00
 114459,0.00046309,-0.07833377,-0.10272768,-0.08699554,0.00217698,-0.00
 213250,0.00869150,0.00588728,0.00392708,-0.02805486,-0.00033721,0.0006
 7038,-0.00069769,0.00059460,0.00046383,0.00030632,-0.00026221,0.000560
 57,-0.00014999,0.00005051,-0.00024085,0.00009510,-0.00029321,0.0003788
 1,-0.00020038,0.00030545,-0.00016194,0.00006702,-0.01765951,-0.0209698
 4,0.04565582,0.19715014,0.00755227,0.00558381,0.00902587,0.00013195,0.
 00232254,-0.00395137,-0.00005055,0.00026486,0.00071532,0.00016687,0.00
 012943,0.00022074,0.00008801,-0.00028210,0.00063490,-0.00001291,0.0000
 5958,0.00022681,0.00003957,0.00089804,0.00026587,0.00009738,0.00005296
 ,0.00002159,-0.02096245,-0.03025253,0.01185538,0.23654532,0.29723186,-
 0.00772114,-0.01753463,-0.02622253,0.01056535,0.01663439,-0.07618846,-
 0.00114417,0.00118919,0.00012606,0.00122381,0.00061216,-0.00106947,-0.
 00070653,0.00019430,0.00333022,0.00003916,-0.00111165,0.00065771,-0.00
 011964,0.00186254,0.00016181,0.00044168,0.00000817,-0.00071196,0.00111
 587,-0.00276584,0.09660659,-0.12106279,-0.14123924,0.09000629,-0.00149
 157,-0.00119961,-0.00277321,0.00004713,0.00079165,-0.00152635,-0.00016
 149,-0.00010771,0.00010980,0.00000854,0.00001004,-0.00001558,0.0002667
 3,0.00011083,-0.00016296,-0.00012159,0.00012401,0.00006614,0.00007788,
 -0.00003230,0.00016043,-0.00003745,-0.00001895,-0.00012593,0.00551990,
 0.00697888,-0.00751932,-0.18510321,-0.22347614,0.11241168,0.18186439,-
 0.00019005,-0.00094632,-0.00258601,0.00063445,0.00078818,0.00025225,-0
 .00006579,0.00001229,0.00000751,-0.00004210,-0.00009711,0.00021147,0.0
 0006036,-0.00001100,0.00003551,0.00005048,0.00002983,-0.00001608,-0.00
 022677,0.00023364,0.00005877,0.00008340,-0.00003592,0.00013039,0.00013
 521,0.00275884,-0.00648447,-0.21887649,-0.27400758,0.14331221,0.218204
 10,0.27059575,-0.00186472,-0.00120653,-0.00620299,0.00012592,0.0005976
 9,-0.00146488,-0.00001778,-0.00010738,-0.00005477,-0.00006032,-0.00007
 116,-0.00011918,-0.00005808,-0.00043588,0.00019279,0.00004238,-0.00015
 548,0.00007653,0.00000280,0.00004534,0.00008417,-0.00001459,0.00009063
 ,-0.00002413,0.01198351,0.01714785,-0.01287341,0.09201173,0.11961057,-
 0.08494764,-0.10151283,-0.13490018,0.10500935,-0.13946571,-0.01709242,
 -0.01180875,-0.00920801,-0.00885800,-0.00761281,0.00069882,0.00217490,
 0.00055316,0.00038518,0.00052479,0.00242924,-0.01464526,0.00790449,-0.
 00447864,-0.00042093,-0.00055796,0.00044788,0.00068450,-0.00163750,-0.
 00066828,0.00145364,-0.00066338,-0.00022089,-0.02506576,-0.01484789,0.
 00893276,-0.00311651,0.00146215,0.00071618,-0.00075489,-0.00081031,-0.
 00074783,0.43715286,-0.01203834,-0.07705881,-0.00612904,-0.01864934,-0
 .00063607,-0.00656350,-0.00100219,-0.00080331,-0.00156572,0.00008938,-
 0.00293418,-0.00205433,0.02886513,0.00277406,0.00343321,-0.00018563,0.
 00037508,0.00040825,0.00072165,-0.00003569,-0.00025388,0.00324645,-0.0
 0493136,-0.00052246,-0.02490275,-0.01268201,0.00889863,0.00251416,-0.0
 0219656,-0.00105088,-0.00043777,-0.00010067,-0.00087817,0.03157220,0.5
 3956630,-0.02458587,-0.01292211,-0.07820303,-0.03079489,-0.00468311,-0
 .01067988,0.00065577,0.00062882,0.00101466,-0.00086725,-0.00345444,-0.
 00224038,-0.00013657,-0.00069354,0.00217164,0.00006595,0.00050787,0.00
 008860,0.00148081,-0.00032744,-0.00031946,0.00043822,-0.00052835,-0.00
 004093,0.03522630,0.01791491,-0.00011160,-0.00066483,0.00010580,0.0005
 4081,-0.00039148,-0.00004646,0.00016597,-0.04567030,-0.00637075,0.6204
 4857,-0.01013741,-0.01181829,0.02536043,0.00215182,0.00036874,0.000040
 75,-0.00018942,-0.00043091,-0.00017868,0.00004768,-0.00000383,0.000124
 58,0.00029628,-0.00008423,-0.00019283,-0.00042313,0.00073126,-0.000212
 75,-0.00002200,-0.00007127,-0.00010934,0.00011174,0.00016049,-0.000397
 75,-0.00751080,-0.00237614,0.00216300,0.00028577,-0.00025122,-0.002111
 80,-0.00005754,0.00003090,-0.00008813,-0.09965189,-0.04697251,0.094414
 84,0.10485256,-0.00507678,-0.00184059,0.00358308,0.00038027,0.00043341
 ,0.00007947,0.00000089,-0.00024646,0.00014952,0.00001606,-0.00003401,0
 .00006209,-0.00027501,-0.00052830,-0.00025634,0.00040127,0.00017623,-0
 .00004236,0.00019085,0.00010798,0.00003843,-0.00018348,0.00011466,-0.0
 0002325,-0.00113337,0.00037206,0.00051352,-0.00032124,0.00054490,-0.00
 047183,0.00023627,0.00007967,-0.00002638,-0.03992746,-0.08472457,0.073
 93342,0.04353226,0.10429925,-0.00345790,-0.00310099,0.00409470,0.00011
 975,-0.00006059,0.00102013,0.00012264,0.00006461,-0.00010180,0.0000119
 4,0.00008224,0.00012676,0.00065248,0.00044951,-0.00041674,-0.00005050,
 -0.00028459,0.00041763,-0.00009957,0.00007177,0.00011192,0.00014931,-0
 .00023090,0.00016648,-0.00254363,-0.00157952,0.00022205,0.00056573,0.0
 0034455,0.00034454,0.00009836,0.00020918,0.00005225,0.09123694,0.08123
 356,-0.22174007,-0.09624686,-0.09432407,0.23621449,-0.00889516,-0.0195
 5981,-0.02748589,-0.00603542,0.00058290,-0.00098351,0.00006317,0.00001
 264,0.00002038,-0.00026603,-0.00135110,-0.00092034,0.00127364,-0.00111
 585,-0.00046341,0.00001424,0.00015053,0.00000663,-0.00065528,0.0005489
 7,0.00036842,0.00034724,-0.00001599,0.00034495,0.00175865,0.00157707,-
 0.00044873,0.00057719,-0.00024572,0.00160810,0.00022267,0.00040210,-0.
 00032506,-0.05371130,-0.02203758,-0.02613787,0.00320486,0.00800489,0.0
 1166755,0.06107570,-0.00286304,-0.00267423,-0.00672544,-0.00030337,0.0
 0066455,0.00063097,0.00039866,0.00003449,0.00028208,-0.00007562,-0.000
 12188,0.00001536,0.00076522,0.00031399,0.00043917,-0.00012322,0.000030
 15,0.00010901,0.00002010,0.00054960,0.00032543,-0.00007929,0.00005991,
 0.00033194,0.00001725,0.00062147,-0.00122524,0.00032067,0.00063272,0.0
 0067850,0.00044130,0.00028829,0.00001309,-0.02292799,-0.13104482,-0.11
 109196,0.00176907,0.00970316,0.00924671,0.01441318,0.15601702,0.000012
 16,-0.00357481,-0.00471057,-0.00135990,0.00030424,0.00043068,0.0001413
 4,0.00026470,0.00003546,-0.00016684,-0.00032101,0.00003741,0.00047391,
 -0.00012116,0.00012742,-0.00013965,0.00002623,-0.00021245,-0.00036783,
 0.00027901,0.00056011,0.00004527,0.00027767,0.00022818,-0.00057083,-0.
 00023443,-0.00016441,0.00050322,0.00091603,-0.00087689,0.00034693,0.00
 029886,0.00040961,-0.02731422,-0.11566393,-0.21091397,-0.00425541,-0.0
 1430700,-0.01919877,0.03004028,0.12744891,0.22041595,-0.02734902,0.039
 30292,-0.00578906,0.00069193,0.00069094,0.00043075,-0.00074366,0.00003
 983,0.00033056,0.00000605,0.00051611,-0.00000928,-0.00774650,-0.003847
 88,-0.00141492,0.00054127,0.00013407,-0.00039144,0.00001101,-0.0000068
 0,0.00019459,-0.00132769,0.00255257,0.00014457,0.00183729,0.00478214,-
 0.00118111,-0.00213720,-0.00046079,0.00259030,-0.00020268,0.00089077,-
 0.00028740,-0.10210322,0.04860120,0.01471547,0.00818770,-0.00901782,-0
 .00106555,0.00126676,0.00719957,0.00176819,0.24174181,0.01582736,-0.01
 273536,0.00677379,0.00013454,-0.00174530,-0.00170581,-0.00000826,0.000
 87882,0.00160158,-0.00062052,0.00103368,0.00109378,0.00227709,0.002735
 40,0.00045826,-0.00062080,0.00045904,-0.00028151,-0.00046791,0.0001803
 5,0.00031432,0.00073061,-0.00080676,0.00005768,-0.00454199,0.00356893,
 -0.00095477,-0.00166415,0.00208544,-0.00111381,0.00038917,-0.00053844,
 -0.00012742,0.07654441,-0.19959913,0.00747355,0.01162491,-0.02287349,0
 .00763548,0.01994800,-0.03597983,0.00426259,-0.05128393,0.35205454,-0.
 00528521,0.01164729,-0.00062230,-0.00026536,-0.00037972,0.00178638,0.0
 0029987,0.00113150,0.00027538,-0.00028165,0.00076845,0.00033158,-0.001
 64769,-0.00099548,0.00020714,0.00021478,-0.00050474,0.00006695,-0.0003
 5267,0.00042254,0.00036530,-0.00036812,0.00061119,0.00057482,-0.001282
 83,-0.00210761,-0.00413279,0.00707851,-0.00038707,0.00004661,0.0009210
 0,-0.00059737,-0.00029949,-0.00688028,0.03986025,-0.09204417,-0.017495
 03,0.03076059,-0.00318538,0.01202562,-0.01840132,0.01245369,-0.1732810
 8,-0.17696883,0.42899268,0.00071938,0.00469039,-0.00347361,-0.00087311
 ,-0.00045529,0.00118893,0.00036563,0.00017538,-0.00014565,-0.00002738,
 0.00007968,-0.00013794,-0.00055997,-0.00043670,0.00023248,0.00015059,-
 0.00036304,0.00019390,0.00007345,0.00004412,-0.00010497,-0.00014263,0.
 00008691,0.00003827,-0.00268013,-0.00179007,-0.00478885,0.00188113,-0.
 00062374,0.00215394,-0.00007681,-0.00028027,0.00081038,0.00776848,0.01
 061595,-0.01774830,-0.00114621,0.00317241,-0.00116068,-0.00024093,0.00
 102752,0.00084337,-0.11267385,-0.06826852,0.18660015,0.10746235,0.0007
 7847,0.00092573,0.00031818,-0.00040916,0.00013772,-0.00056352,0.000262
 60,0.00029468,-0.00011316,-0.00003110,-0.00006875,-0.00009681,-0.00060
 435,-0.00034387,0.00017455,0.00007704,0.00001876,-0.00005079,0.0001010
 4,-0.00008904,-0.00005576,-0.00013420,0.00016295,-0.00009826,0.0011383
 6,0.00013820,0.00124194,-0.00101382,-0.00306738,0.00079640,-0.00201378
 ,0.00095054,0.00040342,-0.01286003,-0.02596827,0.03955378,0.00379077,-
 0.00558389,0.00024306,-0.00131423,0.00090540,0.00014411,-0.04009289,-0
 .08871788,0.11514032,0.05232528,0.12030510,0.00121873,-0.00099776,-0.0
 0076333,-0.00016678,0.00061466,-0.00221434,-0.00047625,0.00006759,-0.0
 0074083,0.00017101,-0.00010894,0.00011515,0.00087375,0.00057601,0.0002
 3653,-0.00013012,-0.00001998,-0.00003520,-0.00003940,-0.00011084,-0.00
 003542,0.00023989,-0.00033280,0.00001320,0.00284255,-0.00135293,0.0039
 5850,-0.00414441,0.00163426,-0.00180368,-0.00008667,0.00011442,-0.0000
 0418,0.00108585,0.00721876,-0.00813677,-0.00081503,0.00033111,0.001871
 80,0.00068288,-0.00207721,0.00137855,0.16324542,0.15148112,-0.34481639
 ,-0.16450141,-0.15703745,0.35097642\\0.00000280,0.00000079,-0.00000538
 ,0.00000616,-0.00001040,0.00000442,0.00001427,-0.00000411,0.00000517,0
 .00000990,-0.00001494,-0.00000179,-0.00000789,-0.00000788,-0.00000597,
 -0.00000883,-0.00000571,-0.00000722,-0.00001318,-0.00000277,-0.0000071
 8,-0.00000572,-0.00001296,-0.00001057,0.00000397,0.00000120,-0.0000016
 3,-0.00000515,0.00000105,0.00000617,0.00000007,0.00000337,0.00000459,0
 .00000075,0.00000616,0.00000192,-0.00000222,0.00000611,0.00000147,-0.0
 0000661,0.00001016,0.00000038,0.00000998,0.00001270,0.00000949,0.00000
 169,0.00001722,0.00000614\\\@
 Job cpu time:  0 days  2 hours 22 minutes  4.4 seconds.
 File lengths (MBytes):  RWF=  11325 Int=      0 D2E=      0 Chk=     16 Scr=      1
 Normal termination of Gaussian 03 at Sun Jun  9 15:58:00 2013.
