 Entering Gaussian System, Link 0=g03
 Input=TS2freq.gjf
 Output=TS2freq.log
 Initial command:
 /opt/g03/l1.exe /scratch/nyee/Gau-9785.inp -scrdir=/scratch/nyee/
 Entering Link 1 = /opt/g03/l1.exe PID=      9787.
  
 Copyright (c) 1988,1990,1992,1993,1995,1998,2003,2004, Gaussian, Inc.
                  All Rights Reserved.
  
 This is the Gaussian(R) 03 program.  It is based on the
 the Gaussian(R) 98 system (copyright 1998, Gaussian, Inc.),
 the Gaussian(R) 94 system (copyright 1995, Gaussian, Inc.),
 the Gaussian 92(TM) system (copyright 1992, Gaussian, Inc.),
 the Gaussian 90(TM) system (copyright 1990, Gaussian, Inc.),
 the Gaussian 88(TM) system (copyright 1988, Gaussian, Inc.),
 the Gaussian 86(TM) system (copyright 1986, Carnegie Mellon
 University), and the Gaussian 82(TM) system (copyright 1983,
 Carnegie Mellon University). Gaussian is a federally registered
 trademark of Gaussian, Inc.
  
 This software contains proprietary and confidential information,
 including trade secrets, belonging to Gaussian, Inc.
  
 This software is provided under written license and may be
 used, copied, transmitted, or stored only in accord with that
 written license.
  
 The following legend is applicable only to US Government
 contracts under FAR:
  
                    RESTRICTED RIGHTS LEGEND
  
 Use, reproduction and disclosure by the US Government is
 subject to restrictions as set forth in subparagraphs (a)
 and (c) of the Commercial Computer Software - Restricted
 Rights clause in FAR 52.227-19.
  
 Gaussian, Inc.
 340 Quinnipiac St., Bldg. 40, Wallingford CT 06492
  
  
 ---------------------------------------------------------------
 Warning -- This program may not be used in any manner that
 competes with the business of Gaussian, Inc. or will provide
 assistance to any competitor of Gaussian, Inc.  The licensee
 of this program is prohibited from giving any competitor of
 Gaussian, Inc. access to this program.  By using this program,
 the user acknowledges that Gaussian, Inc. is engaged in the
 business of creating and licensing software in the field of
 computational chemistry and represents and warrants to the
 licensee that it is not a competitor of Gaussian, Inc. and that
 it will not use this program in any manner prohibited above.
 ---------------------------------------------------------------
  

 Cite this work as:
 Gaussian 03, Revision D.01,
 M. J. Frisch, G. W. Trucks, H. B. Schlegel, G. E. Scuseria, 
 M. A. Robb, J. R. Cheeseman, J. A. Montgomery, Jr., T. Vreven, 
 K. N. Kudin, J. C. Burant, J. M. Millam, S. S. Iyengar, J. Tomasi, 
 V. Barone, B. Mennucci, M. Cossi, G. Scalmani, N. Rega, 
 G. A. Petersson, H. Nakatsuji, M. Hada, M. Ehara, K. Toyota, 
 R. Fukuda, J. Hasegawa, M. Ishida, T. Nakajima, Y. Honda, O. Kitao, 
 H. Nakai, M. Klene, X. Li, J. E. Knox, H. P. Hratchian, J. B. Cross, 
 V. Bakken, C. Adamo, J. Jaramillo, R. Gomperts, R. E. Stratmann, 
 O. Yazyev, A. J. Austin, R. Cammi, C. Pomelli, J. W. Ochterski, 
 P. Y. Ayala, K. Morokuma, G. A. Voth, P. Salvador, J. J. Dannenberg, 
 V. G. Zakrzewski, S. Dapprich, A. D. Daniels, M. C. Strain, 
 O. Farkas, D. K. Malick, A. D. Rabuck, K. Raghavachari, 
 J. B. Foresman, J. V. Ortiz, Q. Cui, A. G. Baboul, S. Clifford, 
 J. Cioslowski, B. B. Stefanov, G. Liu, A. Liashenko, P. Piskorz, 
 I. Komaromi, R. L. Martin, D. J. Fox, T. Keith, M. A. Al-Laham, 
 C. Y. Peng, A. Nanayakkara, M. Challacombe, P. M. W. Gill, 
 B. Johnson, W. Chen, M. W. Wong, C. Gonzalez, and J. A. Pople, 
 Gaussian, Inc., Wallingford CT, 2004.
 
 ******************************************
 Gaussian 03:  AM64L-G03RevD.01 13-Oct-2005
                21-Jul-2014 
 ******************************************
 %chk=TS2freq.chk
 %mem=1000mb
 %nproc=8
 Will use up to    8 processors via shared memory.
 -------------------------------------
 # freq nosymm b3lyp/cbsb7 iop(7/33=1)
 -------------------------------------
 1/10=4,30=1,38=1/1,3;
 2/15=1,17=6,18=5,40=1/2;
 3/5=4,6=6,7=700,11=2,16=1,25=1,30=1,74=-5/1,2,3;
 4//1;
 5/5=2,38=5/2;
 8/6=4,10=90,11=11/1;
 11/6=1,8=1,9=11,15=111,16=1,31=1/1,2,10;
 10/6=1,31=1/2;
 6/7=2,8=2,9=2,10=2,18=1,28=1/1;
 7/8=1,10=1,25=1,30=1,33=1/1,2,3,16;
 1/10=4,30=1/3;
 99//99;
 -------------------
 Title Card Required
 -------------------
 Symbolic Z-matrix:
 Charge =  0 Multiplicity = 2
 C                    -1.78982   0.64581   0.43866 
 C                    -1.46209   1.57364   1.54567 
 H                    -2.16775   2.35892   1.77818 
 H                    -0.48139   1.56966   2.00266 
 C                    -1.03375  -0.67163   0.38855 
 H                    -1.44884  -1.39017   1.10166 
 H                    -1.10592  -1.09417  -0.61559 
 H                     0.02184  -0.51752   0.62125 
 O                    -1.23646   1.63363  -0.41735 
 O                    -1.82873   1.39297  -2.00756 
 H                    -1.26827   2.08934  -2.3772 
 C                    -3.30249   0.47265   0.19397 
 H                    -3.75824   0.01482   1.07587 
 H                    -3.43368  -0.20954  -0.65463 
 O                    -3.94811   1.70501  -0.02982 
 H                    -3.53935   2.05398  -0.83505 
 

 GradGradGradGradGradGradGradGradGradGradGradGradGradGradGradGradGradGrad
 Berny optimization.
 Initialization pass.
 Trust Radius=3.00D-01 FncErr=1.00D-07 GrdErr=1.00D-07
 Number of steps in this run=   2 maximum allowed number of steps=   2.
 GradGradGradGradGradGradGradGradGradGradGradGradGradGradGradGradGradGrad

                          Input orientation:                          
 ---------------------------------------------------------------------
 Center     Atomic     Atomic              Coordinates (Angstroms)
 Number     Number      Type              X           Y           Z
 ---------------------------------------------------------------------
    1          6             0       -1.789819    0.645809    0.438659
    2          6             0       -1.462091    1.573639    1.545672
    3          1             0       -2.167750    2.358922    1.778183
    4          1             0       -0.481389    1.569655    2.002662
    5          6             0       -1.033754   -0.671634    0.388550
    6          1             0       -1.448842   -1.390174    1.101663
    7          1             0       -1.105920   -1.094170   -0.615590
    8          1             0        0.021835   -0.517524    0.621250
    9          8             0       -1.236463    1.633627   -0.417354
   10          8             0       -1.828734    1.392973   -2.007560
   11          1             0       -1.268266    2.089338   -2.377201
   12          6             0       -3.302492    0.472653    0.193966
   13          1             0       -3.758235    0.014815    1.075873
   14          1             0       -3.433681   -0.209536   -0.654629
   15          8             0       -3.948110    1.705012   -0.029818
   16          1             0       -3.539348    2.053978   -0.835046
 ---------------------------------------------------------------------
                    Distance matrix (angstroms):
                    1          2          3          4          5
     1  C    0.000000
     2  C    1.481132   0.000000
     3  H    2.207241   1.081058   0.000000
     4  H    2.238657   1.081958   1.875406   0.000000
     5  C    1.519803   2.561963   3.521547   2.816707   0.000000
     6  H    2.168194   2.996916   3.876884   3.241659   1.094133
     7  H    2.146319   3.451828   4.333760   3.786984   1.091807
     8  H    2.160734   2.725721   3.795618   2.553008   1.091864
     9  O    1.419417   1.976861   2.492736   2.535884   2.450469
    10  O    2.558077   3.576664   3.921714   4.234198   3.261279
    11  H    3.207002   3.961369   4.260160   4.480228   3.915015
    12  C    1.542089   2.535026   2.712083   3.526105   2.548417
    13  H    2.163066   2.814768   2.918513   3.743552   2.892477
    14  H    2.151552   3.450827   3.757410   4.352326   2.657331
    15  O    2.449408   2.946136   2.620333   4.020877   3.783774
    16  H    2.581882   3.195863   2.967025   4.199794   3.899250
                    6          7          8          9         10
     6  H    0.000000
     7  H    1.775999   0.000000
     8  H    1.776290   1.770346   0.000000
     9  O    3.390559   2.738104   2.699901   0.000000
    10  O    4.190166   2.940395   3.739685   1.713900   0.000000
    11  H    4.923627   3.642026   4.177415   2.012383   0.967307
    12  C    2.780298   2.816956   3.494878   2.447458   2.804580
    13  H    2.703323   3.335516   3.844346   3.348076   3.889711
    14  H    2.901388   2.490496   3.696392   2.877728   2.640892
    15  O    4.136033   4.031947   4.596087   2.740129   2.915577
    16  H    4.470262   3.985043   4.627682   2.377907   2.176676
                   11         12         13         14         15
    11  H    0.000000
    12  C    3.655495   0.000000
    13  H    4.735748   1.093196   0.000000
    14  H    3.597374   1.096679   1.774910   0.000000
    15  O    3.583222   1.409117   2.028638   2.078586   0.000000
    16  H    2.745415   1.901461   2.803160   2.273150   0.968120
                   16
    16  H    0.000000
 Symmetry turned off by external request.
 Stoichiometry    C4H9O3(2)
 Framework group  C1[X(C4H9O3)]
 Deg. of freedom    42
 Full point group                 C1
 Rotational constants (GHZ):      2.8664597      2.4916161      1.9879032
 Standard basis: CBSB7 (5D, 7F)
 Integral buffers will be    131072 words long.
 Raffenetti 2 integral format.
 Two-electron integral symmetry is turned off.
   180 basis functions,   296 primitive gaussians,   187 cartesian basis functions
    29 alpha electrons       28 beta electrons
       nuclear repulsion energy       337.0791438257 Hartrees.
 NAtoms=   16 NActive=   16 NUniq=   16 SFac= 7.50D-01 NAtFMM=   80 NAOKFM=F Big=F
 One-electron integrals computed using PRISM.
 NBasis=   180 RedAO= T  NBF=   180
 NBsUse=   180 1.00D-06 NBFU=   180
 Harris functional with IExCor=  402 diagonalized for initial guess.
 ExpMin= 1.03D-01 ExpMax= 8.59D+03 ExpMxC= 1.30D+03 IAcc=1 IRadAn=         1 AccDes= 1.00D-06
 HarFok:  IExCor= 402 AccDes= 1.00D-06 IRadAn=         1 IDoV=1
 ScaDFX=  1.000000  1.000000  1.000000  1.000000
 <S**2> of initial guess= 0.7500
 Requested convergence on RMS density matrix=1.00D-08 within 128 cycles.
 Requested convergence on MAX density matrix=1.00D-06.
 Requested convergence on             energy=1.00D-06.
 No special actions if energy rises.
 Integral accuracy reduced to 1.0D-05 until final iterations.
 Initial convergence to 1.0D-05 achieved.  Increase integral accuracy.
 SCF Done:  E(UB+HF-LYP) =  -383.447096378     A.U. after   23 cycles
             Convg  =    0.7633D-08             -V/T =  2.0033
             S**2   =   0.8037
 Annihilation of the first spin contaminant:
 S**2 before annihilation     0.8037,   after     0.7503
 Range of M.O.s used for correlation:     1   180
 NBasis=   180 NAE=    29 NBE=    28 NFC=     0 NFV=     0
 NROrb=    180 NOA=    29 NOB=    28 NVA=   151 NVB=   152
 Symmetrizing basis deriv contribution to polar:
 IMax=3 JMax=2 DiffMx= 0.00D+00
 G2DrvN: will do   17 centers at a time, making    1 passes doing MaxLOS=2.
 FoFDir/FoFCou used for L=0 through L=2.
 DoAtom=TTTTTTTTTTTTTTTT
          Differentiating once with respect to electric field.
                with respect to dipole field.
          Differentiating once with respect to nuclear coordinates.
 Symmetry not used in FoFDir.
 MinBra= 0 MaxBra= 2 Meth= 1.
 IRaf=       0 NMat=  51 IRICut=      51 DoRegI=T DoRafI=T ISym2E= 0 JSym2E=0.
          There are  51 degrees of freedom in the 1st order CPHF.
    48 vectors were produced by pass  0.
 AX will form  48 AO Fock derivatives at one time.
    48 vectors were produced by pass  1.
    48 vectors were produced by pass  2.
    48 vectors were produced by pass  3.
    48 vectors were produced by pass  4.
    48 vectors were produced by pass  5.
    31 vectors were produced by pass  6.
     4 vectors were produced by pass  7.
     3 vectors were produced by pass  8.
 Inv2:  IOpt= 1 Iter= 1 AM= 2.55D-15 Conv= 1.00D-12.
 Inverted reduced A of dimension  326 with in-core refinement.
 Isotropic polarizability for W=    0.000000       65.77 Bohr**3.
 End of Minotr Frequency-dependent properties file   721 does not exist.

 **********************************************************************

            Population analysis using the SCF density.

 **********************************************************************

 Alpha  occ. eigenvalues --  -19.17053 -19.14626 -19.10521 -10.24329 -10.22084
 Alpha  occ. eigenvalues --  -10.21596 -10.16996  -1.05792  -1.01263  -0.95558
 Alpha  occ. eigenvalues --   -0.77854  -0.71120  -0.68368  -0.56850  -0.52270
 Alpha  occ. eigenvalues --   -0.49560  -0.47589  -0.46160  -0.44046  -0.42618
 Alpha  occ. eigenvalues --   -0.40808  -0.39733  -0.37710  -0.36071  -0.33765
 Alpha  occ. eigenvalues --   -0.33131  -0.27547  -0.27010  -0.23798
 Alpha virt. eigenvalues --   -0.06078   0.03939   0.05784   0.07140   0.08720
 Alpha virt. eigenvalues --    0.09615   0.10330   0.11728   0.12627   0.14842
 Alpha virt. eigenvalues --    0.17150   0.18835   0.22165   0.23978   0.25275
 Alpha virt. eigenvalues --    0.29740   0.30573   0.33687   0.36704   0.37746
 Alpha virt. eigenvalues --    0.39534   0.43282   0.44104   0.44979   0.49555
 Alpha virt. eigenvalues --    0.52305   0.53570   0.54231   0.56521   0.57559
 Alpha virt. eigenvalues --    0.57798   0.58940   0.61042   0.62235   0.64143
 Alpha virt. eigenvalues --    0.66182   0.73983   0.74212   0.77654   0.81320
 Alpha virt. eigenvalues --    0.84521   0.86771   0.88616   0.90110   0.95318
 Alpha virt. eigenvalues --    0.97128   0.99780   1.02264   1.06277   1.07481
 Alpha virt. eigenvalues --    1.14642   1.18602   1.23965   1.26481   1.31853
 Alpha virt. eigenvalues --    1.32982   1.35876   1.36888   1.41617   1.43255
 Alpha virt. eigenvalues --    1.43868   1.46585   1.48050   1.49665   1.51598
 Alpha virt. eigenvalues --    1.52065   1.53446   1.54948   1.56790   1.61111
 Alpha virt. eigenvalues --    1.62983   1.65692   1.68816   1.69956   1.72551
 Alpha virt. eigenvalues --    1.73523   1.76373   1.82188   1.85692   1.87976
 Alpha virt. eigenvalues --    1.93185   1.95523   1.96524   2.00458   2.02288
 Alpha virt. eigenvalues --    2.07295   2.10589   2.13123   2.17174   2.21548
 Alpha virt. eigenvalues --    2.32218   2.34951   2.36159   2.40202   2.42346
 Alpha virt. eigenvalues --    2.43965   2.47153   2.49842   2.50960   2.52673
 Alpha virt. eigenvalues --    2.52973   2.56788   2.62434   2.64983   2.66889
 Alpha virt. eigenvalues --    2.69951   2.73456   2.76827   2.80440   2.82226
 Alpha virt. eigenvalues --    2.87361   2.90601   2.94410   2.96382   3.02496
 Alpha virt. eigenvalues --    3.06334   3.10932   3.14852   3.16362   3.18995
 Alpha virt. eigenvalues --    3.23728   3.28036   3.35346   3.39493   3.53192
 Alpha virt. eigenvalues --    3.68503   3.72122   3.76889   3.79217   3.81241
 Alpha virt. eigenvalues --    3.87881   3.92948   3.96619   4.22541   4.32495
 Alpha virt. eigenvalues --    4.82222   4.83314   4.87235   4.97241   5.06422
 Alpha virt. eigenvalues --    5.29096   5.41774   5.48714   5.65328  23.70823
 Alpha virt. eigenvalues --   23.77523  23.85083  23.92530  49.78364  49.85277
 Alpha virt. eigenvalues --   49.91963
  Beta  occ. eigenvalues --  -19.17175 -19.13411 -19.10511 -10.24393 -10.21566
  Beta  occ. eigenvalues --  -10.21051 -10.16993  -1.05257  -1.01103  -0.93423
  Beta  occ. eigenvalues --   -0.77467  -0.69537  -0.67981  -0.56472  -0.51774
  Beta  occ. eigenvalues --   -0.49131  -0.47278  -0.45496  -0.43585  -0.42208
  Beta  occ. eigenvalues --   -0.40515  -0.39519  -0.37483  -0.34336  -0.33460
  Beta  occ. eigenvalues --   -0.32637  -0.27025  -0.26134
  Beta virt. eigenvalues --   -0.11569  -0.02227   0.04159   0.06114   0.07467
  Beta virt. eigenvalues --    0.08874   0.09757   0.10460   0.11872   0.12695
  Beta virt. eigenvalues --    0.14900   0.17274   0.18949   0.22305   0.24142
  Beta virt. eigenvalues --    0.25569   0.29961   0.31718   0.33746   0.37770
  Beta virt. eigenvalues --    0.38047   0.39906   0.44078   0.45103   0.46394
  Beta virt. eigenvalues --    0.49688   0.52624   0.53751   0.54425   0.56718
  Beta virt. eigenvalues --    0.57891   0.57979   0.59282   0.61189   0.62395
  Beta virt. eigenvalues --    0.64583   0.66889   0.74628   0.74742   0.78580
  Beta virt. eigenvalues --    0.81740   0.84846   0.88218   0.88998   0.90481
  Beta virt. eigenvalues --    0.95760   0.97365   1.00607   1.02810   1.06794
  Beta virt. eigenvalues --    1.08011   1.15219   1.19789   1.24197   1.26890
  Beta virt. eigenvalues --    1.32019   1.33066   1.36164   1.37487   1.41922
  Beta virt. eigenvalues --    1.43290   1.44016   1.46785   1.48253   1.49878
  Beta virt. eigenvalues --    1.51746   1.52206   1.53820   1.55086   1.58271
  Beta virt. eigenvalues --    1.61629   1.63275   1.65968   1.69356   1.70111
  Beta virt. eigenvalues --    1.72787   1.73735   1.76841   1.82346   1.86435
  Beta virt. eigenvalues --    1.88637   1.94074   1.96554   1.96891   2.01302
  Beta virt. eigenvalues --    2.02384   2.07510   2.10933   2.13445   2.17500
  Beta virt. eigenvalues --    2.21741   2.32275   2.34968   2.36411   2.40495
  Beta virt. eigenvalues --    2.42622   2.44132   2.47355   2.49892   2.51076
  Beta virt. eigenvalues --    2.52897   2.53416   2.57243   2.62813   2.65480
  Beta virt. eigenvalues --    2.67870   2.70470   2.74496   2.78153   2.81240
  Beta virt. eigenvalues --    2.82986   2.88158   2.91036   2.94497   2.97284
  Beta virt. eigenvalues --    3.03024   3.07968   3.11833   3.15008   3.17076
  Beta virt. eigenvalues --    3.19199   3.24024   3.28373   3.35924   3.40449
  Beta virt. eigenvalues --    3.53301   3.69004   3.73018   3.77901   3.79300
  Beta virt. eigenvalues --    3.81324   3.88039   3.93257   3.96737   4.22598
  Beta virt. eigenvalues --    4.33005   4.83515   4.86687   4.88321   4.97143
  Beta virt. eigenvalues --    5.05507   5.29135   5.42051   5.49209   5.65345
  Beta virt. eigenvalues --   23.70952  23.77769  23.85807  23.92598  49.79513
  Beta virt. eigenvalues --   49.85221  49.92024
          Condensed to atoms (all electrons):
              1          2          3          4          5          6
     1  C    5.281292   0.303623  -0.040038  -0.034833   0.289960  -0.036225
     2  C    0.303623   5.136508   0.394100   0.401114  -0.050922  -0.001479
     3  H   -0.040038   0.394100   0.502260  -0.028011   0.007781  -0.000242
     4  H   -0.034833   0.401114  -0.028011   0.518568  -0.004654  -0.000042
     5  C    0.289960  -0.050922   0.007781  -0.004654   4.922743   0.386057
     6  H   -0.036225  -0.001479  -0.000242  -0.000042   0.386057   0.591129
     7  H   -0.035837   0.008024  -0.000240  -0.000072   0.407073  -0.025635
     8  H   -0.020621  -0.006270  -0.000120   0.003106   0.386727  -0.026853
     9  O    0.180957  -0.019422   0.001382   0.004202  -0.056393   0.004711
    10  O   -0.036038   0.010848  -0.000294  -0.000267   0.000612  -0.000014
    11  H    0.002033  -0.001813   0.000018   0.000043   0.000522  -0.000004
    12  C    0.304920  -0.058675  -0.010644   0.004638  -0.065897   0.000887
    13  H   -0.032374  -0.006406  -0.001527   0.000199   0.000017   0.002008
    14  H   -0.058510   0.009757   0.001656  -0.000352   0.000873  -0.000827
    15  O   -0.036702  -0.007951   0.024284  -0.000188   0.004863  -0.000017
    16  H   -0.009211  -0.002011  -0.001049   0.000046  -0.000602  -0.000059
              7          8          9         10         11         12
     1  C   -0.035837  -0.020621   0.180957  -0.036038   0.002033   0.304920
     2  C    0.008024  -0.006270  -0.019422   0.010848  -0.001813  -0.058675
     3  H   -0.000240  -0.000120   0.001382  -0.000294   0.000018  -0.010644
     4  H   -0.000072   0.003106   0.004202  -0.000267   0.000043   0.004638
     5  C    0.407073   0.386727  -0.056393   0.000612   0.000522  -0.065897
     6  H   -0.025635  -0.026853   0.004711  -0.000014  -0.000004   0.000887
     7  H    0.541778  -0.025317  -0.003064   0.007710  -0.000427  -0.007345
     8  H   -0.025317   0.573256   0.003291  -0.000417   0.000067   0.007610
     9  O   -0.003064   0.003291   8.222152   0.017008  -0.003160  -0.063276
    10  O    0.007710  -0.000417   0.017008   8.047576   0.269494   0.000339
    11  H   -0.000427   0.000067  -0.003160   0.269494   0.476575   0.000415
    12  C   -0.007345   0.007610  -0.063276   0.000339   0.000415   4.819059
    13  H    0.000275  -0.000780   0.004128   0.000221  -0.000045   0.384819
    14  H    0.004494   0.000050  -0.002591   0.005757  -0.000618   0.407154
    15  O    0.000052  -0.000241  -0.002220  -0.006390   0.000670   0.282897
    16  H   -0.000338   0.000022   0.005191   0.030333  -0.001240  -0.050822
             13         14         15         16
     1  C   -0.032374  -0.058510  -0.036702  -0.009211
     2  C   -0.006406   0.009757  -0.007951  -0.002011
     3  H   -0.001527   0.001656   0.024284  -0.001049
     4  H    0.000199  -0.000352  -0.000188   0.000046
     5  C    0.000017   0.000873   0.004863  -0.000602
     6  H    0.002008  -0.000827  -0.000017  -0.000059
     7  H    0.000275   0.004494   0.000052  -0.000338
     8  H   -0.000780   0.000050  -0.000241   0.000022
     9  O    0.004128  -0.002591  -0.002220   0.005191
    10  O    0.000221   0.005757  -0.006390   0.030333
    11  H   -0.000045  -0.000618   0.000670  -0.001240
    12  C    0.384819   0.407154   0.282897  -0.050822
    13  H    0.599099  -0.040274  -0.027998   0.009202
    14  H   -0.040274   0.596099  -0.028819  -0.008215
    15  O   -0.027998  -0.028819   7.872675   0.323555
    16  H    0.009202  -0.008215   0.323555   0.461510
 Mulliken atomic charges:
              1
     1  C   -0.022395
     2  C   -0.109026
     3  H    0.150683
     4  H    0.136502
     5  C   -0.228760
     6  H    0.106605
     7  H    0.128868
     8  H    0.106489
     9  O   -0.292895
    10  O   -0.346479
    11  H    0.257469
    12  C    0.043920
    13  H    0.109437
    14  H    0.114365
    15  O   -0.398469
    16  H    0.243687
 Sum of Mulliken charges=   0.00000
 Atomic charges with hydrogens summed into heavy atoms:
              1
     1  C   -0.022395
     2  C    0.178159
     3  H    0.000000
     4  H    0.000000
     5  C    0.113201
     6  H    0.000000
     7  H    0.000000
     8  H    0.000000
     9  O   -0.292895
    10  O   -0.089009
    11  H    0.000000
    12  C    0.267722
    13  H    0.000000
    14  H    0.000000
    15  O   -0.154782
    16  H    0.000000
 Sum of Mulliken charges=   0.00000
          Atomic-Atomic Spin Densities.
              1          2          3          4          5          6
     1  C   -0.030892  -0.021318  -0.002010  -0.001567   0.000652   0.000042
     2  C   -0.021318   0.824705   0.001264   0.003116   0.000366   0.000087
     3  H   -0.002010   0.001264  -0.037042   0.002931  -0.000255  -0.000008
     4  H   -0.001567   0.003116   0.002931  -0.041412   0.000980   0.000023
     5  C    0.000652   0.000366  -0.000255   0.000980  -0.001020  -0.000152
     6  H    0.000042   0.000087  -0.000008   0.000023  -0.000152   0.001366
     7  H   -0.001008   0.000130   0.000035  -0.000018   0.000560  -0.000404
     8  H    0.001816  -0.000565  -0.000023  -0.000157  -0.001565   0.000366
     9  O    0.004045  -0.021684   0.000178  -0.000859   0.001233   0.000018
    10  O    0.002061   0.007159  -0.000175  -0.000041  -0.000888   0.000020
    11  H   -0.000385  -0.000934   0.000020   0.000003   0.000082  -0.000004
    12  C    0.009410  -0.010645   0.000405  -0.000298   0.000070   0.000301
    13  H   -0.000542   0.002421   0.000093  -0.000020   0.000007  -0.000056
    14  H   -0.000052   0.000426   0.000047   0.000026  -0.000032  -0.000087
    15  O   -0.000393  -0.000510   0.000301   0.000010  -0.000007   0.000003
    16  H    0.000230  -0.000111  -0.000007   0.000007   0.000068  -0.000002
              7          8          9         10         11         12
     1  C   -0.001008   0.001816   0.004045   0.002061  -0.000385   0.009410
     2  C    0.000130  -0.000565  -0.021684   0.007159  -0.000934  -0.010645
     3  H    0.000035  -0.000023   0.000178  -0.000175   0.000020   0.000405
     4  H   -0.000018  -0.000157  -0.000859  -0.000041   0.000003  -0.000298
     5  C    0.000560  -0.001565   0.001233  -0.000888   0.000082   0.000070
     6  H   -0.000404   0.000366   0.000018   0.000020  -0.000004   0.000301
     7  H    0.003195  -0.000893   0.001231  -0.001361   0.000202  -0.001372
     8  H   -0.000893   0.000908  -0.000562   0.000345  -0.000060   0.000390
     9  O    0.001231  -0.000562  -0.011285  -0.089042   0.005814  -0.009120
    10  O   -0.001361   0.000345  -0.089042   0.517273  -0.001293   0.003521
    11  H    0.000202  -0.000060   0.005814  -0.001293  -0.010892  -0.000241
    12  C   -0.001372   0.000390  -0.009120   0.003521  -0.000241   0.024077
    13  H    0.000173  -0.000050   0.000459  -0.000220   0.000022  -0.002156
    14  H    0.000719  -0.000117   0.002186  -0.001630   0.000242  -0.005473
    15  O    0.000018  -0.000007   0.001530  -0.000090   0.000020  -0.001854
    16  H    0.000033  -0.000003   0.000646  -0.002358   0.000178  -0.000221
             13         14         15         16
     1  C   -0.000542  -0.000052  -0.000393   0.000230
     2  C    0.002421   0.000426  -0.000510  -0.000111
     3  H    0.000093   0.000047   0.000301  -0.000007
     4  H   -0.000020   0.000026   0.000010   0.000007
     5  C    0.000007  -0.000032  -0.000007   0.000068
     6  H   -0.000056  -0.000087   0.000003  -0.000002
     7  H    0.000173   0.000719   0.000018   0.000033
     8  H   -0.000050  -0.000117  -0.000007  -0.000003
     9  O    0.000459   0.002186   0.001530   0.000646
    10  O   -0.000220  -0.001630  -0.000090  -0.002358
    11  H    0.000022   0.000242   0.000020   0.000178
    12  C   -0.002156  -0.005473  -0.001854  -0.000221
    13  H   -0.000941   0.001445   0.000066  -0.000004
    14  H    0.001445   0.007112  -0.000129  -0.000006
    15  O    0.000066  -0.000129   0.004087   0.000768
    16  H   -0.000004  -0.000006   0.000768  -0.001191
 Mulliken atomic spin densities:
              1
     1  C   -0.039912
     2  C    0.783907
     3  H   -0.034246
     4  H   -0.037277
     5  C    0.000100
     6  H    0.001514
     7  H    0.001241
     8  H   -0.000176
     9  O   -0.115212
    10  O    0.433281
    11  H   -0.007227
    12  C    0.006792
    13  H    0.000695
    14  H    0.004679
    15  O    0.003813
    16  H   -0.001972
 Sum of Mulliken spin densities=   1.00000
 APT atomic charges:
              1
     1  C    0.320134
     2  C   -0.200296
     3  H    0.065669
     4  H    0.050303
     5  C    0.007704
     6  H   -0.004098
     7  H    0.013217
     8  H   -0.011778
     9  O    0.114902
    10  O   -0.667351
    11  H    0.259528
    12  C    0.435391
    13  H   -0.018871
    14  H   -0.048016
    15  O   -0.588609
    16  H    0.272168
 Sum of APT charges=   0.00000
 APT Atomic charges with hydrogens summed into heavy atoms:
              1
     1  C    0.320134
     2  C   -0.084323
     3  H    0.000000
     4  H    0.000000
     5  C    0.005045
     6  H    0.000000
     7  H    0.000000
     8  H    0.000000
     9  O    0.114902
    10  O   -0.407822
    11  H    0.000000
    12  C    0.368504
    13  H    0.000000
    14  H    0.000000
    15  O   -0.316441
    16  H    0.000000
 Sum of APT charges=   0.00000
 Electronic spatial extent (au):  <R**2>=  1830.8585
 Charge=     0.0000 electrons
 Dipole moment (field-independent basis, Debye):
    X=     1.7237    Y=    -0.4893    Z=     0.9131  Tot=     2.0111
 Quadrupole moment (field-independent basis, Debye-Ang):
   XX=   -53.4802   YY=   -41.4867   ZZ=   -38.8778
   XY=     5.0838   XZ=    -1.2186   YZ=    -1.9303
 Traceless Quadrupole moment (field-independent basis, Debye-Ang):
   XX=    -8.8653   YY=     3.1282   ZZ=     5.7371
   XY=     5.0838   XZ=    -1.2186   YZ=    -1.9303
 Octapole moment (field-independent basis, Debye-Ang**2):
  XXX=   322.7215  YYY=  -107.8508  ZZZ=   -10.4821  XYY=    92.2233
  XXY=   -65.0980  XXZ=    -1.3240  XZZ=    85.5133  YZZ=   -23.9747
  YYZ=   -11.2377  XYZ=     4.2726
 Hexadecapole moment (field-independent basis, Debye-Ang**3):
 XXXX= -1725.6888 YYYY=  -450.8899 ZZZZ=  -307.7485 XXXY=   399.5131
 XXXZ=     8.2889 YYYX=   264.6330 YYYZ=   -11.6713 ZZZX=    -2.5938
 ZZZY=    -6.6066 XXYY=  -353.1567 XXZZ=  -285.9936 YYZZ=   -92.4115
 XXYZ=   -10.6690 YYXZ=    15.6017 ZZXY=    75.1489
 N-N= 3.370791438257D+02 E-N=-1.574377020735D+03  KE= 3.821934280689D+02
  Exact polarizability:  55.297  -0.596  56.331   3.584  -1.230  85.675
 Approx polarizability:  74.442   2.403  75.740   6.044   0.519 150.167
                          Isotropic Fermi Contact Couplings
        Atom                 a.u.       MegaHertz       Gauss      10(-4) cm-1
     1  C(13)             -0.00815      -9.15870      -3.26805      -3.05501
     2  C(13)              0.03179      35.73365      12.75066      11.91946
     3  H(1)              -0.00988     -44.17494     -15.76272     -14.73517
     4  H(1)              -0.01037     -46.34622     -16.53748     -15.45943
     5  C(13)              0.00036       0.40941       0.14609       0.13656
     6  H(1)               0.00069       3.09062       1.10281       1.03092
     7  H(1)               0.00052       2.30739       0.82334       0.76966
     8  H(1)              -0.00019      -0.87120      -0.31086      -0.29060
     9  O(17)              0.44759    -271.32726     -96.81631     -90.50503
    10  O(17)              0.05092     -30.86643     -11.01391     -10.29593
    11  H(1)              -0.00657     -29.34830     -10.47220      -9.78954
    12  C(13)              0.01007      11.31930       4.03901       3.77571
    13  H(1)              -0.00016      -0.71453      -0.25496      -0.23834
    14  H(1)               0.00160       7.17276       2.55942       2.39258
    15  O(17)             -0.00029       0.17373       0.06199       0.05795
    16  H(1)               0.00001       0.03847       0.01373       0.01283
 --------------------------------------------------------
       Center         ----  Spin Dipole Couplings  ----
                      3XX-RR        3YY-RR        3ZZ-RR
 --------------------------------------------------------
     1   Atom       -0.000636      0.011969     -0.011333
     2   Atom       -0.253158      0.058366      0.194793
     3   Atom        0.003836      0.018278     -0.022114
     4   Atom        0.043659     -0.034662     -0.008997
     5   Atom       -0.004751      0.003274      0.001477
     6   Atom       -0.004182      0.006272     -0.002090
     7   Atom       -0.003155      0.002652      0.000503
     8   Atom       -0.000604      0.002184     -0.001580
     9   Atom        0.633919      0.057054     -0.690974
    10   Atom       -0.768226     -0.768591      1.536817
    11   Atom       -0.009263      0.012430     -0.003167
    12   Atom        0.010866     -0.012772      0.001906
    13   Atom        0.003849     -0.002028     -0.001821
    14   Atom       -0.000886      0.000077      0.000810
    15   Atom        0.017947     -0.012572     -0.005375
    16   Atom        0.005008     -0.006325      0.001317
 --------------------------------------------------------
                        XY            XZ            YZ
 --------------------------------------------------------
     1   Atom        0.002440      0.006165     -0.000454
     2   Atom        0.280966     -0.325684     -0.567221
     3   Atom       -0.039876     -0.030080     -0.003227
     4   Atom        0.011393      0.028149     -0.022965
     5   Atom       -0.002570     -0.002328      0.004262
     6   Atom       -0.000574     -0.000068      0.001426
     7   Atom       -0.001751      0.000406      0.000498
     8   Atom       -0.004985     -0.001991      0.002622
     9   Atom       -0.089869      0.059297     -0.542678
    10   Atom        0.190784      0.611032      0.635067
    11   Atom        0.059662     -0.023283     -0.028947
    12   Atom        0.007611      0.014290      0.001822
    13   Atom        0.006358      0.000746      0.000255
    14   Atom        0.004389     -0.000573      0.000169
    15   Atom        0.007095      0.014976      0.003825
    16   Atom       -0.004022     -0.002857      0.001353
 --------------------------------------------------------


 ---------------------------------------------------------------------------------
              Anisotropic Spin Dipole Couplings in Principal Axis System
 ---------------------------------------------------------------------------------

       Atom             a.u.   MegaHertz   Gauss  10(-4) cm-1        Axes

              Baa    -0.0142    -1.909    -0.681    -0.637 -0.4207  0.0549  0.9055
     1 C(13)  Bbb     0.0018     0.239     0.085     0.080  0.8853 -0.1931  0.4230
              Bcc     0.0124     1.670     0.596     0.557  0.1981  0.9796  0.0327
 
              Baa    -0.4459   -59.830   -21.349   -19.957  0.1870  0.6864  0.7028
     2 C(13)  Bbb    -0.4177   -56.049   -20.000   -18.696  0.9143 -0.3833  0.1312
              Bcc     0.8635   115.879    41.348    38.653 -0.3594 -0.6180  0.6992
 
              Baa    -0.0524   -27.964    -9.978    -9.328  0.6331  0.3877  0.6699
     3 H(1)   Bbb    -0.0032    -1.702    -0.607    -0.568 -0.3795 -0.5989  0.7053
              Bcc     0.0556    29.666    10.586     9.895 -0.6746  0.7007  0.2320
 
              Baa    -0.0544   -29.035   -10.360    -9.685 -0.2517  0.7919  0.5564
     4 H(1)   Bbb    -0.0015    -0.788    -0.281    -0.263 -0.3025 -0.6104  0.7320
              Bcc     0.0559    29.823    10.641     9.948  0.9193  0.0160  0.3931
 
              Baa    -0.0057    -0.768    -0.274    -0.256  0.9623  0.1771  0.2063
     5 C(13)  Bbb    -0.0020    -0.265    -0.094    -0.088 -0.0454 -0.6433  0.7643
              Bcc     0.0077     1.033     0.368     0.344 -0.2681  0.7449  0.6110
 
              Baa    -0.0042    -2.248    -0.802    -0.750  0.9985  0.0554 -0.0052
     6 H(1)   Bbb    -0.0023    -1.241    -0.443    -0.414  0.0141 -0.1626  0.9866
              Bcc     0.0065     3.489     1.245     1.164 -0.0538  0.9851  0.1632
 
              Baa    -0.0037    -1.978    -0.706    -0.660  0.9541  0.2724 -0.1242
     7 H(1)   Bbb     0.0005     0.276     0.098     0.092  0.1566 -0.1006  0.9825
              Bcc     0.0032     1.703     0.608     0.568 -0.2552  0.9569  0.1386
 
              Baa    -0.0044    -2.341    -0.835    -0.781  0.7968  0.6043  0.0006
     8 H(1)   Bbb    -0.0028    -1.502    -0.536    -0.501  0.2117 -0.2801  0.9363
              Bcc     0.0072     3.842     1.371     1.282 -0.5660  0.7459  0.3511
 
              Baa    -0.9761    70.631    25.203    23.560 -0.0067  0.4645  0.8855
     9 O(17)  Bbb     0.3070   -22.216    -7.927    -7.410  0.3114  0.8425 -0.4396
              Bcc     0.6691   -48.415   -17.276   -16.150  0.9503 -0.2728  0.1503
 
              Baa    -0.9598    69.454    24.783    23.167 -0.6429  0.7650 -0.0373
    10 O(17)  Bbb    -0.8961    64.841    23.137    21.629  0.7284  0.5957 -0.3384
              Bcc     1.8559  -134.295   -47.920   -44.796  0.2367  0.2447  0.9403
 
              Baa    -0.0591   -31.515   -11.245   -10.512  0.7647 -0.6442 -0.0151
    11 H(1)   Bbb    -0.0199   -10.642    -3.797    -3.550  0.2759  0.3062  0.9111
              Bcc     0.0790    42.157    15.043    14.062  0.5823  0.7009 -0.4119
 
              Baa    -0.0155    -2.082    -0.743    -0.694 -0.3761  0.9015  0.2143
    12 C(13)  Bbb    -0.0073    -0.982    -0.351    -0.328 -0.4658 -0.3839  0.7973
              Bcc     0.0228     3.064     1.093     1.022  0.8009  0.2001  0.5643
 
              Baa    -0.0061    -3.256    -1.162    -1.086 -0.5403  0.8403  0.0441
    13 H(1)   Bbb    -0.0019    -0.999    -0.357    -0.333 -0.0419 -0.0792  0.9960
              Bcc     0.0080     4.255     1.518     1.419  0.8405  0.5362  0.0780
 
              Baa    -0.0049    -2.599    -0.927    -0.867  0.7432 -0.6624  0.0947
    14 H(1)   Bbb     0.0008     0.448     0.160     0.150 -0.0169  0.1229  0.9923
              Bcc     0.0040     2.151     0.767     0.717  0.6689  0.7390 -0.0802
 
              Baa    -0.0143     1.033     0.369     0.345 -0.0903  0.9611 -0.2611
    15 O(17)  Bbb    -0.0126     0.914     0.326     0.305 -0.4671  0.1907  0.8634
              Bcc     0.0269    -1.947    -0.695    -0.649  0.8796  0.1999  0.4317
 
              Baa    -0.0076    -4.071    -1.453    -1.358  0.2924  0.9549 -0.0511
    16 H(1)   Bbb    -0.0002    -0.094    -0.034    -0.032  0.4304 -0.0837  0.8988
              Bcc     0.0078     4.165     1.486     1.389  0.8540 -0.2848 -0.4354
 

 ---------------------------------------------------------------------------------

 Use density number 0.
 Entering OneElI...
 Calculate overlap and kinetic energy integrals
    NBasis = 187  MinDer = 2  MaxDer = 2
 Requested accuracy = 0.1000D-12
 PrsmSu:  NPrtUS=   1 ThrOK=F
 PRISM was handed   130758460 working-precision words and  2556 shell-pairs
 Entering OneElI...
 Calculate potential energy integrals
    NBasis = 187  MinDer = 2  MaxDer = 2
 Requested accuracy = 0.1000D-12
 PrsmSu:  NPrtUS=   8 ThrOK=T
 PRISM was handed    16300656 working-precision words and  2407 shell-pairs
 PRISM was handed    16300656 working-precision words and  2407 shell-pairs
 PRISM was handed    16300656 working-precision words and  2407 shell-pairs
 PRISM was handed    16300656 working-precision words and  2407 shell-pairs
 PRISM was handed    16300656 working-precision words and  2407 shell-pairs
 PRISM was handed    16300656 working-precision words and  2407 shell-pairs
 PRISM was handed    16300656 working-precision words and  2407 shell-pairs
 PRISM was handed    16300656 working-precision words and  2407 shell-pairs
 Polarizability after L701:
                1             2             3
      1  0.552967D+02
      2 -0.596498D+00  0.563305D+02
      3  0.358381D+01 -0.122990D+01  0.856747D+02
 Dipole Derivatives after L701:
               1            2            3            4            5
      1 0.234026D+00-0.124743D+00-0.685499D-01 0.945495D-01-0.314140D-01
      2 0.270226D-01 0.612865D+00-0.866420D-01-0.618851D-01-0.877543D-01
      3-0.101679D+00-0.237901D+00 0.113510D+00 0.180436D+00 0.185362D+00
               6            7            8            9           10
      1 0.198599D-01 0.616743D-01 0.353669D-01-0.956597D-02-0.230630D-01
      2 0.272629D-01 0.538126D-01 0.362761D-01-0.173110D-01 0.667438D-02
      3-0.607682D+00-0.174930D-01-0.466843D-01 0.990574D-01-0.649365D-01
              11           12           13           14           15
      1 0.252348D-01-0.440478D-01 0.133014D-01 0.681380D-01 0.453047D-02
      2 0.846533D-01-0.374816D-01 0.120188D+00-0.898301D-01-0.616917D-01
      3-0.395146D-01 0.893201D-01-0.805840D-02-0.198415D-01 0.996418D-01
              16           17           18           19           20
      1 0.312292D-01-0.275256D-01 0.541337D-01 0.637017D-01 0.790977D-02
      2-0.574978D-01-0.295970D-01 0.991093D-01 0.255540D-02 0.340219D-01
      3 0.691888D-01 0.578615D-01-0.139248D-01-0.396791D-01-0.352443D-02
              21           22           23           24           25
      1-0.809661D-02-0.129725D+00-0.505810D-01-0.451401D-01-0.355655D+00
      2-0.835161D-01 0.933522D-02 0.393185D-01-0.334962D-02-0.654084D-01
      3-0.580739D-01-0.386086D-01-0.165932D-01 0.550728D-01 0.300519D+00
              26           27           28           29           30
      1 0.319112D-02 0.195714D+00-0.358160D+00 0.108214D+00-0.165597D-01
      2-0.496382D+00 0.242091D+00 0.815811D-01-0.292418D+00-0.311322D-01
      3 0.238325D+00 0.119674D+01-0.273031D+00-0.457879D-01-0.135147D+01
              31           32           33           34           35
      1 0.230804D+00-0.868565D-01-0.644015D-02 0.451832D+00-0.169515D+00
      2-0.761794D-01 0.224514D+00-0.308421D-02-0.179110D+00 0.547660D+00
      3-0.674689D-01-0.614268D-01 0.323267D+00 0.613057D-02-0.173937D-01
              36           37           38           39           40
      1 0.265171D-01 0.707804D-02-0.817229D-02 0.729905D-01 0.196330D-02
      2-0.106550D+00-0.283237D-01 0.173662D-02 0.100449D+00 0.104283D-01
      3 0.306680D+00 0.315574D-01 0.480650D-01-0.654262D-01 0.139574D-01
              41           42           43           44           45
      1 0.763893D-02-0.353525D-01-0.683282D+00 0.261653D+00-0.152930D+00
      2-0.940228D-01-0.123981D+00 0.180834D+00-0.751842D+00 0.100330D+00
      3-0.562868D-01-0.519872D-01-0.113554D+00 0.535631D-01-0.330703D+00
              46           47           48
      1 0.359725D+00-0.185390D-01 0.129374D-01
      2-0.240274D-01 0.260801D+00-0.145032D-01
      3 0.122720D+00-0.382223D-01 0.195980D+00
 Hessian after L701:
                1             2             3             4             5
      1  0.176972D+02
      2 -0.120776D+01  0.159365D+02
      3  0.273982D+00  0.118061D+01  0.203251D+02
      4 -0.642368D+01  0.797370D+00  0.107149D+01  0.123486D+02
      5  0.751315D+00 -0.421268D+01  0.278135D+01  0.725518D+00  0.125993D+02
      6  0.109236D+01  0.304039D+01 -0.357960D+01 -0.183284D+01 -0.353503D+01
      7  0.143615D+00 -0.295746D-01 -0.366240D-01 -0.325919D+01 -0.144392D+01
      8  0.237692D-01 -0.776137D-01 -0.288181D-01 -0.162907D+01 -0.284956D+01
      9  0.168372D-01 -0.111784D+00  0.114420D+00 -0.677718D+00  0.641845D+00
     10  0.355463D-01 -0.402432D-01 -0.186839D-01 -0.198290D+01  0.207031D-01
     11 -0.837939D-01  0.636486D-01 -0.400760D-01  0.114223D+00 -0.441697D+01
     12 -0.836406D-01 -0.374144D-01  0.666330D-01  0.131502D+01 -0.338252D-01
     13 -0.493872D+01 -0.243214D+01  0.760021D-02 -0.246502D-01  0.272427D-01
     14 -0.241938D+01 -0.155185D+01  0.861704D-01 -0.452321D-01  0.136693D+00
     15  0.285912D-01  0.221866D-01 -0.616905D+01 -0.524898D-01  0.101219D+00
     16  0.101728D+00  0.219023D-01 -0.358553D-01 -0.239255D-01  0.136603D-01
     17 -0.339638D-01 -0.233124D-01  0.104361D+00 -0.474332D-02  0.356347D-01
     18 -0.736132D-02  0.630305D-01  0.490771D-01 -0.225080D-04 -0.510191D-03
     19  0.614680D-01  0.237901D-01  0.514320D-01 -0.508507D-01 -0.199941D-01
     20 -0.375633D-02  0.775612D-01 -0.635680D-01 -0.185917D-01  0.792163D-01
     21 -0.491911D-02  0.337050D-01  0.731085D-01 -0.228529D-01  0.127887D+00
     22  0.107183D+00 -0.740844D-01  0.516039D-01  0.330562D-02 -0.183242D-01
     23  0.140358D-01  0.450922D-01 -0.152182D-01  0.894224D-02 -0.417694D-02
     24  0.506569D-01 -0.266829D-01  0.207546D-01  0.102901D-01 -0.605209D-02
     25 -0.719841D+01  0.279788D+01 -0.222452D+01 -0.731560D+00 -0.754538D-01
     26  0.270982D+01 -0.344540D+01 -0.378978D+01 -0.673901D-01 -0.981416D+00
     27 -0.220222D+01 -0.393288D+01 -0.467562D+01 -0.431396D+00 -0.232876D+00
     28 -0.730616D-01 -0.107649D+00  0.557588D-01 -0.224922D+00  0.105768D-01
     29 -0.959216D-01 -0.119514D+00 -0.173746D+00  0.120330D-01 -0.228066D+00
     30  0.326186D-01 -0.184640D+00  0.208129D-01  0.111250D+00  0.104042D+00
     31 -0.226211D-01  0.204649D-01 -0.436304D-01 -0.202765D-02  0.710104D-02
     32  0.164736D-01 -0.730971D-04 -0.716814D-01  0.480453D-02  0.382317D-02
     33 -0.304071D-01 -0.574495D-01  0.100214D+00 -0.444455D-02 -0.491291D-02
     34 -0.156173D+00  0.340557D+00  0.955666D+00  0.164932D+00  0.107113D+00
     35  0.461420D+00 -0.631969D+01  0.177443D-01  0.913658D-01  0.537242D-01
     36  0.832764D+00  0.154889D-01 -0.631900D+01  0.151781D+00  0.521040D-01
     37  0.195136D-02 -0.643403D-01  0.153653D+00 -0.543059D-01 -0.168007D-01
     38 -0.409385D-01  0.710638D-01  0.465438D-01 -0.501854D-02  0.424366D-02
     39  0.906131D-01  0.321202D-01  0.444465D-01 -0.832078D-02  0.178471D-02
     40 -0.325554D-01 -0.110709D+00 -0.334706D+00  0.334283D-01  0.793697D-01
     41 -0.104374D+00  0.195682D+00 -0.153381D+00  0.936215D-01  0.657895D-02
     42 -0.247982D+00 -0.950868D-01 -0.393427D-01  0.121231D+00  0.924472D-01
     43  0.717012D+00 -0.442091D-02  0.870282D-01  0.255993D+00 -0.176562D+00
     44 -0.210208D-01 -0.598185D+00  0.103761D+00 -0.766464D-01 -0.218812D+00
     45  0.115859D+00  0.653412D-01 -0.810682D-01  0.220759D+00 -0.778715D-01
     46 -0.204784D-01  0.689631D-01 -0.141949D-01 -0.282507D-01  0.845350D-02
     47  0.340783D-01 -0.411792D-01  0.157202D-01 -0.118627D-02 -0.757611D-02
     48  0.422484D-01 -0.693554D-02  0.491204D-01  0.282752D-01 -0.115998D-01
                6             7             8             9            10
      6  0.100807D+02
      7 -0.417731D+00  0.332061D+01
      8  0.409942D+00  0.148668D+01  0.286576D+01
      9 -0.441846D+01  0.545183D+00 -0.761666D+00  0.405594D+01
     10  0.111423D+01 -0.138275D+00  0.113573D+00 -0.223888D-01  0.197883D+01
     11  0.629889D-02  0.118401D+00  0.550357D-01  0.182734D-01 -0.178559D+00
     12 -0.377451D+01 -0.351895D-01  0.239265D-01  0.107397D+00 -0.142897D+01
     13  0.116783D-02 -0.220275D-01 -0.667968D-01 -0.327156D-01 -0.306367D-02
     14 -0.850820D-02 -0.737079D-01  0.126155D+00  0.845034D-01  0.210149D-01
     15 -0.233637D-01 -0.339625D-01  0.701008D-01 -0.182369D-01  0.215161D-01
     16 -0.177952D-02 -0.292616D-02  0.244147D-02  0.705969D-03  0.312600D-02
     17  0.135008D-01 -0.716783D-02  0.104078D-01  0.307923D-02  0.155950D-01
     18 -0.145383D-01  0.306016D-02 -0.458206D-02 -0.285678D-02 -0.404207D-02
     19 -0.222220D-01 -0.229645D-03  0.136807D-02  0.112376D-02 -0.448822D-03
     20  0.130217D+00 -0.412376D-02  0.901597D-03 -0.221844D-03  0.751205D-02
     21  0.698422D-01 -0.613286D-02  0.697586D-02  0.239652D-02  0.116850D-01
     22  0.724192D-02  0.989954D-02 -0.139439D-01 -0.530288D-02 -0.264118D-01
     23 -0.106978D-01 -0.415104D-02  0.309331D-02  0.209776D-02 -0.390474D-04
     24 -0.190451D-01 -0.815538D-04  0.282413D-03 -0.210737D-02 -0.147092D-02
     25 -0.358558D+00 -0.338805D-01 -0.481551D-01 -0.566156D-01 -0.199843D-01
     26 -0.209675D+00 -0.408613D-01 -0.242817D-01  0.569949D-01 -0.696405D-02
     27  0.110788D+01 -0.114188D+00  0.119248D+00  0.896045D-01  0.170580D+00
     28  0.745245D-01 -0.185679D-01  0.130910D-03 -0.322013D-02  0.489972D-02
     29  0.113492D+00 -0.117255D-01 -0.161579D-02  0.204152D-01  0.754902D-02
     30  0.552927D+00 -0.245660D-01  0.337531D-01  0.324482D-01  0.333910D-01
     31 -0.126233D-01  0.251371D-02 -0.414883D-02 -0.441203D-02 -0.497576D-02
     32 -0.105767D-01  0.419371D-02 -0.560364D-02 -0.391988D-02 -0.601771D-02
     33 -0.165269D-01 -0.526298D-02  0.472204D-02  0.611621D-02  0.612424D-02
     34  0.548083D-01 -0.702581D-02 -0.199742D-02 -0.196894D-01  0.859687D-01
     35 -0.304373D-01 -0.181214D-01  0.115906D-01 -0.197183D-01  0.361001D-01
     36  0.914947D-01 -0.277585D-01  0.295580D-02 -0.154820D-01  0.778305D-01
     37  0.407695D-02 -0.694899D-02  0.315110D-02  0.348130D-03  0.152579D-01
     38  0.101830D-01 -0.915167D-02  0.453939D-02  0.135118D-02  0.113650D-01
     39  0.682275D-02  0.170589D-02 -0.923193D-02 -0.332419D-02 -0.593196D-02
     40  0.121391D+00 -0.441875D-02  0.140007D-01  0.124055D-01 -0.868527D-04
     41  0.109015D+00  0.639825D-02  0.224220D-01  0.262913D-01  0.480031D-02
     42  0.846400D-01  0.461337D-02  0.293763D-01  0.167002D-01  0.583384D-02
     43  0.185021D+00  0.191557D-01  0.121838D+00  0.253351D+00  0.537090D-01
     44 -0.265239D-01  0.251379D-01 -0.138556D+00  0.461698D-01 -0.150200D-02
     45 -0.168502D+00  0.157230D+00  0.924564D-01  0.314240D-01  0.269088D-01
     46 -0.906085D-02 -0.230332D-02 -0.284521D-02 -0.789138D-02 -0.118765D-02
     47 -0.158220D-02  0.168804D-02 -0.267786D-02 -0.371172D-02 -0.488786D-02
     48  0.202859D-01 -0.102966D-01  0.105587D-01  0.401579D-02  0.133904D-01
               11            12            13            14            15
     11  0.440961D+01
     12 -0.288767D-01  0.338719D+01
     13  0.125211D-02  0.676390D-02  0.148902D+02
     14  0.230944D-02  0.128705D-01  0.200554D+01  0.121692D+02
     15  0.855699D-02 -0.103533D-01 -0.365514D+00  0.167754D+00  0.155275D+02
     16  0.479429D-02  0.394923D-02 -0.384524D+01  0.628103D+00 -0.618446D+00
     17  0.868507D-02  0.892275D-02  0.783112D+00 -0.294986D+01 -0.127360D+01
     18 -0.347481D-03 -0.550058D-02 -0.712425D+00 -0.116971D+01 -0.303032D+01
     19  0.113518D-02  0.181519D-02 -0.448087D+01  0.457230D-01  0.644139D-01
     20  0.228191D-02  0.773311D-02  0.124088D+00 -0.400592D+01  0.129720D+01
     21  0.566439D-02  0.873808D-02  0.205277D+00  0.100018D+01 -0.197217D+01
     22 -0.183557D-01 -0.197154D-01 -0.162176D+01  0.467420D+00  0.552375D+00
     23  0.187407D-01  0.280535D-01  0.214230D+00 -0.428414D+01  0.493506D-01
     24  0.203279D-01 -0.132973D-02  0.574846D+00  0.104782D+00 -0.417683D+01
     25 -0.183580D-02  0.936261D-01 -0.449995D-01 -0.445283D+00  0.211036D+00
     26 -0.852848D-01 -0.132358D-01 -0.331322D+00  0.444939D+00 -0.630512D-01
     27 -0.125929D-01  0.179191D+00  0.152093D+00  0.139494D-01 -0.159572D+00
     28  0.341404D-03  0.200204D-01 -0.212708D+00 -0.627284D-01  0.101959D+00
     29 -0.137472D-01  0.835253D-02 -0.655403D-01 -0.431365D-01 -0.292557D+00
     30  0.199902D-02  0.249850D-01  0.765275D-01 -0.229172D+00  0.150575D+00
     31  0.178129D-03 -0.301613D-02 -0.114389D-01  0.619380D-02 -0.110121D-01
     32 -0.954293D-03 -0.548650D-02  0.227701D-02  0.194541D-01 -0.407378D-01
     33 -0.729056D-03  0.679463D-02 -0.124600D-02 -0.286775D-01  0.177414D-01
     34  0.410900D-01  0.833347D-01  0.531625D-01  0.208608D+00  0.190947D-01
     35 -0.256167D-01  0.232499D-01  0.479164D-01 -0.783741D-01  0.111486D-02
     36  0.219278D-01  0.899235D-02  0.186238D-01  0.100269D-01  0.542716D-01
     37  0.540479D-02  0.694559D-02  0.683174D-01  0.138740D-03 -0.387352D-01
     38  0.573059D-04  0.462893D-02  0.786626D-02 -0.382464D-01  0.602470D-03
     39 -0.223548D-03 -0.582539D-02 -0.600624D-01  0.315119D-02 -0.148485D-01
     40 -0.293436D-02 -0.181195D-02  0.324475D-01 -0.243101D-01  0.665906D-01
     41 -0.644759D-03  0.232958D-02  0.874366D-03 -0.400078D-01  0.376930D-03
     42 -0.731873D-03  0.234847D-02  0.904043D-01 -0.156676D-01  0.874164D-02
     43 -0.107992D-02  0.401401D-01  0.166540D+00 -0.305773D+00  0.548913D-01
     44 -0.158193D-01  0.192750D-02 -0.299066D+00  0.864835D-01 -0.408101D-01
     45  0.124196D-02 -0.218403D-02  0.202478D-01 -0.180343D-01 -0.183408D+00
     46 -0.261576D-03  0.729810D-03 -0.520744D-02 -0.632311D-02 -0.309188D-03
     47 -0.132585D-02 -0.315629D-02 -0.195271D-01  0.625725D-02 -0.770299D-02
     48 -0.712723D-03  0.743054D-02  0.184109D-01 -0.136164D-01 -0.634802D-03
               16            17            18            19            20
     16  0.380635D+01
     17 -0.573060D+00  0.257849D+01
     18  0.575798D+00  0.129206D+01  0.302047D+01
     19  0.719119D-01 -0.404143D-02  0.548803D-01  0.445156D+01
     20 -0.172259D-03  0.893958D-01  0.395028D-01  0.413050D-01  0.354229D+01
     21  0.191836D-01  0.274167D-01 -0.961521D-01 -0.917624D-01 -0.126075D+01
     22 -0.463023D-01 -0.857156D-01  0.380867D-01  0.254916D-01 -0.307670D-01
     23 -0.794069D-01  0.400169D-01  0.992362D-02 -0.292827D-01  0.546606D-01
     24  0.618470D-01  0.265844D-01  0.737119D-01 -0.816913D-01 -0.371945D-01
     25 -0.459825D-01  0.385092D-01 -0.205850D-01 -0.329506D-01 -0.161163D-01
     26  0.383002D-01  0.129865D+00 -0.114423D+00 -0.111329D-02  0.728620D-01
     27 -0.202676D-01 -0.110898D+00  0.170876D-01 -0.624190D-03 -0.309158D-02
     28 -0.159119D-01 -0.584534D-02  0.569285D-02 -0.678626D-01 -0.467215D-01
     29  0.222219D-02  0.119934D-01 -0.291330D-01 -0.347637D-01  0.936495D-01
     30 -0.255369D-02 -0.312559D-01  0.185786D-01  0.259642D-01 -0.117708D+00
     31  0.399666D-03  0.341176D-02 -0.309769D-02 -0.515023D-04  0.390124D-02
     32  0.222365D-02  0.517242D-02 -0.580657D-02  0.111177D-02  0.316757D-02
     33 -0.134428D-02 -0.423367D-02  0.319067D-02 -0.880511D-03 -0.890627D-03
     34 -0.103751D-01 -0.586765D-01  0.380653D-01 -0.256555D-01  0.202244D-01
     35 -0.354545D-01  0.435759D-01 -0.563563D-01  0.141507D-01 -0.909899D-02
     36  0.190207D-01 -0.382976D-01 -0.170140D-01  0.419933D-02 -0.150221D-02
     37  0.179275D-01 -0.301257D-01  0.843258D-02  0.745678D-02 -0.863871D-02
     38 -0.137594D-01 -0.316650D-02 -0.424731D-03 -0.231679D-02 -0.405155D-02
     39 -0.393023D-02  0.963409D-02 -0.174911D-01 -0.952402D-02  0.847303D-02
     40 -0.472336D-02 -0.178866D-02  0.248203D-02  0.364163D-01 -0.302330D-01
     41  0.153348D-02 -0.566098D-02  0.441640D-02 -0.122694D-01 -0.176929D-01
     42 -0.178280D-02 -0.802974D-02  0.734101D-02  0.909654D-02 -0.759530D-02
     43 -0.577099D-02 -0.366553D-01  0.221974D-01  0.647314D-02 -0.405907D-01
     44 -0.134350D-01  0.244608D-01 -0.235234D-01 -0.245742D-01  0.185506D-01
     45  0.615857D-02 -0.116080D-01 -0.105837D-01 -0.767002D-02  0.150174D-01
     46 -0.291140D-03  0.115547D-02 -0.116170D-02 -0.185399D-02  0.268023D-02
     47  0.107289D-03  0.430312D-02 -0.411589D-02 -0.228253D-03  0.222469D-02
     48 -0.703880D-03 -0.763560D-02  0.500222D-02  0.144919D-02 -0.562019D-02
               21            22            23            24            25
     21  0.199024D+01
     22 -0.418676D-01  0.133463D+01
     23 -0.149985D-01 -0.559846D-02  0.412939D+01
     24  0.114417D-01 -0.716768D+00  0.360631D-01  0.416273D+01
     25 -0.447007D-02 -0.279188D-01 -0.260620D-01  0.247206D-01  0.817446D+01
     26  0.598946D-01 -0.954814D-01  0.469525D-01 -0.759390D-01 -0.226873D+01
     27 -0.323538D-01  0.491643D-01 -0.573834D-01 -0.257360D-01  0.152909D+01
     28  0.591639D-02  0.184031D-01 -0.134209D-01  0.273108D-01 -0.182012D+01
     29 -0.489894D-01 -0.260214D-01 -0.896384D-02 -0.204515D-01 -0.165592D-01
     30 -0.294263D-01  0.373685D-01 -0.141499D-01  0.834525D-02  0.109328D+01
     31  0.322621D-02 -0.482824D-02 -0.903805D-04 -0.119107D-02 -0.443961D-01
     32  0.851397D-02 -0.882779D-02  0.170060D-02 -0.620034D-02  0.141584D-01
     33 -0.546472D-02  0.652147D-02 -0.311345D-02  0.367612D-02 -0.157770D-01
     34 -0.159931D-01  0.186909D+00 -0.752208D-01  0.349224D-01  0.799385D+00
     35  0.261515D-01 -0.782901D-01 -0.333540D-01 -0.130308D-01 -0.905910D-01
     36  0.959551D-02  0.275521D-01 -0.840885D-02 -0.471407D-01 -0.735911D-01
     37 -0.153849D-01 -0.173328D-02  0.271954D-02  0.159431D-02  0.703427D-01
     38 -0.248551D-03  0.516111D-02  0.255231D-03  0.474250D-03  0.946554D-01
     39  0.116341D-01 -0.722766D-02 -0.714420D-03 -0.831136D-03 -0.104444D+00
     40 -0.107052D-01  0.105734D-01 -0.450542D-03  0.461157D-02  0.204921D-01
     41 -0.283945D-02  0.664841D-02 -0.241393D-02  0.227442D-02  0.576407D-01
     42 -0.296339D-01  0.127038D-01  0.344979D-03  0.152478D-02  0.326703D-01
     43 -0.324794D-01  0.338830D-01 -0.547617D-02  0.102545D-01  0.827581D+00
     44  0.265243D-01 -0.176522D-01 -0.722795D-02 -0.335795D-02  0.634681D-01
     45 -0.463495D-02 -0.135493D-02  0.545896D-03 -0.108179D-01 -0.278806D+00
     46  0.127935D-02 -0.131842D-02 -0.728453D-03  0.149073D-03  0.107941D+00
     47  0.491303D-02 -0.616738D-02  0.368810D-03 -0.187919D-02 -0.775220D-01
     48 -0.716542D-02  0.961905D-02 -0.169495D-02  0.164908D-02  0.152933D+00
               26            27            28            29            30
     26  0.705243D+01
     27  0.367533D+01  0.338857D+01
     28 -0.396693D-01  0.127319D+01  0.723398D+01
     29 -0.236430D+01  0.582261D+00 -0.170728D+01  0.742556D+01
     30  0.414337D+00  0.639859D+00  0.581989D+00  0.138713D+01  0.360534D+01
     31  0.367494D-01 -0.985435D-01 -0.480053D+01  0.192130D+01 -0.930797D+00
     32 -0.132390D-01 -0.127888D+00  0.193907D+01 -0.391564D+01 -0.124840D+01
     33 -0.290630D-01  0.114786D-01 -0.106844D+01 -0.141475D+01 -0.530078D+01
     34 -0.459996D-01 -0.759857D-01 -0.177495D+00  0.105524D+00 -0.267899D+00
     35 -0.317342D+00  0.168368D+00  0.776897D-01 -0.285951D+00 -0.134313D+00
     36  0.148750D+00 -0.266103D-01 -0.341139D+00 -0.236049D+00  0.280386D+00
     37  0.863653D-01 -0.837519D-01  0.908520D-04  0.100976D-01 -0.335983D-01
     38  0.149755D-01 -0.608820D-01  0.170997D-01 -0.972818D-02 -0.274565D-01
     39 -0.692581D-01  0.175343D-01 -0.353865D-01 -0.183890D-01  0.378538D-01
     40  0.335532D-01  0.767196D-03  0.390520D-03  0.835660D-01 -0.733665D-01
     41  0.166559D-01 -0.179510D-02  0.104105D+00  0.268964D-01 -0.964758D-01
     42  0.260559D-01 -0.265936D-01 -0.290245D-01 -0.369746D-01 -0.480810D-01
     43  0.227889D-01 -0.203057D+00  0.166614D+00 -0.121813D+00 -0.444987D+00
     44 -0.466869D+00 -0.525552D-02 -0.434306D-01 -0.377127D+00  0.342845D-01
     45  0.450568D-02 -0.432183D+00 -0.535660D+00  0.125630D+00  0.100439D+00
     46 -0.300425D-01  0.551458D-01 -0.131979D-01 -0.626683D-01 -0.214623D+00
     47 -0.805544D-01 -0.136147D-01 -0.122265D+00 -0.190314D+00  0.108018D+00
     48 -0.214450D-01 -0.725374D-01 -0.133493D+00  0.337574D-01 -0.942700D-01
               31            32            33            34            35
     31  0.485033D+01
     32 -0.202496D+01  0.391224D+01
     33  0.117968D+01  0.156702D+01  0.514824D+01
     34 -0.529644D-03  0.163581D-01 -0.162213D-01  0.144520D+02
     35  0.123193D-01 -0.194098D-02 -0.143964D-01  0.237442D+01  0.153203D+02
     36 -0.254403D-01 -0.277604D-01  0.805865D-02 -0.907821D+00  0.104650D+01
     37  0.208470D-02  0.334869D-02 -0.251867D-02 -0.425182D+01  0.598169D+00
     38  0.338811D-02  0.287270D-02 -0.263000D-02  0.559471D+00 -0.395889D+01
     39 -0.522228D-02 -0.576963D-02  0.368524D-02 -0.890404D+00 -0.116642D+01
     40 -0.332708D-03  0.969827D-04  0.114680D-02 -0.490554D+01  0.348479D+00
     41  0.299638D-02  0.374105D-02 -0.801159D-03  0.189586D+00 -0.340586D+01
     42  0.655309D-02  0.731999D-02 -0.461103D-02  0.218332D+00  0.161746D+01
     43  0.462001D-01  0.368283D-01 -0.565001D-01 -0.639814D+01 -0.387455D+01
     44  0.165243D-01 -0.141486D-01 -0.122698D-01 -0.368792D+01 -0.109857D+01
     45 -0.630565D-01 -0.336646D-01  0.272160D-01  0.730810D+00 -0.149676D+01
     46 -0.979765D-02 -0.113581D-02  0.956618D-02  0.190418D+00  0.349723D-01
     47 -0.532978D-02 -0.568684D-03  0.217606D-02 -0.931370D-01  0.105544D+00
     48  0.125803D-01  0.503437D-02 -0.903309D-02  0.589783D-01  0.308376D-01
               36            37            38            39            40
     36  0.197348D+02
     37 -0.101635D+01  0.400125D+01
     38 -0.125189D+01 -0.818118D+00  0.390097D+01
     39 -0.271932D+01  0.107544D+01  0.146947D+01  0.255493D+01
     40  0.435294D+00  0.152603D+00  0.140426D-01  0.591712D-01  0.461720D+01
     41  0.177577D+01  0.208304D-01  0.163226D+00 -0.584687D-01 -0.578327D+00
     42 -0.300562D+01  0.873806D-01 -0.480079D-01 -0.227460D+00 -0.303550D+00
     43  0.880726D+00  0.191469D-01  0.160968D+00 -0.816314D-01  0.875044D-02
     44 -0.162020D+01  0.180552D+00 -0.227525D+00 -0.725007D-01  0.170458D+00
     45 -0.816492D+01 -0.122006D+00 -0.163355D-01  0.228157D+00  0.223246D-01
     46 -0.556893D-01 -0.416172D-01  0.152859D-01 -0.148493D-01  0.353539D-01
     47  0.110580D+00  0.272463D-01  0.793973D-01 -0.123661D+00  0.518592D-02
     48  0.127479D+00 -0.255279D-01 -0.125379D+00  0.840300D-01 -0.204415D-02
               41            42            43            44            45
     41  0.313500D+01
     42 -0.181662D+01  0.296073D+01
     43  0.180132D+00 -0.106742D-01  0.105227D+02
     44  0.139535D-01  0.238447D+00  0.300227D+01  0.908958D+01
     45  0.205965D+00  0.273708D+00  0.133312D+01  0.331385D+01  0.116006D+02
     46  0.258042D-01  0.419428D-02 -0.643982D+01  0.726842D+00 -0.162486D+01
     47 -0.111871D+00  0.172610D-01  0.104210D+01 -0.607019D+01 -0.217028D+01
     48  0.393887D-02  0.256084D-01 -0.203740D+01 -0.196052D+01 -0.320320D+01
               46            47            48
     46  0.623161D+01
     47 -0.780152D+00  0.630816D+01
     48  0.187158D+01  0.207104D+01  0.306221D+01
 ReadGW:  IGet=0 IStart=         114 Next=        7220 LGW=        7106.
 ICntrl=12127.
 Symmetry not used in FoFDir.
 MinBra= 0 MaxBra= 2 Meth= 1.
 IRaf=       0 NMat=   1 IRICut=       1 DoRegI=T DoRafI=F ISym2E= 0 JSym2E=0.
 PrsmSu:  NPrtUS=   8 ThrOK=T
 PRISM was handed    16286357 working-precision words and  2497 shell-pairs
 PRISM was handed    16286357 working-precision words and  2497 shell-pairs
 PRISM was handed    16286357 working-precision words and  2497 shell-pairs
 PRISM was handed    16286357 working-precision words and  2497 shell-pairs
 PRISM was handed    16286357 working-precision words and  2497 shell-pairs
 PRISM was handed    16286357 working-precision words and  2497 shell-pairs
 PRISM was handed    16286357 working-precision words and  2497 shell-pairs
 PRISM was handed    16286357 working-precision words and  2497 shell-pairs
 Pruned (  75, 302) grid will be used in CalDFT.
 CkSvGd:  ISavGI=        -1 IRadAn=       4 IRASav=       4 ISavGd=        -1.
 CalDSu:  NPrtUS=   8 ThrOK=T
 IPart= 0 IRanGd=          0 ScrnBf=T ScrnGd=T RCrit=4.00D+00 DoMicB=T.
 IPart= 4 IRanGd=          0 ScrnBf=T ScrnGd=T RCrit=4.00D+00 DoMicB=T.
 CutRad = 1000.00    CtRdIn =    0.00    XCrit =  15.00   ICut = 0
 CutRad = 1000.00    CtRdIn =    0.00    XCrit =  15.00   ICut = 0
 IPart= 7 IRanGd=          0 ScrnBf=T ScrnGd=T RCrit=4.00D+00 DoMicB=T.
 IPart= 1 IRanGd=          0 ScrnBf=T ScrnGd=T RCrit=4.00D+00 DoMicB=T.
 CutRad = 1000.00    CtRdIn =    0.00    XCrit =  15.00   ICut = 0
 CutRad = 1000.00    CtRdIn =    0.00    XCrit =  15.00   ICut = 0
 IPart= 2 IRanGd=          0 ScrnBf=T ScrnGd=T RCrit=4.00D+00 DoMicB=T.
 CutRad = 1000.00    CtRdIn =    0.00    XCrit =  15.00   ICut = 0
 IPart= 3 IRanGd=          0 ScrnBf=T ScrnGd=T RCrit=4.00D+00 DoMicB=T.
 CutRad = 1000.00    CtRdIn =    0.00    XCrit =  15.00   ICut = 0
 IPart= 5 IRanGd=          0 ScrnBf=T ScrnGd=T RCrit=4.00D+00 DoMicB=T.
 CutRad = 1000.00    CtRdIn =    0.00    XCrit =  15.00   ICut = 0
 IPart= 6 IRanGd=          0 ScrnBf=T ScrnGd=T RCrit=4.00D+00 DoMicB=T.
 CutRad = 1000.00    CtRdIn =    0.00    XCrit =  15.00   ICut = 0
 IPart= 0        12930 of        14448 points in      29 batches and       90 microbatches, Max-NSigAt=      16 Max-NSgAt2=      16
 IPart= 6        14783 of        17196 points in      35 batches and       95 microbatches, Max-NSigAt=      16 Max-NSgAt2=      16
 IPart= 4        14062 of        16398 points in      34 batches and       95 microbatches, Max-NSigAt=      16 Max-NSgAt2=      16
 IPart= 3        13677 of        15258 points in      31 batches and       81 microbatches, Max-NSigAt=      16 Max-NSgAt2=      16
 IPart= 7        13501 of        15688 points in      33 batches and       86 microbatches, Max-NSigAt=      16 Max-NSgAt2=      16
 IPart= 5        14810 of        16230 points in      32 batches and      115 microbatches, Max-NSigAt=      16 Max-NSgAt2=      16
 IPart= 2        14596 of        17100 points in      36 batches and       99 microbatches, Max-NSigAt=      16 Max-NSgAt2=      16
 IPart= 1        13947 of        15472 points in      32 batches and      120 microbatches, Max-NSigAt=      16 Max-NSgAt2=      16
 Polarizability after L703:
                1             2             3
      1  0.552967D+02
      2 -0.596498D+00  0.563305D+02
      3  0.358381D+01 -0.122990D+01  0.856747D+02
 Dipole Derivatives after L703:
               1            2            3            4            5
      1 0.234026D+00-0.124743D+00-0.685499D-01 0.945495D-01-0.314140D-01
      2 0.270226D-01 0.612865D+00-0.866420D-01-0.618851D-01-0.877543D-01
      3-0.101679D+00-0.237901D+00 0.113510D+00 0.180436D+00 0.185362D+00
               6            7            8            9           10
      1 0.198599D-01 0.616743D-01 0.353669D-01-0.956597D-02-0.230630D-01
      2 0.272629D-01 0.538126D-01 0.362761D-01-0.173110D-01 0.667438D-02
      3-0.607682D+00-0.174930D-01-0.466843D-01 0.990574D-01-0.649365D-01
              11           12           13           14           15
      1 0.252348D-01-0.440478D-01 0.133014D-01 0.681380D-01 0.453047D-02
      2 0.846533D-01-0.374816D-01 0.120188D+00-0.898301D-01-0.616917D-01
      3-0.395146D-01 0.893201D-01-0.805840D-02-0.198415D-01 0.996418D-01
              16           17           18           19           20
      1 0.312292D-01-0.275256D-01 0.541337D-01 0.637017D-01 0.790977D-02
      2-0.574978D-01-0.295970D-01 0.991093D-01 0.255540D-02 0.340219D-01
      3 0.691888D-01 0.578615D-01-0.139248D-01-0.396791D-01-0.352443D-02
              21           22           23           24           25
      1-0.809661D-02-0.129725D+00-0.505810D-01-0.451401D-01-0.355655D+00
      2-0.835161D-01 0.933522D-02 0.393185D-01-0.334962D-02-0.654084D-01
      3-0.580739D-01-0.386086D-01-0.165932D-01 0.550728D-01 0.300519D+00
              26           27           28           29           30
      1 0.319112D-02 0.195714D+00-0.358160D+00 0.108214D+00-0.165597D-01
      2-0.496382D+00 0.242091D+00 0.815811D-01-0.292418D+00-0.311322D-01
      3 0.238325D+00 0.119674D+01-0.273031D+00-0.457879D-01-0.135147D+01
              31           32           33           34           35
      1 0.230804D+00-0.868565D-01-0.644015D-02 0.451832D+00-0.169515D+00
      2-0.761794D-01 0.224514D+00-0.308421D-02-0.179110D+00 0.547660D+00
      3-0.674689D-01-0.614268D-01 0.323267D+00 0.613057D-02-0.173937D-01
              36           37           38           39           40
      1 0.265171D-01 0.707804D-02-0.817229D-02 0.729905D-01 0.196330D-02
      2-0.106550D+00-0.283237D-01 0.173662D-02 0.100449D+00 0.104283D-01
      3 0.306680D+00 0.315574D-01 0.480650D-01-0.654262D-01 0.139574D-01
              41           42           43           44           45
      1 0.763893D-02-0.353525D-01-0.683282D+00 0.261653D+00-0.152930D+00
      2-0.940228D-01-0.123981D+00 0.180834D+00-0.751842D+00 0.100330D+00
      3-0.562868D-01-0.519872D-01-0.113554D+00 0.535631D-01-0.330703D+00
              46           47           48
      1 0.359725D+00-0.185390D-01 0.129374D-01
      2-0.240274D-01 0.260801D+00-0.145032D-01
      3 0.122720D+00-0.382223D-01 0.195980D+00
 Hessian after L703:
                1             2             3             4             5
      1  0.474143D+00
      2 -0.314236D-02  0.545551D+00
      3  0.441078D-01  0.732757D-01  0.391106D+00
      4 -0.828928D-01 -0.101280D-01 -0.361847D-01  0.573604D+00
      5 -0.725340D-02 -0.129604D+00 -0.919943D-01 -0.148216D+00  0.393593D+00
      6 -0.500772D-01 -0.124564D+00 -0.121289D+00  0.142865D+00  0.198254D+00
      7  0.979826D-02 -0.632300D-02 -0.152355D-02 -0.179211D+00  0.148697D+00
      8  0.133711D-01 -0.124547D-01  0.304919D-04  0.150083D+00 -0.200657D+00
      9  0.118671D-01 -0.121569D-01 -0.434731D-02  0.302777D-01 -0.529019D-01
     10 -0.365870D-02  0.307711D-02  0.247314D-02 -0.296385D+00  0.115497D-01
     11 -0.188896D-01  0.530905D-02 -0.456681D-02  0.110217D-01 -0.436637D-01
     12 -0.164631D-01 -0.109506D-02 -0.599768D-02 -0.116320D+00 -0.108965D-01
     13 -0.117650D+00  0.575777D-01  0.116557D-02  0.250672D-02 -0.240305D-02
     14  0.484972D-01 -0.151973D+00 -0.105560D-01  0.896537D-02 -0.168304D-01
     15  0.211485D-02 -0.150358D-01 -0.769234D-01  0.164658D-01 -0.251547D-01
     16  0.710842D-02  0.750198D-02 -0.119018D-01  0.381566D-03 -0.569524D-03
     17 -0.144077D-01 -0.134544D-01  0.185636D-01 -0.769704D-04  0.686980D-03
     18 -0.103059D-02 -0.231474D-02 -0.428088D-03 -0.417946D-03  0.309928D-03
     19  0.397988D-03  0.548648D-02  0.167712D-01 -0.162430D-02  0.181672D-02
     20 -0.213633D-02 -0.130812D-01 -0.283042D-01  0.409696D-02 -0.427528D-02
     21  0.104233D-03 -0.421955D-03 -0.152031D-02  0.387634D-03  0.304284D-03
     22 -0.183953D-01 -0.375224D-02 -0.300889D-02  0.461134D-03 -0.106477D-02
     23  0.316229D-01  0.315880D-02  0.662660D-02  0.706363D-03  0.127337D-02
     24  0.235352D-02  0.271158D-03 -0.140513D-02  0.121691D-02  0.766872D-04
     25 -0.844083D-01 -0.424882D-01  0.537985D-02 -0.950189D-02  0.395356D-03
     26 -0.516516D-01 -0.144705D+00  0.326646D-01  0.162881D-02 -0.248857D-02
     27  0.487074D-01  0.109732D+00 -0.665653D-01 -0.165142D-01 -0.310246D-01
     28  0.217699D-02 -0.213249D-02  0.869148D-02  0.588729D-02  0.392708D-02
     29  0.755228D-02  0.558380D-02  0.902585D-02  0.131958D-03  0.232255D-02
     30 -0.772112D-02 -0.175346D-01 -0.262226D-01  0.105654D-01  0.166344D-01
     31 -0.149158D-02 -0.119961D-02 -0.277321D-02  0.471311D-04  0.791648D-03
     32 -0.190048D-03 -0.946316D-03 -0.258601D-02  0.634449D-03  0.788182D-03
     33 -0.186472D-02 -0.120652D-02 -0.620299D-02  0.125915D-03  0.597684D-03
     34 -0.139466D+00 -0.170925D-01 -0.118087D-01 -0.920798D-02 -0.885799D-02
     35 -0.120384D-01 -0.770588D-01 -0.612904D-02 -0.186493D-01 -0.636070D-03
     36 -0.245858D-01 -0.129221D-01 -0.782031D-01 -0.307949D-01 -0.468311D-02
     37 -0.101374D-01 -0.118183D-01  0.253605D-01  0.215182D-02  0.368740D-03
     38 -0.507680D-02 -0.184059D-02  0.358309D-02  0.380269D-03  0.433407D-03
     39 -0.345790D-02 -0.310099D-02  0.409471D-02  0.119753D-03 -0.605874D-04
     40 -0.889518D-02 -0.195598D-01 -0.274859D-01 -0.603543D-02  0.582897D-03
     41 -0.286305D-02 -0.267424D-02 -0.672545D-02 -0.303373D-03  0.664550D-03
     42  0.121493D-04 -0.357483D-02 -0.471059D-02 -0.135990D-02  0.304244D-03
     43 -0.273491D-01  0.393030D-01 -0.578907D-02  0.691930D-03  0.690938D-03
     44  0.158274D-01 -0.127354D-01  0.677381D-02  0.134542D-03 -0.174529D-02
     45 -0.528522D-02  0.116473D-01 -0.622296D-03 -0.265363D-03 -0.379725D-03
     46  0.719390D-03  0.469039D-02 -0.347361D-02 -0.873112D-03 -0.455294D-03
     47  0.778467D-03  0.925729D-03  0.318178D-03 -0.409155D-03  0.137717D-03
     48  0.121873D-02 -0.997757D-03 -0.763327D-03 -0.166772D-03  0.614658D-03
                6             7             8             9            10
      6  0.268329D+00
      7  0.313535D-01  0.178715D+00
      8 -0.634232D-01 -0.158386D+00  0.206183D+00
      9 -0.480492D-01 -0.350479D-01  0.641440D-01  0.472634D-01
     10 -0.123333D+00 -0.830998D-02 -0.396647D-02 -0.800664D-02  0.304181D+00
     11 -0.166658D-01  0.163673D-01  0.428472D-02  0.794005D-02 -0.103431D-01
     12 -0.854020D-01  0.555215D-02 -0.846482D-03  0.724721D-02  0.129113D+00
     13 -0.270956D-03 -0.531005D-03 -0.114768D-02 -0.116500D-02  0.817224D-03
     14 -0.452300D-02 -0.750492D-03 -0.443824D-03 -0.297002D-03  0.363548D-03
     15 -0.162348D-02 -0.167158D-02 -0.396000D-02 -0.261236D-02  0.359446D-03
     16 -0.299459D-04  0.583533D-05 -0.393875D-04 -0.486122D-04 -0.333572D-04
     17 -0.482131D-03 -0.377824D-04 -0.689747D-04  0.253429D-04 -0.526368D-04
     18  0.491619D-03  0.718520D-04  0.929979D-04  0.970077D-04 -0.347889D-04
     19 -0.426369D-03  0.441792D-03  0.551744D-03  0.402650D-03  0.122531D-03
     20  0.701912D-03 -0.601676D-03 -0.124201D-02 -0.724216D-03 -0.262357D-05
     21  0.824701D-03 -0.232854D-03 -0.293426D-04  0.183734D-03  0.778076D-04
     22 -0.240732D-03  0.249289D-03 -0.438617D-04  0.117348D-03  0.368556D-03
     23  0.922646D-03 -0.984009D-04  0.191619D-03  0.284771D-04 -0.384657D-03
     24  0.251307D-03 -0.869123D-04  0.110632D-03  0.265832D-05 -0.875170D-04
     25  0.366774D-01 -0.854174D-03 -0.295678D-02  0.161149D-02  0.214910D-02
     26  0.216020D-01  0.159731D-02  0.377162D-02 -0.713504D-02  0.256159D-03
     27  0.737773D-01  0.200391D-02  0.641966D-03 -0.339303D-03 -0.591759D-03
     28 -0.280548D-01 -0.337214D-03  0.670381D-03 -0.697691D-03  0.594595D-03
     29 -0.395138D-02 -0.505512D-04  0.264861D-03  0.715320D-03  0.166870D-03
     30 -0.761883D-01 -0.114418D-02  0.118919D-02  0.126073D-03  0.122380D-02
     31 -0.152635D-02 -0.161488D-03 -0.107705D-03  0.109795D-03  0.853638D-05
     32  0.252251D-03 -0.657892D-04  0.122863D-04  0.751435D-05 -0.421034D-04
     33 -0.146487D-02 -0.177762D-04 -0.107378D-03 -0.547712D-04 -0.603247D-04
     34 -0.761281D-02  0.698820D-03  0.217490D-02  0.553154D-03  0.385180D-03
     35 -0.656348D-02 -0.100219D-02 -0.803313D-03 -0.156572D-02  0.893763D-04
     36 -0.106799D-01  0.655770D-03  0.628818D-03  0.101466D-02 -0.867255D-03
     37  0.407529D-04 -0.189425D-03 -0.430905D-03 -0.178676D-03  0.476840D-04
     38  0.794699D-04  0.000000D+00 -0.246462D-03  0.149519D-03  0.160572D-04
     39  0.102013D-02  0.122635D-03  0.646078D-04 -0.101802D-03  0.119375D-04
     40 -0.983503D-03  0.631700D-04  0.126361D-04  0.203830D-04 -0.266027D-03
     41  0.630969D-03  0.398664D-03  0.344864D-04  0.282081D-03 -0.756235D-04
     42  0.430684D-03  0.141344D-03  0.264694D-03  0.354548D-04 -0.166841D-03
     43  0.430747D-03 -0.743658D-03  0.398322D-04  0.330558D-03  0.605283D-05
     44 -0.170582D-02 -0.826018D-05  0.878817D-03  0.160158D-02 -0.620518D-03
     45  0.178638D-02  0.299865D-03  0.113150D-02  0.275376D-03 -0.281649D-03
     46  0.118893D-02  0.365630D-03  0.175378D-03 -0.145649D-03 -0.273767D-04
     47 -0.563521D-03  0.262597D-03  0.294682D-03 -0.113157D-03 -0.310992D-04
     48 -0.221434D-02 -0.476247D-03  0.675865D-04 -0.740825D-03  0.171009D-03
               11            12            13            14            15
     11  0.350591D-01
     12  0.154150D-01  0.850914D-01
     13 -0.139386D-02 -0.573408D-03  0.556382D+00
     14  0.124196D-02  0.100602D-02  0.448138D-01  0.491734D+00
     15  0.948202D-03  0.689179D-03  0.475579D-02 -0.294709D-02  0.569059D+00
     16  0.180498D-05  0.141814D-03 -0.864746D-01 -0.639410D-01  0.658617D-01
     17 -0.241639D-03 -0.206592D-04 -0.628378D-01 -0.157447D+00  0.110186D+00
     18  0.432011D-04 -0.310590D-04  0.648681D-01  0.110759D+00 -0.157042D+00
     19  0.251998D-03  0.200860D-03 -0.491017D-01 -0.652612D-02 -0.183483D-01
     20  0.229412D-03  0.507870D-04 -0.705991D-02 -0.841292D-01 -0.918544D-01
     21  0.216449D-03 -0.276388D-04 -0.171260D-01 -0.945941D-01 -0.273056D+00
     22  0.783840D-03  0.690099D-03 -0.292862D+00 -0.382999D-01 -0.553889D-01
     23 -0.244913D-03 -0.477650D-03 -0.417466D-01 -0.526605D-01 -0.919656D-02
     24 -0.179800D-03  0.244990D-04 -0.552918D-01 -0.922890D-02 -0.586513D-01
     25  0.196035D-02 -0.411830D-02  0.829006D-02  0.378631D-02 -0.751854D-02
     26  0.118781D-03 -0.258773D-02 -0.169790D-01 -0.341497D-01  0.320951D-01
     27 -0.657735D-03  0.122430D-02  0.418643D-02  0.114070D-01 -0.568884D-02
     28  0.463819D-03  0.306323D-03 -0.262205D-03  0.560576D-03 -0.149981D-03
     29  0.129430D-03  0.220743D-03  0.880049D-04 -0.282107D-03  0.634905D-03
     30  0.612150D-03 -0.106945D-02 -0.706528D-03  0.194297D-03  0.333022D-02
     31  0.100430D-04 -0.155835D-04  0.266734D-03  0.110834D-03 -0.162959D-03
     32 -0.971092D-04  0.211472D-03  0.603651D-04 -0.109986D-04  0.355089D-04
     33 -0.711631D-04 -0.119181D-03 -0.580791D-04 -0.435875D-03  0.192792D-03
     34  0.524792D-03  0.242924D-02 -0.146452D-01  0.790447D-02 -0.447862D-02
     35 -0.293418D-02 -0.205433D-02  0.288651D-01  0.277408D-02  0.343321D-02
     36 -0.345444D-02 -0.224038D-02 -0.136570D-03 -0.693541D-03  0.217164D-02
     37 -0.383092D-05  0.124577D-03  0.296285D-03 -0.842244D-04 -0.192833D-03
     38 -0.340089D-04  0.620927D-04 -0.275010D-03 -0.528299D-03 -0.256339D-03
     39  0.822415D-04  0.126758D-03  0.652478D-03  0.449510D-03 -0.416737D-03
     40 -0.135110D-02 -0.920344D-03  0.127364D-02 -0.111585D-02 -0.463410D-03
     41 -0.121878D-03  0.153600D-04  0.765217D-03  0.313993D-03  0.439173D-03
     42 -0.321007D-03  0.374119D-04  0.473913D-03 -0.121156D-03  0.127420D-03
     43  0.516112D-03 -0.928161D-05 -0.774650D-02 -0.384788D-02 -0.141493D-02
     44  0.103368D-02  0.109378D-02  0.227709D-02  0.273541D-02  0.458259D-03
     45  0.768447D-03  0.331576D-03 -0.164769D-02 -0.995482D-03  0.207136D-03
     46  0.796843D-04 -0.137939D-03 -0.559971D-03 -0.436699D-03  0.232481D-03
     47 -0.687475D-04 -0.968067D-04 -0.604348D-03 -0.343870D-03  0.174547D-03
     48 -0.108944D-03  0.115149D-03  0.873748D-03  0.576008D-03  0.236527D-03
               16            17            18            19            20
     16  0.893980D-01
     17  0.700882D-01  0.170682D+00
     18 -0.725183D-01 -0.123061D+00  0.168103D+00
     19  0.713741D-04  0.572612D-02  0.115137D-01  0.503044D-01
     20  0.249329D-02  0.956028D-02  0.203033D-01  0.535745D-02  0.911492D-01
     21 -0.192607D-02 -0.788384D-02 -0.174373D-01  0.192565D-01  0.103797D+00
     22 -0.100520D-01 -0.133418D-02 -0.240285D-02 -0.910991D-03 -0.282669D-03
     23 -0.199688D-01 -0.318407D-02 -0.614856D-02 -0.117681D-01 -0.247649D-02
     24  0.211817D-01  0.211280D-02  0.497239D-02 -0.293162D-01 -0.403979D-02
     25 -0.196222D-03  0.295468D-02 -0.254543D-03  0.422543D-03 -0.108852D-02
     26  0.484718D-02 -0.768179D-02 -0.338114D-03 -0.127486D-02  0.242037D-02
     27 -0.802449D-03  0.210194D-02  0.214663D-03 -0.558635D-03 -0.217363D-02
     28  0.505090D-04 -0.240845D-03  0.950959D-04 -0.293207D-03  0.378810D-03
     29 -0.129088D-04  0.595798D-04  0.226807D-03  0.395733D-04  0.898041D-03
     30  0.391670D-04 -0.111165D-02  0.657706D-03 -0.119645D-03  0.186254D-02
     31 -0.121594D-03  0.124014D-03  0.661355D-04  0.778792D-04 -0.322967D-04
     32  0.504753D-04  0.298300D-04 -0.160832D-04 -0.226770D-03  0.233639D-03
     33  0.423773D-04 -0.155483D-03  0.765332D-04  0.280334D-05  0.453419D-04
     34 -0.420929D-03 -0.557953D-03  0.447879D-03  0.684501D-03 -0.163750D-02
     35 -0.185634D-03  0.375081D-03  0.408253D-03  0.721645D-03 -0.356882D-04
     36  0.659495D-04  0.507870D-03  0.886003D-04  0.148081D-02 -0.327444D-03
     37 -0.423136D-03  0.731260D-03 -0.212747D-03 -0.220033D-04 -0.712734D-04
     38  0.401273D-03  0.176230D-03 -0.423611D-04  0.190850D-03  0.107982D-03
     39 -0.505034D-04 -0.284593D-03  0.417629D-03 -0.995695D-04  0.717661D-04
     40  0.142385D-04  0.150532D-03  0.662728D-05 -0.655284D-03  0.548973D-03
     41 -0.123218D-03  0.301499D-04  0.109007D-03  0.201014D-04  0.549602D-03
     42 -0.139650D-03  0.262294D-04 -0.212448D-03 -0.367826D-03  0.279012D-03
     43  0.541268D-03  0.134064D-03 -0.391436D-03  0.110127D-04 -0.680025D-05
     44 -0.620799D-03  0.459043D-03 -0.281511D-03 -0.467913D-03  0.180346D-03
     45  0.214785D-03 -0.504742D-03  0.669473D-04 -0.352671D-03  0.422544D-03
     46  0.150589D-03 -0.363042D-03  0.193896D-03  0.734482D-04  0.441164D-04
     47  0.770405D-04  0.187634D-04 -0.507907D-04  0.101040D-03 -0.890441D-04
     48 -0.130123D-03 -0.199831D-04 -0.351997D-04 -0.394001D-04 -0.110836D-03
               21            22            23            24            25
     21  0.294690D+00
     22 -0.269081D-03  0.318299D+00
     23 -0.147263D-02  0.408055D-01  0.566633D-01
     24 -0.499017D-02  0.604824D-01  0.109666D-01  0.591270D-01
     25  0.873120D-04  0.213188D-02 -0.110787D-02 -0.302359D-03  0.125767D+00
     26 -0.609339D-03 -0.572596D-03  0.266254D-02  0.129409D-04  0.887944D-01
     27  0.404908D-03 -0.911012D-03 -0.114459D-02  0.463086D-03 -0.783332D-01
     28 -0.200381D-03  0.305452D-03 -0.161940D-03  0.670237D-04 -0.176595D-01
     29  0.265866D-03  0.973776D-04  0.529606D-04  0.215921D-04 -0.209624D-01
     30  0.161816D-03  0.441678D-03  0.817339D-05 -0.711962D-03  0.111583D-02
     31  0.160432D-03 -0.374527D-04 -0.189512D-04 -0.125929D-03  0.551990D-02
     32  0.587734D-04  0.834011D-04 -0.359220D-04  0.130386D-03  0.135208D-03
     33  0.841744D-04 -0.145938D-04  0.906342D-04 -0.241330D-04  0.119835D-01
     34 -0.668281D-03  0.145364D-02 -0.663376D-03 -0.220894D-03 -0.250657D-01
[...]
    X7       -2.08989   0.00001   0.00000   0.00067   0.00062  -2.08926
    Y7       -2.06768   0.00000   0.00000   0.00002   0.00000  -2.06768
    Z7       -1.16330   0.00001   0.00000   0.00004   0.00000  -1.16329
    X8        0.04126   0.00001   0.00000  -0.00012  -0.00012   0.04114
    Y8       -0.97798   0.00001   0.00000  -0.00019  -0.00024  -0.97821
    Z8        1.17399   0.00001   0.00000   0.00088   0.00081   1.17480
    X9       -2.33658   0.00000   0.00000   0.00023   0.00025  -2.33632
    Y9        3.08711   0.00000   0.00000  -0.00032  -0.00033   3.08677
    Z9       -0.78868   0.00000   0.00000  -0.00018  -0.00021  -0.78890
   X10       -3.45581   0.00000   0.00000  -0.00043  -0.00046  -3.45626
   Y10        2.63234   0.00000   0.00000   0.00055   0.00055   2.63289
   Z10       -3.79374  -0.00001   0.00000   0.00004   0.00002  -3.79372
   X11       -2.39668   0.00000   0.00000  -0.00040  -0.00043  -2.39710
   Y11        3.94828   0.00000   0.00000   0.00054   0.00052   3.94880
   Z11       -4.49226   0.00000   0.00000   0.00005   0.00001  -4.49224
   X12       -6.24081   0.00000   0.00000   0.00003   0.00004  -6.24077
   Y12        0.89318  -0.00001   0.00000   0.00001   0.00005   0.89323
   Z12        0.36654   0.00000   0.00000   0.00007   0.00009   0.36664
   X13       -7.10203   0.00000   0.00000   0.00006   0.00008  -7.10195
   Y13        0.02800  -0.00001   0.00000   0.00019   0.00024   0.02824
   Z13        2.03311   0.00000   0.00000   0.00018   0.00022   2.03332
   X14       -6.48872   0.00001   0.00000  -0.00010  -0.00013  -6.48885
   Y14       -0.39597  -0.00001   0.00000  -0.00015  -0.00010  -0.39607
   Z14       -1.23707   0.00000   0.00000   0.00021   0.00023  -1.23684
   X15       -7.46085  -0.00001   0.00000   0.00022   0.00026  -7.46059
   Y15        3.22201  -0.00001   0.00000   0.00008   0.00014   3.22214
   Z15       -0.05635  -0.00001   0.00000  -0.00010  -0.00005  -0.05640
   X16       -6.68840   0.00000   0.00000   0.00006   0.00008  -6.68832
   Y16        3.88146  -0.00002   0.00000  -0.00042  -0.00037   3.88108
   Z16       -1.57801  -0.00001   0.00000  -0.00040  -0.00037  -1.57838
         Item               Value     Threshold  Converged?
 Maximum Force            0.000017     0.000450     YES
 RMS     Force            0.000007     0.000300     YES
 Maximum Displacement     0.000808     0.001800     YES
 RMS     Displacement     0.000270     0.001200     YES
 Predicted change in Energy=-1.407611D-09
 Optimization completed.
    -- Stationary point found.
 GradGradGradGradGradGradGradGradGradGradGradGradGradGradGradGradGradGrad


 Test job not archived.
 1\1\GINC-NODE30\Freq\UB3LYP\CBSB7\C4H9O3(2)\NYEE\21-Jul-2014\0\\# freq
  nosymm b3lyp/cbsb7 iop(7/33=1)\\Title Card Required\\0,2\C,-1.789819,
 0.645809,0.438659\C,-1.462091,1.573639,1.545672\H,-2.16775,2.358922,1.
 778183\H,-0.481389,1.569655,2.002662\C,-1.033754,-0.671634,0.38855\H,-
 1.448842,-1.390174,1.101663\H,-1.10592,-1.09417,-0.61559\H,0.021835,-0
 .517524,0.62125\O,-1.236463,1.633627,-0.417354\O,-1.828734,1.392973,-2
 .00756\H,-1.268266,2.089338,-2.377201\C,-3.302492,0.472653,0.193966\H,
 -3.758235,0.014815,1.075873\H,-3.433681,-0.209536,-0.654629\O,-3.94811
 ,1.705012,-0.029818\H,-3.539348,2.053978,-0.835046\\Version=AM64L-G03R
 evD.01\HF=-383.4470964\S2=0.803728\S2-1=0.\S2A=0.750314\RMSD=7.633e-09
 \RMSF=7.481e-06\ZeroPoint=0.1280099\Thermal=0.1366825\Dipole=0.678171,
 -0.1925083,0.3592272\DipoleDeriv=0.2340263,0.0270226,-0.1016791,-0.124
 7426,0.612865,-0.2379013,-0.0685499,-0.086642,0.1135101,0.0945495,-0.0
 618851,0.1804356,-0.031414,-0.0877543,0.1853623,0.0198599,0.0272629,-0
 .6076824,0.0616743,0.0538126,-0.017493,0.0353669,0.0362761,-0.0466843,
 -0.009566,-0.017311,0.0990574,-0.023063,0.0066744,-0.0649365,0.0252348
 ,0.0846533,-0.0395146,-0.0440478,-0.0374816,0.0893201,0.0133014,0.1201
 88,-0.0080584,0.068138,-0.0898301,-0.0198415,0.0045305,-0.0616917,0.09
 96418,0.0312292,-0.0574978,0.0691888,-0.0275256,-0.029597,0.0578615,0.
 0541337,0.0991093,-0.0139248,0.0637017,0.0025554,-0.0396791,0.0079098,
 0.0340219,-0.0035244,-0.0080966,-0.0835161,-0.0580739,-0.1297252,0.009
 3352,-0.0386086,-0.050581,0.0393185,-0.0165932,-0.0451401,-0.0033496,0
 .0550728,-0.3556546,-0.0654084,0.3005193,0.0031911,-0.4963816,0.238324
 9,0.195714,0.2420912,1.1967434,-0.3581598,0.0815811,-0.2730308,0.10821
 42,-0.292418,-0.0457879,-0.0165597,-0.0311322,-1.351474,0.2308038,-0.0
 761794,-0.0674689,-0.0868565,0.224514,-0.0614268,-0.0064402,-0.0030842
 ,0.3232668,0.451832,-0.1791102,0.0061306,-0.1695154,0.54766,-0.0173937
 ,0.0265171,-0.10655,0.3066797,0.007078,-0.0283237,0.0315574,-0.0081723
 ,0.0017366,0.048065,0.0729905,0.1004492,-0.0654262,0.0019633,0.0104283
 ,0.0139574,0.0076389,-0.0940228,-0.0562868,-0.0353525,-0.1239809,-0.05
 19872,-0.6832817,0.1808344,-0.1135544,0.2616526,-0.7518421,0.0535631,-
 0.1529304,0.1003298,-0.3307033,0.3597247,-0.0240274,0.1227199,-0.01853
 9,0.2608006,-0.0382223,0.0129374,-0.0145032,0.1959797\Polar=55.2967479
 ,-0.5964978,56.3305167,3.5838102,-1.2299037,85.6746566\PG=C01 [X(C4H9O
 3)]\NImag=1\\0.47414257,-0.00314236,0.54555058,0.04410777,0.07327568,0
 .39110621,-0.08289278,-0.01012804,-0.03618472,0.57360382,-0.00725340,-
 0.12960409,-0.09199434,-0.14821609,0.39359328,-0.05007719,-0.12456447,
 -0.12128892,0.14286485,0.19825359,0.26832891,0.00979826,-0.00632300,-0
 .00152355,-0.17921098,0.14869706,0.03135345,0.17871513,0.01337106,-0.0
 1245469,0.00003049,0.15008258,-0.20065665,-0.06342325,-0.15838572,0.20
 618284,0.01186705,-0.01215686,-0.00434731,0.03027773,-0.05290187,-0.04
 804923,-0.03504788,0.06414396,0.04726343,-0.00365870,0.00307711,0.0024
 7314,-0.29638495,0.01154968,-0.12333350,-0.00830998,-0.00396647,-0.008
 00664,0.30418093,-0.01888960,0.00530905,-0.00456681,0.01102167,-0.0436
 6369,-0.01666581,0.01636734,0.00428472,0.00794005,-0.01034306,0.035059
 14,-0.01646310,-0.00109506,-0.00599768,-0.11632023,-0.01089651,-0.0854
 0204,0.00555215,-0.00084648,0.00724721,0.12911313,0.01541496,0.0850913
 5,-0.11764963,0.05757766,0.00116557,0.00250672,-0.00240305,-0.00027096
 ,-0.00053100,-0.00114768,-0.00116500,0.00081722,-0.00139386,-0.0005734
 1,0.55638248,0.04849720,-0.15197304,-0.01055602,0.00896537,-0.01683038
 ,-0.00452300,-0.00075049,-0.00044382,-0.00029700,0.00036355,0.00124196
 ,0.00100602,0.04481378,0.49173365,0.00211485,-0.01503577,-0.07692337,0
 .01646579,-0.02515471,-0.00162348,-0.00167158,-0.00396000,-0.00261236,
 0.00035945,0.00094820,0.00068918,0.00475579,-0.00294709,0.56905933,0.0
 0710842,0.00750198,-0.01190181,0.00038157,-0.00056952,-0.00002995,0.00
 000584,-0.00003939,-0.00004861,-0.00003336,0.00000180,0.00014181,-0.08
 647461,-0.06394098,0.06586169,0.08939804,-0.01440767,-0.01345441,0.018
 56356,-0.00007697,0.00068698,-0.00048213,-0.00003778,-0.00006897,0.000
 02534,-0.00005264,-0.00024164,-0.00002066,-0.06283781,-0.15744710,0.11
 018597,0.07008822,0.17068204,-0.00103059,-0.00231474,-0.00042809,-0.00
 041795,0.00030993,0.00049162,0.00007185,0.00009300,0.00009701,-0.00003
 479,0.00004320,-0.00003106,0.06486805,0.11075932,-0.15704206,-0.072518
 33,-0.12306064,0.16810311,0.00039799,0.00548648,0.01677124,-0.00162430
 ,0.00181672,-0.00042637,0.00044179,0.00055174,0.00040265,0.00012253,0.
 00025200,0.00020086,-0.04910169,-0.00652612,-0.01834830,0.00007137,0.0
 0572612,0.01151370,0.05030441,-0.00213633,-0.01308121,-0.02830423,0.00
 409696,-0.00427528,0.00070191,-0.00060168,-0.00124201,-0.00072422,-0.0
 0000262,0.00022941,0.00005079,-0.00705991,-0.08412920,-0.09185436,0.00
 249329,0.00956028,0.02030329,0.00535745,0.09114924,0.00010423,-0.00042
 196,-0.00152031,0.00038763,0.00030428,0.00082470,-0.00023285,-0.000029
 34,0.00018373,0.00007781,0.00021645,-0.00002764,-0.01712599,-0.0945941
 2,-0.27305606,-0.00192607,-0.00788384,-0.01743734,0.01925654,0.1037973
 2,0.29468974,-0.01839527,-0.00375224,-0.00300889,0.00046113,-0.0010647
 7,-0.00024073,0.00024929,-0.00004386,0.00011735,0.00036856,0.00078384,
 0.00069010,-0.29286230,-0.03829986,-0.05538890,-0.01005199,-0.00133418
 ,-0.00240285,-0.00091099,-0.00028267,-0.00026908,0.31829940,0.03162287
 ,0.00315880,0.00662660,0.00070636,0.00127337,0.00092265,-0.00009840,0.
 00019162,0.00002848,-0.00038466,-0.00024491,-0.00047765,-0.04174661,-0
 .05266055,-0.00919656,-0.01996880,-0.00318407,-0.00614856,-0.01176806,
 -0.00247649,-0.00147263,0.04080547,0.05666325,0.00235352,0.00027116,-0
 .00140513,0.00121691,0.00007669,0.00025131,-0.00008691,0.00011063,0.00
 000266,-0.00008752,-0.00017980,0.00002450,-0.05529176,-0.00922890,-0.0
 5865132,0.02118171,0.00211280,0.00497239,-0.02931619,-0.00403979,-0.00
 499017,0.06048237,0.01096665,0.05912702,-0.08440828,-0.04248824,0.0053
 7985,-0.00950189,0.00039536,0.03667742,-0.00085417,-0.00295678,0.00161
 149,0.00214910,0.00196035,-0.00411830,0.00829006,0.00378631,-0.0075185
 4,-0.00019622,0.00295468,-0.00025454,0.00042254,-0.00108852,0.00008731
 ,0.00213188,-0.00110787,-0.00030236,0.12576729,-0.05165164,-0.14470519
 ,0.03266465,0.00162881,-0.00248857,0.02160203,0.00159731,0.00377162,-0
 .00713504,0.00025616,0.00011878,-0.00258773,-0.01697895,-0.03414972,0.
 03209506,0.00484718,-0.00768179,-0.00033811,-0.00127486,0.00242037,-0.
 00060934,-0.00057260,0.00266254,0.00001294,0.08879437,0.21552699,0.048
 70737,0.10973150,-0.06656530,-0.01651416,-0.03102461,0.07377735,0.0020
 0391,0.00064197,-0.00033930,-0.00059176,-0.00065774,0.00122430,0.00418
 643,0.01140703,-0.00568884,-0.00080245,0.00210194,0.00021466,-0.000558
 63,-0.00217363,0.00040491,-0.00091101,-0.00114459,0.00046309,-0.078333
 17,-0.10272691,-0.08699545,0.00217699,-0.00213249,0.00869148,0.0058872
 9,0.00392708,-0.02805481,-0.00033721,0.00067038,-0.00069769,0.00059460
 ,0.00046382,0.00030632,-0.00026220,0.00056058,-0.00014998,0.00005051,-
 0.00024085,0.00009510,-0.00029321,0.00037881,-0.00020038,0.00030545,-0
 .00016194,0.00006702,-0.01765954,-0.02096984,0.04565578,0.19715048,0.0
 0755228,0.00558380,0.00902585,0.00013196,0.00232255,-0.00395138,-0.000
 05055,0.00026486,0.00071532,0.00016687,0.00012943,0.00022074,0.0000880
 0,-0.00028211,0.00063491,-0.00001291,0.00005958,0.00022681,0.00003957,
 0.00089804,0.00026587,0.00009738,0.00005296,0.00002159,-0.02096245,-0.
 03025253,0.01185547,0.23654588,0.29723237,-0.00772112,-0.01753459,-0.0
 2622256,0.01056538,0.01663438,-0.07618834,-0.00114418,0.00118919,0.000
 12607,0.00122380,0.00061215,-0.00106945,-0.00070653,0.00019430,0.00333
 022,0.00003917,-0.00111165,0.00065771,-0.00011964,0.00186254,0.0001618
 2,0.00044168,0.00000817,-0.00071196,0.00111583,-0.00276583,0.09660637,
 -0.12106312,-0.14123968,0.09000643,-0.00149158,-0.00119961,-0.00277321
 ,0.00004713,0.00079165,-0.00152635,-0.00016149,-0.00010771,0.00010980,
 0.00000854,0.00001004,-0.00001558,0.00026673,0.00011083,-0.00016296,-0
 .00012159,0.00012401,0.00006614,0.00007788,-0.00003230,0.00016043,-0.0
 0003745,-0.00001895,-0.00012593,0.00551990,0.00697887,-0.00751936,-0.1
 8510352,-0.22347671,0.11241203,0.18186471,-0.00019005,-0.00094632,-0.0
 0258601,0.00063445,0.00078818,0.00025225,-0.00006579,0.00001229,0.0000
 0751,-0.00004210,-0.00009711,0.00021147,0.00006037,-0.00001100,0.00003
 551,0.00005048,0.00002983,-0.00001608,-0.00022677,0.00023364,0.0000587
 7,0.00008340,-0.00003592,0.00013039,0.00013521,0.00275885,-0.00648448,
 -0.21887706,-0.27400809,0.14331262,0.21820468,0.27059626,-0.00186472,-
 0.00120652,-0.00620299,0.00012592,0.00059768,-0.00146487,-0.00001778,-
 0.00010738,-0.00005477,-0.00006032,-0.00007116,-0.00011918,-0.00005808
 ,-0.00043588,0.00019279,0.00004238,-0.00015548,0.00007653,0.00000280,0
 .00004534,0.00008417,-0.00001459,0.00009063,-0.00002413,0.01198352,0.0
 1714786,-0.01287349,0.09201206,0.11961095,-0.08494771,-0.10151315,-0.1
 3490057,0.10500948,-0.13946569,-0.01709248,-0.01180874,-0.00920798,-0.
 00885799,-0.00761281,0.00069882,0.00217490,0.00055315,0.00038518,0.000
 52479,0.00242924,-0.01464522,0.00790447,-0.00447862,-0.00042093,-0.000
 55795,0.00044788,0.00068450,-0.00163750,-0.00066828,0.00145364,-0.0006
 6338,-0.00022089,-0.02506569,-0.01484781,0.00893275,-0.00311651,0.0014
 6215,0.00071616,-0.00075488,-0.00081031,-0.00074783,0.43715273,-0.0120
 3838,-0.07705880,-0.00612904,-0.01864935,-0.00063607,-0.00656348,-0.00
 100219,-0.00080331,-0.00156572,0.00008938,-0.00293418,-0.00205433,0.02
 886511,0.00277408,0.00343321,-0.00018563,0.00037508,0.00040825,0.00072
 165,-0.00003569,-0.00025388,0.00324645,-0.00493136,-0.00052247,-0.0249
 0268,-0.01268200,0.00889858,0.00251417,-0.00219656,-0.00105086,-0.0004
 3777,-0.00010067,-0.00087817,0.03157226,0.53956655,-0.02458583,-0.0129
 2211,-0.07820306,-0.03079488,-0.00468311,-0.01067985,0.00065577,0.0006
 2882,0.00101466,-0.00086725,-0.00345444,-0.00224038,-0.00013657,-0.000
 69354,0.00217164,0.00006595,0.00050787,0.00008860,0.00148081,-0.000327
 44,-0.00031946,0.00043822,-0.00052835,-0.00004093,0.03522625,0.0179148
 9,-0.00011164,-0.00066483,0.00010580,0.00054082,-0.00039148,-0.0000464
 6,0.00016598,-0.04567092,-0.00637133,0.62044969,-0.01013745,-0.0118183
 1,0.02536046,0.00215182,0.00036874,0.00004075,-0.00018942,-0.00043091,
 -0.00017868,0.00004768,-0.00000383,0.00012458,0.00029628,-0.00008422,-
 0.00019283,-0.00042314,0.00073126,-0.00021275,-0.00002200,-0.00007127,
 -0.00010934,0.00011174,0.00016049,-0.00039775,-0.00751080,-0.00237614,
 0.00216300,0.00028577,-0.00025122,-0.00211179,-0.00005754,0.00003091,-
 0.00008813,-0.09965193,-0.04697277,0.09441532,0.10485262,-0.00507680,-
 0.00184059,0.00358309,0.00038027,0.00043341,0.00007947,0.00000089,-0.0
 0024646,0.00014952,0.00001606,-0.00003401,0.00006209,-0.00027501,-0.00
 052830,-0.00025634,0.00040127,0.00017623,-0.00004236,0.00019085,0.0001
 0798,0.00003843,-0.00018348,0.00011466,-0.00002325,-0.00113337,0.00037
 206,0.00051352,-0.00032124,0.00054490,-0.00047182,0.00023627,0.0000796
 7,-0.00002638,-0.03992771,-0.08472477,0.07393403,0.04353253,0.10429942
 ,-0.00345790,-0.00310099,0.00409471,0.00011975,-0.00006059,0.00102013,
 0.00012264,0.00006461,-0.00010180,0.00001194,0.00008224,0.00012676,0.0
 0065248,0.00044951,-0.00041674,-0.00005050,-0.00028459,0.00041763,-0.0
 0009957,0.00007177,0.00011192,0.00014931,-0.00023090,0.00016648,-0.002
 54363,-0.00157952,0.00022205,0.00056573,0.00034455,0.00034454,0.000098
 36,0.00020918,0.00005225,0.09123741,0.08123417,-0.22174099,-0.09624733
 ,-0.09432465,0.23621537,-0.00889518,-0.01955982,-0.02748592,-0.0060354
 3,0.00058290,-0.00098350,0.00006317,0.00001264,0.00002038,-0.00026603,
 -0.00135110,-0.00092034,0.00127364,-0.00111585,-0.00046341,0.00001424,
 0.00015053,0.00000663,-0.00065528,0.00054897,0.00036842,0.00034724,-0.
 00001599,0.00034495,0.00175866,0.00157707,-0.00044874,0.00057719,-0.00
 024572,0.00160810,0.00022267,0.00040209,-0.00032506,-0.05371126,-0.022
 03749,-0.02613774,0.00320486,0.00800491,0.01166756,0.06107568,-0.00286
 305,-0.00267424,-0.00672545,-0.00030337,0.00066455,0.00063097,0.000398
 66,0.00003449,0.00028208,-0.00007562,-0.00012188,0.00001536,0.00076522
 ,0.00031399,0.00043917,-0.00012322,0.00003015,0.00010901,0.00002010,0.
 00054960,0.00032543,-0.00007929,0.00005991,0.00033194,0.00001725,0.000
 62147,-0.00122524,0.00032067,0.00063272,0.00067850,0.00044130,0.000288
 29,0.00001309,-0.02292790,-0.13104476,-0.11109195,0.00176906,0.0097031
 7,0.00924672,0.01441309,0.15601698,0.00001215,-0.00357483,-0.00471059,
 -0.00135990,0.00030424,0.00043068,0.00014134,0.00026469,0.00003545,-0.
 00016684,-0.00032101,0.00003741,0.00047391,-0.00012116,0.00012742,-0.0
 0013965,0.00002623,-0.00021245,-0.00036783,0.00027901,0.00056011,0.000
 04528,0.00027767,0.00022818,-0.00057083,-0.00023443,-0.00016441,0.0005
 0322,0.00091602,-0.00087689,0.00034693,0.00029886,0.00040961,-0.027314
 09,-0.11566390,-0.21091412,-0.00425542,-0.01430702,-0.01919876,0.03004
 018,0.12744891,0.22041610,-0.02734906,0.03930297,-0.00578907,0.0006919
 3,0.00069094,0.00043075,-0.00074366,0.00003983,0.00033056,0.00000605,0
 .00051611,-0.00000928,-0.00774650,-0.00384788,-0.00141493,0.00054127,0
 .00013406,-0.00039144,0.00001101,-0.00000680,0.00019459,-0.00132769,0.
 00255257,0.00014457,0.00183727,0.00478213,-0.00118111,-0.00213720,-0.0
 0046079,0.00259029,-0.00020268,0.00089077,-0.00028740,-0.10210323,0.04
 860134,0.01471549,0.00818771,-0.00901784,-0.00106556,0.00126676,0.0071
 9957,0.00176818,0.24174154,0.01582741,-0.01273540,0.00677381,0.0001345
 4,-0.00174529,-0.00170582,-0.00000826,0.00087882,0.00160158,-0.0006205
 2,0.00103368,0.00109378,0.00227709,0.00273541,0.00045826,-0.00062080,0
 .00045904,-0.00028151,-0.00046791,0.00018035,0.00031432,0.00073061,-0.
 00080676,0.00005768,-0.00454199,0.00356893,-0.00095475,-0.00166415,0.0
 0208544,-0.00111382,0.00038917,-0.00053844,-0.00012742,0.07654452,-0.1
 9959934,0.00747359,0.01162491,-0.02287347,0.00763545,0.01994799,-0.035
 97986,0.00426259,-0.05128434,0.35205490,-0.00528522,0.01164731,-0.0006
 2230,-0.00026536,-0.00037972,0.00178638,0.00029986,0.00113150,0.000275
 38,-0.00028165,0.00076845,0.00033158,-0.00164769,-0.00099548,0.0002071
 4,0.00021478,-0.00050474,0.00006695,-0.00035267,0.00042254,0.00036530,
 -0.00036812,0.00061119,0.00057482,-0.00128283,-0.00210761,-0.00413278,
 0.00707850,-0.00038707,0.00004661,0.00092100,-0.00059737,-0.00029949,-
 0.00688024,0.03986031,-0.09204421,-0.01749506,0.03076059,-0.00318536,0
 .01202562,-0.01840134,0.01245370,-0.17328043,-0.17696863,0.42899200,0.
 00071939,0.00469039,-0.00347361,-0.00087311,-0.00045529,0.00118893,0.0
 0036563,0.00017538,-0.00014565,-0.00002738,0.00007968,-0.00013794,-0.0
 0055997,-0.00043670,0.00023248,0.00015059,-0.00036304,0.00019390,0.000
 07345,0.00004412,-0.00010497,-0.00014263,0.00008691,0.00003827,-0.0026
 8012,-0.00179007,-0.00478885,0.00188113,-0.00062374,0.00215394,-0.0000
 7682,-0.00028027,0.00081039,0.00776845,0.01061591,-0.01774831,-0.00114
 621,0.00317240,-0.00116068,-0.00024093,0.00102752,0.00084337,-0.112673
 52,-0.06826827,0.18659950,0.10746205,0.00077847,0.00092573,0.00031818,
 -0.00040916,0.00013772,-0.00056352,0.00026260,0.00029468,-0.00011316,-
 0.00003110,-0.00006875,-0.00009681,-0.00060435,-0.00034387,0.00017455,
 0.00007704,0.00001876,-0.00005079,0.00010104,-0.00008904,-0.00005576,-
 0.00013420,0.00016295,-0.00009826,0.00113836,0.00013820,0.00124194,-0.
 00101382,-0.00306737,0.00079640,-0.00201378,0.00095054,0.00040342,-0.0
 1286006,-0.02596820,0.03955373,0.00379077,-0.00558389,0.00024305,-0.00
 131422,0.00090540,0.00014411,-0.04009266,-0.08871800,0.11514007,0.0523
 2507,0.12030515,0.00121873,-0.00099776,-0.00076333,-0.00016677,0.00061
 466,-0.00221434,-0.00047625,0.00006759,-0.00074082,0.00017101,-0.00010
 894,0.00011515,0.00087375,0.00057601,0.00023653,-0.00013012,-0.0000199
 8,-0.00003520,-0.00003940,-0.00011084,-0.00003542,0.00023989,-0.000332
 80,0.00001320,0.00284254,-0.00135292,0.00395849,-0.00414440,0.00163426
 ,-0.00180368,-0.00008667,0.00011442,-0.00000418,0.00108584,0.00721868,
 -0.00813675,-0.00081503,0.00033110,0.00187180,0.00068288,-0.00207721,0
 .00137855,0.16324478,0.15148089,-0.34481570,-0.16450077,-0.15703715,0.
 35097571\\0.00000234,0.00000067,-0.00000509,0.00000566,-0.00001001,0.0
 0000446,0.00001449,-0.00000435,0.00000509,0.00001019,-0.00001497,-0.00
 000170,-0.00000767,-0.00000841,-0.00000566,-0.00000872,-0.00000539,-0.
 00000746,-0.00001317,-0.00000283,-0.00000735,-0.00000587,-0.00001297,-
 0.00001061,0.00000429,0.00000158,-0.00000189,-0.00000498,0.00000129,0.
 00000603,-0.00000012,0.00000312,0.00000475,0.00000023,0.00000589,0.000
 00244,-0.00000195,0.00000624,0.00000112,-0.00000656,0.00001020,0.00000
 036,0.00001007,0.00001248,0.00000968,0.00000177,0.00001746,0.00000582\
 \\@


 WE LEARN WISDOM FROM FAILURE MUCH MORE THAN FROM SUCCESS.
 WE DISCOVER WHAT WILL DO BY FINDING OUT WHAT WILL NOT DO...
 AND HE WHO NEVER MADE A MISTAKE NEVER MADE A DISCOVERY
 Job cpu time:  0 days  1 hours 45 minutes 25.3 seconds.
 File lengths (MBytes):  RWF=    125 Int=      0 D2E=      0 Chk=      8 Scr=      1
 Normal termination of Gaussian 03 at Mon Jul 21 03:19:11 2014.
