 Entering Gaussian System, Link 0=g03
 Input=p01freq.gjf
 Output=p01freq.log
 Initial command:
 /opt/g03/l1.exe /scratch/nyee/Gau-32759.inp -scrdir=/scratch/nyee/
 Entering Link 1 = /opt/g03/l1.exe PID=     32761.
  
 Copyright (c) 1988,1990,1992,1993,1995,1998,2003,2004, Gaussian, Inc.
                  All Rights Reserved.
  
 This is the Gaussian(R) 03 program.  It is based on the
 the Gaussian(R) 98 system (copyright 1998, Gaussian, Inc.),
 the Gaussian(R) 94 system (copyright 1995, Gaussian, Inc.),
 the Gaussian 92(TM) system (copyright 1992, Gaussian, Inc.),
 the Gaussian 90(TM) system (copyright 1990, Gaussian, Inc.),
 the Gaussian 88(TM) system (copyright 1988, Gaussian, Inc.),
 the Gaussian 86(TM) system (copyright 1986, Carnegie Mellon
 University), and the Gaussian 82(TM) system (copyright 1983,
 Carnegie Mellon University). Gaussian is a federally registered
 trademark of Gaussian, Inc.
  
 This software contains proprietary and confidential information,
 including trade secrets, belonging to Gaussian, Inc.
  
 This software is provided under written license and may be
 used, copied, transmitted, or stored only in accord with that
 written license.
  
 The following legend is applicable only to US Government
 contracts under FAR:
  
                    RESTRICTED RIGHTS LEGEND
  
 Use, reproduction and disclosure by the US Government is
 subject to restrictions as set forth in subparagraphs (a)
 and (c) of the Commercial Computer Software - Restricted
 Rights clause in FAR 52.227-19.
  
 Gaussian, Inc.
 340 Quinnipiac St., Bldg. 40, Wallingford CT 06492
  
  
 ---------------------------------------------------------------
 Warning -- This program may not be used in any manner that
 competes with the business of Gaussian, Inc. or will provide
 assistance to any competitor of Gaussian, Inc.  The licensee
 of this program is prohibited from giving any competitor of
 Gaussian, Inc. access to this program.  By using this program,
 the user acknowledges that Gaussian, Inc. is engaged in the
 business of creating and licensing software in the field of
 computational chemistry and represents and warrants to the
 licensee that it is not a competitor of Gaussian, Inc. and that
 it will not use this program in any manner prohibited above.
 ---------------------------------------------------------------
  

 Cite this work as:
 Gaussian 03, Revision D.01,
 M. J. Frisch, G. W. Trucks, H. B. Schlegel, G. E. Scuseria, 
 M. A. Robb, J. R. Cheeseman, J. A. Montgomery, Jr., T. Vreven, 
 K. N. Kudin, J. C. Burant, J. M. Millam, S. S. Iyengar, J. Tomasi, 
 V. Barone, B. Mennucci, M. Cossi, G. Scalmani, N. Rega, 
 G. A. Petersson, H. Nakatsuji, M. Hada, M. Ehara, K. Toyota, 
 R. Fukuda, J. Hasegawa, M. Ishida, T. Nakajima, Y. Honda, O. Kitao, 
 H. Nakai, M. Klene, X. Li, J. E. Knox, H. P. Hratchian, J. B. Cross, 
 V. Bakken, C. Adamo, J. Jaramillo, R. Gomperts, R. E. Stratmann, 
 O. Yazyev, A. J. Austin, R. Cammi, C. Pomelli, J. W. Ochterski, 
 P. Y. Ayala, K. Morokuma, G. A. Voth, P. Salvador, J. J. Dannenberg, 
 V. G. Zakrzewski, S. Dapprich, A. D. Daniels, M. C. Strain, 
 O. Farkas, D. K. Malick, A. D. Rabuck, K. Raghavachari, 
 J. B. Foresman, J. V. Ortiz, Q. Cui, A. G. Baboul, S. Clifford, 
 J. Cioslowski, B. B. Stefanov, G. Liu, A. Liashenko, P. Piskorz, 
 I. Komaromi, R. L. Martin, D. J. Fox, T. Keith, M. A. Al-Laham, 
 C. Y. Peng, A. Nanayakkara, M. Challacombe, P. M. W. Gill, 
 B. Johnson, W. Chen, M. W. Wong, C. Gonzalez, and J. A. Pople, 
 Gaussian, Inc., Wallingford CT, 2004.
 
 ******************************************
 Gaussian 03:  AM64L-G03RevD.01 13-Oct-2005
                15-Jul-2014 
 ******************************************
 %chk=p01freq.chk
 %mem=1000mb
 %nproc=8
 Will use up to    8 processors via shared memory.
 -------------------------------------
 # freq nosymm b3lyp/cbsb7 iop(7/33=1)
 -------------------------------------
 1/10=4,30=1,38=1/1,3;
 2/15=1,17=6,18=5,40=1/2;
 3/5=4,6=6,7=700,11=2,16=1,25=1,30=1,74=-5/1,2,3;
 4//1;
 5/5=2,38=5/2;
 8/6=4,10=90,11=11/1;
 11/6=1,8=1,9=11,15=111,16=1,31=1/1,2,10;
 10/6=1,31=1/2;
 6/7=2,8=2,9=2,10=2,18=1,28=1/1;
 7/8=1,10=1,25=1,30=1,33=1/1,2,3,16;
 1/10=4,30=1/3;
 99//99;
 -------------------
 Title Card Required
 -------------------
 Symbolic Z-matrix:
 Charge =  0 Multiplicity = 1
 C                    -0.07311  -2.36478   0.28505 
 C                    -1.52393  -1.96846   0.1544 
 H                    -1.71369  -0.96817   0.54652 
 H                    -1.83109  -1.98772  -0.89507 
 H                    -2.15727  -2.66791   0.70747 
 C                     0.25676  -3.7937   -0.07861 
 H                    -0.00019  -3.98966  -1.12428 
 H                     1.32276  -3.99068   0.04916 
 H                    -0.30529  -4.4939    0.54631 
 C                     0.84476  -1.59502   1.14608 
 H                     1.70896  -2.08404   1.59151 
 O                     0.88747  -1.3887   -0.24931 
 O                     0.46852  -0.5216    1.93368 
 H                    -0.03044   0.08517   1.3754 
 

 GradGradGradGradGradGradGradGradGradGradGradGradGradGradGradGradGradGrad
 Berny optimization.
 Initialization pass.
 Trust Radius=3.00D-01 FncErr=1.00D-07 GrdErr=1.00D-07
 Number of steps in this run=   2 maximum allowed number of steps=   2.
 GradGradGradGradGradGradGradGradGradGradGradGradGradGradGradGradGradGrad

                          Input orientation:                          
 ---------------------------------------------------------------------
 Center     Atomic     Atomic              Coordinates (Angstroms)
 Number     Number      Type              X           Y           Z
 ---------------------------------------------------------------------
    1          6             0       -0.073112   -2.364783    0.285048
    2          6             0       -1.523926   -1.968456    0.154402
    3          1             0       -1.713686   -0.968173    0.546517
    4          1             0       -1.831089   -1.987724   -0.895069
    5          1             0       -2.157274   -2.667905    0.707467
    6          6             0        0.256763   -3.793701   -0.078605
    7          1             0       -0.000186   -3.989664   -1.124277
    8          1             0        1.322757   -3.990684    0.049161
    9          1             0       -0.305288   -4.493897    0.546305
   10          6             0        0.844762   -1.595023    1.146080
   11          1             0        1.708957   -2.084044    1.591510
   12          8             0        0.887469   -1.388696   -0.249306
   13          8             0        0.468515   -0.521604    1.933684
   14          1             0       -0.030441    0.085168    1.375395
 ---------------------------------------------------------------------
                    Distance matrix (angstroms):
                    1          2          3          4          5
     1  C    0.000000
     2  C    1.509637   0.000000
     3  H    2.170338   1.091022   0.000000
     4  H    2.150659   1.093668   1.769587   0.000000
     5  H    2.148034   1.093727   1.764019   1.771204   0.000000
     6  C    1.510916   2.560599   3.501008   2.878766   2.777211
     7  H    2.152151   2.835857   3.854483   2.722592   3.123357
     8  H    2.155840   3.493435   4.313110   3.853591   3.780705
     9  H    2.157611   2.831346   3.796619   3.269026   2.605777
    10  C    1.475262   2.594910   2.701495   3.388315   3.218024
    11  H    2.227426   3.539798   3.748555   4.327156   4.008761
    12  O    1.470033   2.512753   2.752486   2.857692   3.438350
    13  O    2.531535   3.037935   2.624054   3.929317   3.606242
    14  H    2.681965   2.817569   2.151716   3.562895   3.542451
                    6          7          8          9         10
     6  C    0.000000
     7  H    1.094465   0.000000
     8  H    1.091545   1.768371   0.000000
     9  H    1.093932   1.771492   1.775079   0.000000
    10  C    2.584527   3.406283   2.677854   3.175817   0.000000
    11  H    2.796619   3.732031   2.482593   3.310140   1.088293
    12  O    2.492183   2.884188   2.654976   3.420225   1.411204
    13  O    3.847176   4.647391   4.039266   4.278166   1.383514
    14  H    4.152376   4.780537   4.494731   4.661627   1.908300
                   11         12         13         14
    11  H    0.000000
    12  O    2.132359   0.000000
    13  O    2.024104   2.385962   0.000000
    14  H    2.788851   2.377917   0.963751   0.000000
 Symmetry turned off by external request.
 Stoichiometry    C4H8O2
 Framework group  C1[X(C4H8O2)]
 Deg. of freedom    36
 Full point group                 C1
 Rotational constants (GHZ):      5.6083824      3.0264599      2.5060301
 Standard basis: CBSB7 (5D, 7F)
 Integral buffers will be    131072 words long.
 Raffenetti 2 integral format.
 Two-electron integral symmetry is turned off.
   156 basis functions,   256 primitive gaussians,   162 cartesian basis functions
    24 alpha electrons       24 beta electrons
       nuclear repulsion energy       254.1209852619 Hartrees.
 NAtoms=   14 NActive=   14 NUniq=   14 SFac= 7.50D-01 NAtFMM=   80 NAOKFM=F Big=F
 One-electron integrals computed using PRISM.
 NBasis=   156 RedAO= T  NBF=   156
 NBsUse=   156 1.00D-06 NBFU=   156
 Harris functional with IExCor=  402 diagonalized for initial guess.
 ExpMin= 1.03D-01 ExpMax= 8.59D+03 ExpMxC= 1.30D+03 IAcc=1 IRadAn=         1 AccDes= 1.00D-06
 HarFok:  IExCor= 402 AccDes= 1.00D-06 IRadAn=         1 IDoV=1
 ScaDFX=  1.000000  1.000000  1.000000  1.000000
 Requested convergence on RMS density matrix=1.00D-08 within 128 cycles.
 Requested convergence on MAX density matrix=1.00D-06.
 Requested convergence on             energy=1.00D-06.
 No special actions if energy rises.
 Keep R1 integrals in memory in canonical form, NReq=    90380467.
 Integral accuracy reduced to 1.0D-05 until final iterations.
 Initial convergence to 1.0D-05 achieved.  Increase integral accuracy.
 SCF Done:  E(RB+HF-LYP) =  -307.741319059     A.U. after   13 cycles
             Convg  =    0.9090D-08             -V/T =  2.0036
             S**2   =   0.0000
 Range of M.O.s used for correlation:     1   156
 NBasis=   156 NAE=    24 NBE=    24 NFC=     0 NFV=     0
 NROrb=    156 NOA=    24 NOB=    24 NVA=   132 NVB=   132
 Symmetrizing basis deriv contribution to polar:
 IMax=3 JMax=2 DiffMx= 0.00D+00
 G2DrvN: will do   15 centers at a time, making    1 passes doing MaxLOS=2.
 FoFDir/FoFCou used for L=0 through L=2.
 DoAtom=TTTTTTTTTTTTTT
          Differentiating once with respect to electric field.
                with respect to dipole field.
          Differentiating once with respect to nuclear coordinates.
          Store integrals in memory, NReq=    87990500.
          There are  45 degrees of freedom in the 1st order CPHF.
    42 vectors were produced by pass  0.
 AX will form  42 AO Fock derivatives at one time.
    42 vectors were produced by pass  1.
    42 vectors were produced by pass  2.
    42 vectors were produced by pass  3.
    42 vectors were produced by pass  4.
    26 vectors were produced by pass  5.
     3 vectors were produced by pass  6.
 Inv2:  IOpt= 1 Iter= 1 AM= 2.23D-15 Conv= 1.00D-12.
 Inverted reduced A of dimension  239 with in-core refinement.
 Isotropic polarizability for W=    0.000000       50.99 Bohr**3.
 End of Minotr Frequency-dependent properties file   721 does not exist.

 **********************************************************************

            Population analysis using the SCF density.

 **********************************************************************

 Alpha  occ. eigenvalues --  -19.13402 -19.12901 -10.27255 -10.23454 -10.17609
 Alpha  occ. eigenvalues --  -10.17280  -1.09855  -1.02313  -0.78080  -0.71097
 Alpha  occ. eigenvalues --   -0.66137  -0.58601  -0.51992  -0.50243  -0.46252
 Alpha  occ. eigenvalues --   -0.43852  -0.41640  -0.40378  -0.40177  -0.37474
 Alpha  occ. eigenvalues --   -0.37061  -0.34546  -0.28938  -0.26235
 Alpha virt. eigenvalues --    0.03381   0.05020   0.07413   0.07767   0.09592
 Alpha virt. eigenvalues --    0.11604   0.13325   0.13872   0.14572   0.15418
 Alpha virt. eigenvalues --    0.17625   0.20732   0.25283   0.26227   0.29949
 Alpha virt. eigenvalues --    0.31971   0.34722   0.37416   0.39242   0.39577
 Alpha virt. eigenvalues --    0.42552   0.46128   0.48234   0.49364   0.52710
 Alpha virt. eigenvalues --    0.53652   0.55733   0.56919   0.58494   0.59308
 Alpha virt. eigenvalues --    0.60055   0.61447   0.62373   0.65465   0.68490
 Alpha virt. eigenvalues --    0.74585   0.79369   0.80314   0.87440   0.88237
 Alpha virt. eigenvalues --    0.93412   0.94260   0.97178   1.04786   1.07916
 Alpha virt. eigenvalues --    1.18632   1.23016   1.25805   1.31466   1.35730
 Alpha virt. eigenvalues --    1.37119   1.38031   1.42380   1.44886   1.45226
 Alpha virt. eigenvalues --    1.45651   1.49463   1.49994   1.51585   1.52156
 Alpha virt. eigenvalues --    1.54919   1.56418   1.61010   1.64060   1.66220
 Alpha virt. eigenvalues --    1.66828   1.68525   1.74208   1.78490   1.84247
 Alpha virt. eigenvalues --    1.86548   1.88728   1.89681   1.91980   2.02318
 Alpha virt. eigenvalues --    2.03354   2.04783   2.08775   2.13834   2.22714
 Alpha virt. eigenvalues --    2.24499   2.31081   2.32964   2.34482   2.41683
 Alpha virt. eigenvalues --    2.44977   2.45685   2.47919   2.48179   2.49960
 Alpha virt. eigenvalues --    2.51814   2.53161   2.57566   2.61888   2.64464
 Alpha virt. eigenvalues --    2.68755   2.74172   2.80505   2.82870   2.91487
 Alpha virt. eigenvalues --    2.93499   3.02853   3.06829   3.11403   3.14718
 Alpha virt. eigenvalues --    3.16532   3.19306   3.24143   3.41106   3.42275
 Alpha virt. eigenvalues --    3.64308   3.74188   3.75829   3.80193   3.81277
 Alpha virt. eigenvalues --    3.84504   3.86990   3.92662   4.24174   4.44256
 Alpha virt. eigenvalues --    4.86105   4.93101   5.17497   5.39236   5.42936
 Alpha virt. eigenvalues --    5.78925  23.66187  23.80294  23.91871  23.93656
 Alpha virt. eigenvalues --   49.87318  49.90044
          Condensed to atoms (all electrons):
              1          2          3          4          5          6
     1  C    5.416389   0.358130  -0.033124  -0.034933  -0.037546   0.318990
     2  C    0.358130   4.780307   0.386457   0.407257   0.393931  -0.046217
     3  H   -0.033124   0.386457   0.611768  -0.032762  -0.025670   0.010063
     4  H   -0.034933   0.407257  -0.032762   0.567655  -0.028916  -0.007024
     5  H   -0.037546   0.393931  -0.025670  -0.028916   0.583647  -0.002537
     6  C    0.318990  -0.046217   0.010063  -0.007024  -0.002537   4.807033
     7  H   -0.027827  -0.006226  -0.000847   0.004535  -0.000187   0.394106
     8  H   -0.030756   0.007538  -0.000390  -0.000258  -0.000168   0.401084
     9  H   -0.041121  -0.002524   0.000112  -0.000237   0.000150   0.397244
    10  C    0.219462  -0.051915  -0.010981   0.008287  -0.001033  -0.038305
    11  H   -0.052260   0.001193   0.000898  -0.000315   0.000587   0.006118
    12  O    0.095014  -0.025409   0.002129  -0.002876   0.004486  -0.023525
    13  O   -0.033829  -0.004019   0.012359  -0.000331  -0.000280   0.001992
    14  H   -0.001997  -0.000970   0.002359   0.000227   0.000459  -0.000038
              7          8          9         10         11         12
     1  C   -0.027827  -0.030756  -0.041121   0.219462  -0.052260   0.095014
     2  C   -0.006226   0.007538  -0.002524  -0.051915   0.001193  -0.025409
     3  H   -0.000847  -0.000390   0.000112  -0.010981   0.000898   0.002129
     4  H    0.004535  -0.000258  -0.000237   0.008287  -0.000315  -0.002876
     5  H   -0.000187  -0.000168   0.000150  -0.001033   0.000587   0.004486
     6  C    0.394106   0.401084   0.397244  -0.038305   0.006118  -0.023525
     7  H    0.576571  -0.027533  -0.029743   0.006323  -0.000386  -0.002300
     8  H   -0.027533   0.565333  -0.023611  -0.004621   0.000752   0.003962
     9  H   -0.029743  -0.023611   0.586467  -0.002150  -0.000324   0.004439
    10  C    0.006323  -0.004621  -0.002150   4.752986   0.409106   0.203305
    11  H   -0.000386   0.000752  -0.000324   0.409106   0.570906  -0.021161
    12  O   -0.002300   0.003962   0.004439   0.203305  -0.021161   8.131938
    13  O   -0.000158   0.000198   0.000232   0.316347  -0.040850  -0.043045
    14  H    0.000107  -0.000101  -0.000106  -0.035116   0.009339   0.008384
             13         14
     1  C   -0.033829  -0.001997
     2  C   -0.004019  -0.000970
     3  H    0.012359   0.002359
     4  H   -0.000331   0.000227
     5  H   -0.000280   0.000459
     6  C    0.001992  -0.000038
     7  H   -0.000158   0.000107
     8  H    0.000198  -0.000101
     9  H    0.000232  -0.000106
    10  C    0.316347  -0.035116
    11  H   -0.040850   0.009339
    12  O   -0.043045   0.008384
    13  O    7.837773   0.309750
    14  H    0.309750   0.473528
 Mulliken atomic charges:
              1
     1  C   -0.114591
     2  C   -0.197532
     3  H    0.077630
     4  H    0.119691
     5  H    0.113076
     6  C   -0.218985
     7  H    0.113565
     8  H    0.108572
     9  H    0.111173
    10  C    0.228307
    11  H    0.116397
    12  O   -0.335341
    13  O   -0.356138
    14  H    0.234175
 Sum of Mulliken charges=   0.00000
 Atomic charges with hydrogens summed into heavy atoms:
              1
     1  C   -0.114591
     2  C    0.112865
     3  H    0.000000
     4  H    0.000000
     5  H    0.000000
     6  C    0.114325
     7  H    0.000000
     8  H    0.000000
     9  H    0.000000
    10  C    0.344704
    11  H    0.000000
    12  O   -0.335341
    13  O   -0.121963
    14  H    0.000000
 Sum of Mulliken charges=   0.00000
 APT atomic charges:
              1
     1  C    0.300980
     2  C    0.024357
     3  H   -0.012520
     4  H   -0.011964
     5  H   -0.004471
     6  C    0.031304
     7  H   -0.017835
     8  H   -0.006710
     9  H   -0.009362
    10  C    0.791192
    11  H   -0.027887
    12  O   -0.669216
    13  O   -0.660195
    14  H    0.272328
 Sum of APT charges=   0.00000
 APT Atomic charges with hydrogens summed into heavy atoms:
              1
     1  C    0.300980
     2  C   -0.004598
     3  H    0.000000
     4  H    0.000000
     5  H    0.000000
     6  C   -0.002603
     7  H    0.000000
     8  H    0.000000
     9  H    0.000000
    10  C    0.763305
    11  H    0.000000
    12  O   -0.669216
    13  O   -0.387868
    14  H    0.000000
 Sum of APT charges=   0.00000
 Electronic spatial extent (au):  <R**2>=  1270.6306
 Charge=     0.0000 electrons
 Dipole moment (field-independent basis, Debye):
    X=    -1.4248    Y=    -1.1186    Z=    -0.1034  Tot=     1.8144
 Quadrupole moment (field-independent basis, Debye-Ang):
   XX=   -36.3861   YY=   -30.1642   ZZ=   -41.2201
   XY=     0.2966   XZ=     0.6334   YZ=    -0.9471
 Traceless Quadrupole moment (field-independent basis, Debye-Ang):
   XX=    -0.4626   YY=     5.7593   ZZ=    -5.2966
   XY=     0.2966   XZ=     0.6334   YZ=    -0.9471
 Octapole moment (field-independent basis, Debye-Ang**2):
  XXX=    -5.1281  YYY=   204.8683  ZZZ=   -69.1410  XYY=    -1.9165
  XXY=    71.3419  XXZ=   -15.4452  XZZ=    -4.3682  YZZ=    75.5593
  YYZ=   -13.7354  XYZ=    -3.8912
 Hexadecapole moment (field-independent basis, Debye-Ang**3):
 XXXX=  -233.4056 YYYY= -1172.7492 ZZZZ=  -264.8271 XXXY=    -3.4245
 XXXZ=   -20.9400 YYYX=     1.3711 YYYZ=    40.3452 ZZZX=   -27.7892
 ZZZY=    59.8870 XXYY=  -232.2169 XXZZ=   -75.9449 YYZZ=  -236.7304
 XXYZ=     8.3156 YYXZ=    -3.3857 ZZXY=    -1.5969
 N-N= 2.541209852619D+02 E-N=-1.228445175019D+03  KE= 3.066494377800D+02
  Exact polarizability:  51.889   0.207  54.310   4.231   5.633  46.781
 Approx polarizability:  69.875   3.073  72.130   3.446   3.748  70.184
 Use density number 0.
 Entering OneElI...
 Calculate overlap and kinetic energy integrals
    NBasis = 162  MinDer = 2  MaxDer = 2
 Requested accuracy = 0.1000D-12
 PrsmSu:  NPrtUS=   1 ThrOK=F
 PRISM was handed   130831682 working-precision words and  1953 shell-pairs
 Entering OneElI...
 Calculate potential energy integrals
    NBasis = 162  MinDer = 2  MaxDer = 2
 Requested accuracy = 0.1000D-12
 PrsmSu:  NPrtUS=   8 ThrOK=T
 PRISM was handed    16318051 working-precision words and  1873 shell-pairs
 PRISM was handed    16318051 working-precision words and  1873 shell-pairs
 PRISM was handed    16318051 working-precision words and  1873 shell-pairs
 PRISM was handed    16318051 working-precision words and  1873 shell-pairs
 PRISM was handed    16318051 working-precision words and  1873 shell-pairs
 PRISM was handed    16318051 working-precision words and  1873 shell-pairs
 PRISM was handed    16318051 working-precision words and  1873 shell-pairs
 PRISM was handed    16318051 working-precision words and  1873 shell-pairs
 Polarizability after L701:
                1             2             3
      1  0.518893D+02
      2  0.206769D+00  0.543098D+02
      3  0.423129D+01  0.563346D+01  0.467813D+02
 Dipole Derivatives after L701:
               1            2            3            4            5
      1 0.385144D+00 0.291960D-01-0.143892D+00-0.476142D-01 0.620687D-01
      2-0.149680D-01 0.437360D+00-0.128406D+00 0.436802D-01 0.642724D-02
      3-0.650763D-01-0.141022D-01 0.804347D-01 0.164688D-01-0.274557D-01
               6            7            8            9           10
      1-0.425159D-01 0.421751D-01 0.633713D-01 0.284032D-01 0.956657D-02
      2-0.252158D-01 0.614828D-02-0.128026D+00-0.771108D-01-0.121393D-01
      3 0.114258D+00 0.255664D-02-0.669030D-01 0.482919D-01-0.242134D-01
              11           12           13           14           15
      1 0.144250D-01-0.835359D-01-0.190774D-01-0.917858D-01 0.609536D-01
      2 0.755590D-01-0.117116D-01-0.601030D-01-0.156537D-01 0.721269D-01
      3-0.152158D-01-0.121018D+00 0.290580D-01 0.721524D-01 0.213182D-01
              16           17           18           19           20
      1 0.960994D-02 0.364832D-01-0.369553D-03 0.602977D-01-0.668208D-02
      2 0.632600D-01-0.439009D-01-0.620009D-01 0.330535D-03 0.148433D-01
      3-0.528743D-02-0.111214D-01 0.128204D+00-0.599116D-01-0.816654D-02
              21           22           23           24           25
      1-0.524716D-01-0.123391D+00 0.107170D-01-0.336923D-01 0.139434D-01
      2-0.792379D-01 0.668471D-01 0.355606D-01-0.317506D-02-0.801289D-01
      3-0.128645D+00-0.211884D-01-0.968404D-02 0.676994D-01 0.706139D-01
              26           27           28           29           30
      1-0.571147D-01 0.689918D-01 0.498169D+00 0.271440D-01 0.986349D-01
      2-0.407102D-01 0.779363D-01-0.699575D-01 0.934544D+00 0.437655D+00
      3 0.362378D-01-0.132006D-02-0.548530D-01 0.390979D+00 0.940862D+00
              31           32           33           34           35
      1-0.720658D-01 0.607484D-01-0.615683D-01-0.571929D+00-0.161500D+00
      2 0.692867D-01-0.104265D-01 0.665403D-02-0.167418D+00-0.684146D+00
      3-0.963912D-01-0.831182D-02-0.116763D-02 0.821405D-01 0.102235D+00
              36           37           38           39           40
      1 0.204004D+00-0.447858D+00-0.490383D-01 0.203637D-01 0.263031D+00
      2 0.623441D-01 0.976895D-01-0.935055D+00-0.358328D+00 0.574727D-01
      3-0.751573D+00 0.183370D+00-0.467426D+00-0.597673D+00-0.572863D-01
              41           42
      1 0.619671D-01-0.633058D-01
      2 0.353623D+00 0.884706D-01
      3 0.267820D-01 0.200329D+00
 Hessian after L701:
                1             2             3             4             5
      1  0.129562D+02
      2 -0.257442D+01  0.129887D+02
      3 -0.134064D+01 -0.206809D+01  0.201011D+02
      4 -0.769000D+00 -0.137274D+01  0.382354D+00  0.104513D+02
      5 -0.128418D+01 -0.586070D+01 -0.166629D+00  0.806615D+00  0.147494D+02
      6  0.418974D+00 -0.185291D+00 -0.613516D+01 -0.448691D+00 -0.233147D+00
      7  0.875242D-01  0.837463D-01 -0.583211D-01 -0.403627D+01 -0.714074D+00
      8 -0.281980D-01  0.271062D-02  0.683165D-01 -0.428693D+00 -0.175733D+01
      9 -0.710451D-01  0.654411D-01  0.672830D-01 -0.170185D+00  0.856231D+00
     10  0.546838D-01 -0.124047D-01  0.634033D-02 -0.373027D+01  0.187664D-01
     11 -0.261938D-02  0.529812D-01  0.327313D-02  0.982201D-02 -0.397789D+01
     12  0.789702D-01 -0.196507D-01  0.141116D+00  0.732606D+00  0.384563D-01
     13  0.732168D-02 -0.689173D-01  0.775939D-02 -0.297103D+01  0.108693D+01
     14 -0.644347D-02  0.738261D-01 -0.163914D-01  0.949248D+00 -0.286257D+01
     15 -0.264390D-01 -0.583614D-02  0.801957D-01 -0.741526D+00 -0.833474D+00
     16 -0.572132D+01 -0.101223D+01 -0.171840D+00  0.990494D-01 -0.259706D+00
     17 -0.109708D+01 -0.851092D+00  0.964938D+00 -0.199313D+00  0.114133D+00
     18 -0.193801D+00  0.101594D+01 -0.573786D+01 -0.303758D-01  0.336703D-01
     19  0.280506D-01  0.354900D-01  0.435813D-01 -0.405938D-02 -0.542703D-02
     20  0.126241D-01  0.343148D-01  0.277079D-01 -0.541108D-02 -0.120186D-01
     21  0.207878D-01  0.943086D-01  0.166385D+00 -0.136576D-01  0.239220D-01
     22  0.601630D-01 -0.781197D-01  0.253149D-01  0.123139D+00 -0.111227D+00
     23  0.214985D-01  0.110968D+00 -0.151864D-01 -0.115292D+00  0.209702D-01
     24  0.413847D-01 -0.209247D-01  0.224795D-01 -0.518628D-02  0.244811D-02
     25  0.763366D-01 -0.200256D-01 -0.136263D-01 -0.254136D-01 -0.345308D-02
     26 -0.766536D-01  0.244019D-01  0.246747D-01 -0.199727D-01  0.437963D-01
     27 -0.803217D-02 -0.227753D-01  0.925177D-01  0.982749D-02 -0.332599D-01
     28 -0.397208D+01  0.186849D+01  0.209506D+01  0.257730D+00  0.578825D-01
     29  0.186780D+01 -0.404120D+01  0.176490D+01  0.729279D-01 -0.509926D-01
     30  0.235851D+01  0.210862D+01 -0.445125D+01  0.320759D-01  0.114523D-01
     31 -0.167446D+00 -0.116461D+00 -0.645294D-01  0.608180D-01  0.180754D-03
     32 -0.112573D+00  0.163124D+00 -0.614620D-01 -0.160414D-01 -0.265802D-01
     33 -0.132685D+00 -0.657504D-01  0.188551D+00  0.429308D-01  0.143347D-02
     34 -0.259915D+01  0.278781D+01 -0.125821D+01  0.573946D+00  0.127910D+00
     35  0.283235D+01 -0.279399D+01 -0.982339D+00  0.102517D+00 -0.326733D+00
     36 -0.144993D+01 -0.115259D+01 -0.475337D+01 -0.142747D-01  0.323846D-01
     37 -0.253119D-01  0.487596D+00  0.356062D+00 -0.252433D-02  0.288017D+00
     38  0.428645D+00  0.926225D-01  0.430794D+00  0.191634D+00 -0.807047D-01
     39  0.300560D+00  0.286585D+00  0.250680D+00  0.224830D+00  0.274303D+00
     40 -0.159496D-01 -0.781738D-02 -0.931505D-02 -0.274473D-01 -0.823244D-02
     41  0.192566D-01  0.330830D-02  0.254978D-01  0.246994D-01  0.272556D-01
     42  0.339193D-02 -0.299796D-01 -0.326875D-01 -0.728156D-03 -0.779110D-02
                6             7             8             9            10
      6  0.151907D+02
      7 -0.287153D+00  0.360897D+01
      8  0.910246D+00  0.771307D+00  0.181179D+01
      9 -0.377791D+01  0.231880D+00 -0.949358D+00  0.379794D+01
     10  0.932384D+00  0.838451D-01 -0.147448D-01 -0.111475D-01  0.338440D+01
     11  0.147399D-01 -0.859594D-02  0.355094D-01 -0.995592D-01 -0.201472D-02
     12 -0.150445D+01  0.136656D-02 -0.642799D-01 -0.239705D-01 -0.110389D+01
     13 -0.851968D+00  0.639993D-01 -0.330248D-01  0.836277D-04  0.829871D-01
     14 -0.835939D+00 -0.376981D-01 -0.600008D-01  0.345206D-01 -0.399073D-02
     15 -0.326395D+01 -0.919974D-02 -0.352912D-02  0.701257D-01  0.379825D-01
     16 -0.587183D-01  0.247361D-01 -0.123326D+00 -0.304323D-01 -0.155523D-01
     17  0.578252D-01 -0.135699D+00  0.137792D+00  0.464331D-01  0.283829D-02
     18 -0.105074D+00 -0.281836D-01  0.397978D-01 -0.459464D-01  0.386767D-02
     19 -0.115080D-02 -0.205042D-02  0.307009D-02  0.149143D-02  0.950112D-02
     20  0.152529D-02  0.117451D-02  0.104148D-03 -0.542805D-04 -0.352730D-01
     21  0.520907D-02 -0.221822D-02  0.797504D-02  0.336453D-02 -0.147509D-01
     22 -0.829775D-02  0.118274D-02 -0.732288D-02 -0.310672D-02  0.638842D-02
     23  0.466070D-02  0.311211D-02  0.379274D-03  0.119393D-02 -0.293520D-02
     24 -0.470271D-01  0.136240D-02 -0.150867D-02 -0.323752D-03  0.182096D-02
     25  0.156600D-02 -0.255501D-02  0.827147D-03  0.641285D-03 -0.256670D-02
     26 -0.133233D-01 -0.668667D-02  0.161392D-01  0.245490D-02 -0.757591D-02
     27 -0.224020D-01  0.182534D-02 -0.595327D-02 -0.382377D-02  0.553412D-02
     28  0.115866D+00 -0.266460D-01  0.114155D-01 -0.234680D-01  0.755351D-01
     29  0.414326D-01  0.401298D-01 -0.429493D-02  0.123220D-01  0.174247D-01
     30 -0.931211D-02 -0.261983D-01  0.941751D-02 -0.408753D-02  0.119638D+00
     31  0.372818D-01  0.241107D-01 -0.180488D-01  0.398401D-02  0.450992D-03
     32 -0.107879D-01 -0.115912D-01  0.357368D-02 -0.880800D-03 -0.400874D-02
     33 -0.384823D-02  0.110447D-01 -0.788280D-02 -0.449230D-02  0.917528D-03
     34 -0.115514D+00  0.106632D+00 -0.927256D-01 -0.514661D-01  0.444084D-01
     35  0.130921D-01 -0.317660D-01 -0.445431D-01  0.723094D-02  0.235231D-01
     36 -0.282593D+00 -0.252620D-01  0.220707D-01 -0.575500D-01 -0.112918D-01
     37  0.264641D+00  0.564197D-01 -0.619088D-01  0.105581D+00  0.957123D-02
     38  0.199584D+00  0.147476D-02 -0.127912D+00  0.795634D-02  0.130216D-01
     39 -0.158016D-01  0.174175D+00 -0.382872D-01 -0.674722D-02  0.321458D-01
     40  0.780643D-03  0.100972D-01  0.213731D-01  0.171896D-01 -0.337719D-02
     41  0.353830D-01  0.451662D-01 -0.139147D-01  0.160681D-01  0.737369D-02
     42 -0.283877D-01  0.148831D-01  0.129759D-01 -0.138700D-01  0.444707D-03
               11            12            13            14            15
     11  0.390326D+01
     12 -0.253762D-01  0.138447D+01
     13 -0.856473D-02  0.357527D-01  0.257268D+01
     14  0.542442D-01  0.533406D-01 -0.109181D+01  0.280512D+01
     15  0.824769D-01 -0.727750D-01  0.855880D+00  0.772194D+00  0.327031D+01
     16 -0.239979D-02  0.221672D-01  0.379758D-01  0.219798D-02 -0.357329D-01
     17 -0.606662D-02 -0.146794D-01 -0.218830D-01 -0.262537D-01  0.113870D-01
     18 -0.346044D-02  0.552772D-02 -0.185227D-01 -0.932371D-04 -0.189207D-01
     19 -0.259860D-01  0.190498D-02  0.167968D-02 -0.140582D-02 -0.463962D-02
     20  0.163972D-01 -0.666993D-02 -0.608938D-02 -0.375091D-02  0.549041D-02
     21  0.117351D-01 -0.272817D-01 -0.154405D-01 -0.271029D-02  0.994745D-02
     22 -0.260147D-02  0.116178D-01  0.131763D-01  0.412994D-02 -0.707181D-02
     23 -0.623416D-03 -0.417268D-02 -0.444814D-02 -0.280408D-02  0.185889D-02
     24 -0.763412D-03  0.902472D-03 -0.729070D-03  0.168186D-03 -0.187171D-02
     25 -0.138085D-02 -0.876837D-03  0.601685D-03 -0.587845D-02 -0.137212D-02
     26  0.506814D-02 -0.142590D-01 -0.215753D-01 -0.156481D-02  0.806559D-02
     27 -0.567416D-02  0.766875D-02  0.615543D-02  0.622311D-03 -0.102501D-01
     28  0.663484D-02  0.131763D+00  0.270399D-01  0.300452D-01  0.246800D-02
     29 -0.551738D-01  0.165427D-01  0.239974D-01 -0.422995D-02 -0.204158D-02
     30  0.690689D-02  0.689153D-01  0.147292D-01  0.449778D-02 -0.153223D-01
     31  0.486515D-03  0.798021D-02  0.235561D-01  0.101153D-01 -0.612036D-03
     32 -0.359880D-03 -0.467782D-02 -0.164343D-02 -0.578511D-02  0.175716D-02
     33  0.301193D-03  0.431984D-02  0.869838D-02  0.389107D-02 -0.422634D-02
     34  0.248902D-01  0.410276D-01  0.109854D+00  0.968102D-01 -0.719779D-01
     35 -0.199286D-01  0.108671D-01  0.921110D-01  0.566055D-02 -0.385936D-01
     36 -0.225447D-02 -0.220955D-01 -0.680076D-01 -0.388073D-01 -0.174944D-01
     37  0.112680D-01  0.423292D-01  0.322565D-01  0.522314D-01 -0.227603D-03
     38 -0.101606D-01  0.203730D-01  0.392127D-01  0.129543D-01  0.193015D-02
     39  0.165752D-01  0.411433D-01  0.278791D-01  0.274463D-01 -0.243383D-01
     40  0.106139D-02 -0.272314D-02 -0.209091D-02  0.244920D-02  0.246795D-02
     41  0.273935D-02  0.141861D-01  0.157036D-01  0.151508D-01 -0.168632D-02
     42  0.107961D-02 -0.349107D-02 -0.226993D-02 -0.273959D-02 -0.143309D-02
               16            17            18            19            20
     16  0.145094D+02
     17  0.688517D+00  0.998710D+01
     18  0.168027D-01 -0.101395D+01  0.147881D+02
     19 -0.373975D+01  0.105238D+00  0.555025D+00  0.368940D+01
     20  0.158538D+00 -0.378810D+01  0.628901D+00 -0.180896D+00  0.351944D+01
     21  0.591615D+00  0.436629D+00 -0.146643D+01 -0.601323D+00 -0.830272D+00
     22 -0.141396D+01 -0.425743D+00  0.295683D+00  0.148873D-02 -0.793287D-02
     23 -0.693102D+00 -0.392001D+01 -0.892405D-01  0.691419D-03  0.661259D-01
     24  0.239036D+00 -0.514970D-01 -0.396090D+01 -0.872020D-01  0.756924D-03
     25 -0.320073D+01  0.827452D+00 -0.733838D+00  0.775303D-01  0.294200D-02
     26  0.942975D+00 -0.270091D+01 -0.105604D+01 -0.621020D-02  0.737383D-01
     27 -0.731594D+00 -0.921085D+00 -0.302851D+01  0.489369D-01  0.553748D-01
     28 -0.101664D+00  0.341677D-01  0.241026D-01 -0.410045D-01  0.266997D-01
     29  0.952548D-01  0.233709D+00  0.167086D+00  0.254527D-01  0.440849D-01
     30  0.325762D-01  0.675872D-01 -0.829253D-01  0.295083D-01  0.100003D+00
     31  0.229839D-01  0.884693D-01  0.715808D-01  0.299372D-02  0.372101D-02
     32  0.448945D-01 -0.294124D-02  0.392821D-01 -0.101249D-02 -0.296707D-02
     33  0.629553D-01  0.699660D-01 -0.302466D-02  0.299781D-02  0.245235D-02
     34 -0.337112D+00  0.138073D+00  0.429785D-01 -0.132116D-01  0.286245D-01
     35  0.149771D+00  0.630967D+00  0.219096D-01  0.422901D-01  0.410727D-01
     36  0.567695D-01  0.117301D+00 -0.328438D+00  0.257671D-02 -0.419598D-02
     37 -0.152358D+00  0.886009D-02 -0.414411D-03 -0.837221D-02  0.380853D-02
     38  0.102488D-01  0.158947D+00  0.200291D+00  0.705285D-02  0.508201D-02
     39  0.659532D-02  0.228853D+00 -0.376838D-02  0.889032D-02  0.184711D-01
     40 -0.117267D-01 -0.138942D-01 -0.490571D-02 -0.219762D-02 -0.253050D-02
     41 -0.163680D-02  0.327308D-01  0.159086D-01  0.165165D-02  0.647817D-02
     42 -0.200284D-03  0.293828D-03 -0.118212D-01 -0.596901D-03  0.509263D-03
               21            22            23            24            25
     21  0.129060D+01
     22 -0.478671D-01  0.135899D+01
     23  0.840865D-02  0.827417D+00  0.349687D+01
     24  0.161527D-01 -0.257371D+00  0.634344D-01  0.402444D+01
     25  0.189466D-01 -0.527370D-01 -0.445704D-01  0.564130D-01  0.313929D+01
     26  0.556983D-01 -0.341374D-01  0.588217D-01  0.768456D-02 -0.901297D+00
     27 -0.862888D-01  0.213131D-01 -0.191704D-03  0.520116D-01  0.683849D+00
     28  0.316199D-01 -0.101300D-01  0.101262D-01  0.976895D-02 -0.160408D-02
     29  0.117509D+00 -0.330724D-01  0.136847D-01 -0.611436D-02  0.340562D-01
     30  0.834032D-01 -0.338974D-02 -0.725032D-02 -0.328370D-01  0.533816D-02
     31  0.112353D-01 -0.207032D-01  0.136719D-01  0.689561D-02  0.869140D-02
     32 -0.354013D-02  0.154225D-02  0.631538D-02  0.127570D-01  0.121798D-02
     33  0.687402D-02 -0.885639D-02  0.227017D-01  0.326151D-02  0.574746D-02
     34  0.172515D-01 -0.614427D-01 -0.144309D-02 -0.740918D-03 -0.487225D-02
     35  0.426496D-01 -0.858160D-01  0.115874D+00 -0.259905D-01  0.845519D-01
     36 -0.228670D-01  0.780132D-02 -0.164671D-01 -0.686326D-01 -0.313786D-01
     37  0.876567D-02 -0.103787D-01 -0.115608D-01 -0.540739D-02 -0.915726D-02
     38  0.270096D-01 -0.378745D-01  0.291090D-01  0.194106D-01  0.215233D-01
     39  0.237894D-01 -0.293743D-01  0.322217D-01 -0.681886D-02  0.103706D-01
     40 -0.496355D-02  0.482416D-02 -0.316469D-02 -0.457942D-04 -0.280557D-02
     41  0.106774D-01 -0.924222D-02  0.432086D-02  0.138811D-03  0.403508D-02
     42 -0.286439D-02  0.360389D-02 -0.197130D-02 -0.839728D-03 -0.178056D-02
               26            27            28            29            30
     26  0.229676D+01
     27  0.101438D+01  0.305397D+01
     28  0.194558D-01 -0.369038D-04  0.215064D+02
     29  0.137009D-01 -0.805226D-02  0.852855D+00  0.174900D+02
     30  0.694223D-02 -0.133219D-01 -0.164051D+01 -0.498547D+01  0.122916D+02
     31  0.135280D-01 -0.324326D-02 -0.260189D+01 -0.125581D+01  0.112297D+01
     32 -0.162707D-02  0.144910D-02 -0.119102D+01 -0.384046D+01 -0.706003D+00
     33  0.655487D-02 -0.420750D-02  0.116039D+01 -0.761192D+00 -0.390979D+01
     34  0.869225D-01 -0.342160D-01 -0.732662D+01  0.589025D+00 -0.347693D+00
     35  0.120408D+00 -0.721405D-01  0.635147D+00 -0.753921D+01 -0.132091D+01
     36 -0.659190D-01 -0.207203D-01 -0.141009D+00 -0.111539D+01  0.149842D+01
     37  0.156871D-01 -0.218126D-02 -0.784448D+01 -0.227664D+01 -0.162663D+01
     38  0.442790D-01  0.907015D-03 -0.237763D+01 -0.244110D+01  0.454664D+01
     39  0.265464D-01 -0.175119D-01 -0.177320D+01  0.475427D+01 -0.552685D+01
     40 -0.445969D-02  0.186161D-02  0.594011D-01 -0.534020D-01 -0.709235D-01
     41  0.698562D-02 -0.359597D-02  0.157339D-01  0.181484D+00  0.157565D+00
     42 -0.345939D-02  0.862072D-03  0.718007D-02  0.419569D-02  0.103311D+00
               31            32            33            34            35
     31  0.219430D+01
     32  0.140889D+01  0.373977D+01
     33 -0.147135D+01  0.950608D+00  0.386353D+01
     34  0.260386D+00 -0.137411D+00  0.181746D+00  0.955920D+01
     35 -0.138214D+00  0.901724D-01 -0.373024D-01 -0.352124D+01  0.991475D+01
     36  0.201232D+00 -0.966158D-01 -0.166730D+00  0.196652D+01  0.182927D+01
     37  0.137559D+00  0.117034D+00  0.112156D+00 -0.223841D+00 -0.159003D+00
     38  0.113080D+00 -0.215753D+00 -0.154611D+00 -0.118234D+00 -0.139614D+00
     39  0.586224D-01 -0.101915D+00  0.656870D-01 -0.357790D+00  0.519248D+00
     40  0.541964D-01 -0.982761D-01  0.233106D-01 -0.881832D-01 -0.262188D-01
     41 -0.123605D+00  0.935245D-01 -0.311700D-01 -0.900873D-02 -0.548946D-01
     42  0.179499D-01 -0.199710D-01 -0.359059D-01 -0.119160D-01  0.330071D-01
               36            37            38            39            40
     36  0.357189D+01
     37 -0.396876D+00  0.130133D+02
     38  0.342714D+00  0.354181D+01  0.657212D+01
     39  0.618779D+00 -0.194526D+00 -0.397124D+01  0.950273D+01
     40 -0.968629D-01 -0.497271D+01 -0.183397D+01  0.151082D+01  0.499797D+01
     41  0.148501D+00 -0.201720D+01 -0.389988D+01 -0.207308D+01  0.202708D+01
     42  0.514073D-01  0.133673D+01 -0.167176D+01 -0.490098D+01 -0.136669D+01
               41            42
     41  0.359471D+01
     42  0.168561D+01  0.487670D+01
 ReadGW:  IGet=0 IStart=         102 Next=        6304 LGW=        6202.
 ICntrl=12127.
 Symmetry not used in FoFDir.
 MinBra= 0 MaxBra= 2 Meth= 1.
 IRaf=       0 NMat=   1 IRICut=       1 DoRegI=T DoRafI=F ISym2E= 0 JSym2E=0.
 PrsmSu:  NPrtUS=   8 ThrOK=T
 PRISM was handed    16311550 working-precision words and  1921 shell-pairs
 PRISM was handed    16311550 working-precision words and  1921 shell-pairs
 PRISM was handed    16311550 working-precision words and  1921 shell-pairs
 PRISM was handed    16311550 working-precision words and  1921 shell-pairs
 PRISM was handed    16311550 working-precision words and  1921 shell-pairs
 PRISM was handed    16311550 working-precision words and  1921 shell-pairs
 PRISM was handed    16311550 working-precision words and  1921 shell-pairs
 PRISM was handed    16311550 working-precision words and  1921 shell-pairs
 Pruned (  75, 302) grid will be used in CalDFT.
 CkSvGd:  ISavGI=        -1 IRadAn=       4 IRASav=       4 ISavGd=        -1.
 CalDSu:  NPrtUS=   8 ThrOK=T
 IPart= 0 IRanGd=          0 ScrnBf=T ScrnGd=T RCrit=4.00D+00 DoMicB=T.
 IPart= 6 IRanGd=          0 ScrnBf=T ScrnGd=T RCrit=4.00D+00 DoMicB=T.
 IPart= 4 IRanGd=          0 ScrnBf=T ScrnGd=T RCrit=4.00D+00 DoMicB=T.
 CutRad = 1000.00    CtRdIn =    0.00    XCrit =  15.00   ICut = 0
 IPart= 3 IRanGd=          0 ScrnBf=T ScrnGd=T RCrit=4.00D+00 DoMicB=T.
 IPart= 5 IRanGd=          0 ScrnBf=T ScrnGd=T RCrit=4.00D+00 DoMicB=T.
 CutRad = 1000.00    CtRdIn =    0.00    XCrit =  15.00   ICut = 0
 IPart= 2 IRanGd=          0 ScrnBf=T ScrnGd=T RCrit=4.00D+00 DoMicB=T.
 CutRad = 1000.00    CtRdIn =    0.00    XCrit =  15.00   ICut = 0
 CutRad = 1000.00    CtRdIn =    0.00    XCrit =  15.00   ICut = 0
 CutRad = 1000.00    CtRdIn =    0.00    XCrit =  15.00   ICut = 0
 IPart= 1 IRanGd=          0 ScrnBf=T ScrnGd=T RCrit=4.00D+00 DoMicB=T.
 CutRad = 1000.00    CtRdIn =    0.00    XCrit =  15.00   ICut = 0
 CutRad = 1000.00    CtRdIn =    0.00    XCrit =  15.00   ICut = 0
 IPart= 7 IRanGd=          0 ScrnBf=T ScrnGd=T RCrit=4.00D+00 DoMicB=T.
 CutRad = 1000.00    CtRdIn =    0.00    XCrit =  15.00   ICut = 0
 IPart= 0        12358 of        13880 points in      28 batches and       82 microbatches, Max-NSigAt=      14 Max-NSgAt2=      14
 IPart= 4        11304 of        12400 points in      24 batches and       79 microbatches, Max-NSigAt=      14 Max-NSgAt2=      14
 IPart= 6        12996 of        14876 points in      31 batches and       95 microbatches, Max-NSigAt=      14 Max-NSgAt2=      14
 IPart= 2        13765 of        15754 points in      33 batches and      114 microbatches, Max-NSigAt=      14 Max-NSgAt2=      14
 IPart= 3        13019 of        14446 points in      29 batches and      104 microbatches, Max-NSigAt=      14 Max-NSgAt2=      14
 IPart= 7        10535 of        11762 points in      22 batches and       54 microbatches, Max-NSigAt=      14 Max-NSgAt2=      14
 IPart= 1        12008 of        13422 points in      28 batches and       77 microbatches, Max-NSigAt=      14 Max-NSgAt2=      14
 IPart= 5        12639 of        15036 points in      33 batches and      102 microbatches, Max-NSigAt=      14 Max-NSgAt2=      14
 Polarizability after L703:
                1             2             3
      1  0.518893D+02
      2  0.206769D+00  0.543098D+02
      3  0.423129D+01  0.563346D+01  0.467813D+02
 Dipole Derivatives after L703:
               1            2            3            4            5
      1 0.385144D+00 0.291960D-01-0.143892D+00-0.476142D-01 0.620687D-01
      2-0.149680D-01 0.437360D+00-0.128406D+00 0.436802D-01 0.642724D-02
      3-0.650763D-01-0.141022D-01 0.804347D-01 0.164688D-01-0.274557D-01
               6            7            8            9           10
      1-0.425159D-01 0.421751D-01 0.633713D-01 0.284032D-01 0.956657D-02
      2-0.252158D-01 0.614828D-02-0.128026D+00-0.771108D-01-0.121393D-01
      3 0.114258D+00 0.255664D-02-0.669030D-01 0.482919D-01-0.242134D-01
              11           12           13           14           15
      1 0.144250D-01-0.835359D-01-0.190774D-01-0.917858D-01 0.609536D-01
      2 0.755590D-01-0.117116D-01-0.601030D-01-0.156537D-01 0.721269D-01
      3-0.152158D-01-0.121018D+00 0.290580D-01 0.721524D-01 0.213182D-01
              16           17           18           19           20
      1 0.960994D-02 0.364832D-01-0.369553D-03 0.602977D-01-0.668208D-02
      2 0.632600D-01-0.439009D-01-0.620009D-01 0.330535D-03 0.148433D-01
      3-0.528743D-02-0.111214D-01 0.128204D+00-0.599116D-01-0.816654D-02
              21           22           23           24           25
      1-0.524716D-01-0.123391D+00 0.107170D-01-0.336923D-01 0.139434D-01
      2-0.792379D-01 0.668471D-01 0.355606D-01-0.317506D-02-0.801289D-01
      3-0.128645D+00-0.211884D-01-0.968404D-02 0.676994D-01 0.706139D-01
              26           27           28           29           30
      1-0.571147D-01 0.689918D-01 0.498169D+00 0.271440D-01 0.986349D-01
      2-0.407102D-01 0.779363D-01-0.699575D-01 0.934544D+00 0.437655D+00
      3 0.362378D-01-0.132006D-02-0.548530D-01 0.390979D+00 0.940862D+00
              31           32           33           34           35
      1-0.720658D-01 0.607484D-01-0.615683D-01-0.571929D+00-0.161500D+00
      2 0.692867D-01-0.104265D-01 0.665403D-02-0.167418D+00-0.684146D+00
      3-0.963912D-01-0.831182D-02-0.116763D-02 0.821405D-01 0.102235D+00
              36           37           38           39           40
      1 0.204004D+00-0.447858D+00-0.490383D-01 0.203637D-01 0.263031D+00
      2 0.623441D-01 0.976895D-01-0.935055D+00-0.358328D+00 0.574727D-01
      3-0.751573D+00 0.183370D+00-0.467426D+00-0.597673D+00-0.572863D-01
              41           42
      1 0.619671D-01-0.633058D-01
      2 0.353623D+00 0.884706D-01
      3 0.267820D-01 0.200329D+00
 Hessian after L703:
                1             2             3             4             5
      1  0.551903D+00
      2  0.516097D-02  0.513046D+00
      3  0.841105D-01  0.103699D+00  0.333698D+00
      4 -0.186221D+00  0.435631D-01 -0.122887D-01  0.481143D+00
      5  0.443307D-01 -0.930569D-01 -0.928724D-03  0.149118D-01  0.575139D+00
      6 -0.241869D-01 -0.316200D-02 -0.774827D-01 -0.776610D-02  0.785100D-02
      7 -0.394577D-02  0.306707D-01  0.116889D-01 -0.548921D-01  0.379536D-01
      8  0.533954D-03 -0.868783D-02 -0.503427D-03  0.404697D-01 -0.269465D+00
      9  0.111102D-02  0.429333D-02  0.318466D-03  0.151313D-01 -0.888394D-01
     10 -0.149662D-01 -0.289467D-02 -0.349158D-01 -0.633740D-01 -0.103183D-02
     11  0.215376D-02  0.382074D-04  0.962647D-02 -0.302529D-03 -0.467660D-01
     12 -0.234727D-02 -0.608648D-03 -0.251424D-02 -0.670810D-01 -0.574706D-02
     13 -0.146178D-01 -0.216858D-01  0.164513D-01 -0.132284D+00 -0.937379D-01
     14  0.311928D-02  0.443143D-02 -0.514427D-02 -0.954123D-01 -0.155292D+00
     15 -0.194575D-02 -0.256745D-02  0.846523D-03  0.759100D-01  0.851055D-01
     16 -0.888572D-01  0.381806D-01  0.599121D-02 -0.721184D-02  0.317793D-01
     17  0.368070D-01 -0.180611D+00 -0.309072D-01  0.713577D-02 -0.765471D-02
     18  0.204226D-02 -0.426833D-01 -0.872502D-01 -0.190255D-02  0.273674D-02
     19  0.167997D-02  0.641602D-03  0.841617D-02  0.483688D-03 -0.304313D-03
     20 -0.103082D-01 -0.989278D-02 -0.351273D-01 -0.127595D-02  0.116251D-02
     21 -0.279693D-02 -0.348620D-02 -0.886847D-02 -0.142664D-03  0.327674D-03
     22 -0.820249D-02  0.150952D-03 -0.844242D-04  0.925967D-03  0.183938D-02
     23  0.323849D-01 -0.698047D-02  0.402163D-02 -0.393192D-03 -0.573685D-02
     24  0.943617D-02 -0.773418D-03 -0.633585D-03  0.136617D-03 -0.130564D-02
     25  0.203792D-02  0.316703D-02 -0.517233D-02 -0.310395D-03 -0.543957D-04
     26 -0.169160D-01 -0.154766D-01  0.191819D-01 -0.529995D-03  0.815216D-03
     27 -0.482797D-02 -0.451625D-02  0.437807D-02  0.256842D-03  0.314079D-03
     28 -0.143029D+00 -0.503352D-01 -0.881181D-01 -0.150574D-01 -0.744286D-02
     29 -0.519592D-01 -0.837819D-01 -0.744669D-01 -0.645978D-02  0.331207D-02
     30 -0.123347D+00 -0.106265D+00 -0.884269D-01 -0.113142D-02  0.610959D-02
     31 -0.139219D-01  0.104611D-01 -0.492266D-02  0.999211D-03 -0.537871D-03
     32 -0.160802D-01  0.796828D-02 -0.468529D-02  0.621704D-03 -0.695170D-03
     33 -0.404518D-03  0.406813D-02 -0.561267D-02  0.100135D-03 -0.953921D-04
     34 -0.979259D-01 -0.446807D-01  0.259328D-01 -0.234855D-01 -0.280653D-01
     35 -0.405368D-01 -0.101240D+00  0.231571D-01 -0.563033D-02  0.770905D-03
     36  0.612287D-01  0.644172D-01 -0.580111D-01 -0.216140D-02 -0.306720D-02
     37  0.122351D-01 -0.122621D-01 -0.665456D-02 -0.117955D-02  0.293905D-02
     38  0.964726D-02 -0.239420D-01 -0.921172D-02  0.277103D-02 -0.175727D-02
     39  0.325435D-02 -0.904494D-02 -0.118352D-01  0.101525D-02 -0.201839D-02
     40  0.383079D-02 -0.137573D-03 -0.434270D-03  0.463364D-03 -0.257938D-02
     41  0.166255D-02 -0.181466D-02  0.128858D-02  0.531012D-03 -0.776102D-03
     42 -0.132688D-02 -0.337056D-02  0.139394D-02 -0.764167D-04 -0.442818D-03
                6             7             8             9            10
      6  0.556309D+00
      7  0.152721D-01  0.600892D-01
      8 -0.879066D-01 -0.430850D-01  0.293723D+00
      9 -0.808083D-01 -0.150799D-01  0.981423D-01  0.832184D-01
     10 -0.669055D-01  0.560489D-03 -0.632778D-03  0.515819D-02  0.714451D-01
     11 -0.493916D-02 -0.856111D-02  0.149823D-03 -0.292347D-01 -0.263335D-03
     12 -0.288374D+00 -0.224088D-02  0.109701D-03 -0.100818D-01  0.753375D-01
     13  0.752162D-01  0.314775D-02  0.336985D-02 -0.372579D-02  0.546867D-02
     14  0.855421D-01 -0.167240D-01 -0.178499D-01  0.156746D-01  0.157395D-02
     15 -0.113422D+00 -0.820474D-02 -0.768283D-02  0.643027D-02  0.184546D-01
     16  0.830231D-02 -0.591175D-02  0.247712D-02 -0.722134D-03  0.833590D-03
     17 -0.441801D-02 -0.215672D-03  0.916455D-03  0.273744D-03 -0.130184D-02
     18  0.244964D-02 -0.111750D-02  0.322109D-03  0.236802D-03 -0.104885D-03
     19  0.595378D-03  0.182910D-04 -0.186993D-03 -0.168554D-03 -0.248004D-04
     20  0.843238D-04 -0.259842D-03  0.106404D-03  0.301803D-03  0.758929D-03
     21  0.324370D-03  0.472835D-04 -0.304244D-04  0.241159D-03  0.543876D-03
     22  0.750025D-03 -0.439865D-03  0.174386D-03 -0.271752D-03  0.102355D-03
     23 -0.181407D-02  0.177508D-02 -0.535301D-03  0.125712D-03 -0.203862D-03
     24  0.375520D-04  0.338265D-03 -0.407963D-03  0.437700D-03  0.325770D-03
     25 -0.646244D-04  0.146554D-03 -0.161230D-03 -0.706113D-04  0.444472D-04
     26  0.207727D-03 -0.102677D-04  0.415145D-03 -0.313739D-03  0.716309D-05
     27 -0.103263D-03 -0.232892D-03 -0.481725D-04  0.700250D-04  0.128204D-03
     28 -0.275467D-01  0.656849D-04  0.200183D-03 -0.654273D-03 -0.415054D-02
     29  0.151974D-01  0.290709D-02 -0.302079D-02 -0.232435D-03  0.652353D-02
     30 -0.426761D-02  0.711703D-03 -0.198605D-02  0.102351D-02 -0.121140D-02
     31 -0.304487D-02  0.172859D-03  0.223299D-03  0.177346D-03 -0.121046D-02
     32 -0.338017D-02 -0.730332D-04  0.400083D-03  0.750190D-04 -0.134779D-02
     33  0.428304D-03 -0.904313D-04 -0.115259D-03 -0.169098D-03  0.127754D-03
     34  0.279354D-01  0.196802D-02 -0.119207D-03  0.109203D-03  0.427539D-02
     35 -0.333787D-02 -0.113099D-02  0.200168D-02  0.290625D-03 -0.693169D-03
     36  0.475177D-02  0.130236D-03  0.214569D-03 -0.970941D-03  0.311689D-02
     37  0.192598D-02  0.104944D-02 -0.329782D-02 -0.217119D-03  0.107111D-02
     38  0.360892D-03 -0.136266D-02  0.834557D-03 -0.417132D-04 -0.559956D-03
     39  0.126721D-02 -0.475384D-03  0.277828D-03 -0.629077D-03  0.421492D-04
     40 -0.482703D-03 -0.202878D-02  0.346092D-04 -0.776898D-03 -0.751749D-04
     41 -0.285595D-03 -0.188390D-02  0.101151D-02 -0.515217D-03  0.656462D-04
     42 -0.111029D-02 -0.746720D-03 -0.385765D-03  0.682916D-03 -0.973980D-04
               11            12            13            14            15
     11  0.461696D-01
     12  0.592063D-02  0.312428D+00
     13  0.676556D-02 -0.396442D-02  0.144772D+00
     14  0.342472D-03 -0.893073D-03  0.104587D+00  0.166458D+00
     15  0.204688D-01 -0.148585D-01 -0.833497D-01 -0.946828D-01  0.119325D+00
     16 -0.253427D-03  0.414564D-04  0.120290D-02  0.122384D-03  0.466195D-04
     17  0.281124D-03  0.727879D-04 -0.440199D-03 -0.328211D-03  0.199855D-03
     18  0.702058D-03  0.249904D-03  0.171997D-03 -0.621368D-04  0.784179D-04
     19  0.361931D-03 -0.123704D-03 -0.324854D-04  0.456394D-04  0.127470D-03
     20 -0.197152D-03  0.409074D-03  0.104800D-03 -0.547775D-05  0.125104D-03
     21 -0.303582D-03  0.255556D-03  0.000000D+00 -0.264541D-04 -0.103266D-03
     22 -0.134165D-03 -0.474068D-04  0.394244D-03 -0.130098D-03 -0.120642D-03
     23  0.449793D-04  0.626598D-04 -0.120992D-03  0.218286D-03 -0.190477D-03
     24 -0.283818D-03  0.227200D-03 -0.349622D-03 -0.101446D-03  0.172693D-04
     25  0.122704D-03  0.286172D-04 -0.690575D-04  0.557339D-03 -0.377286D-04
     26  0.256633D-04 -0.727391D-04  0.104670D-02  0.178678D-04 -0.226418D-03
     27  0.389068D-04 -0.269647D-04 -0.133754D-03 -0.153201D-03  0.393386D-03
     28  0.563284D-03  0.186188D-02 -0.101332D-03 -0.422127D-03  0.930190D-03
     29 -0.265800D-02  0.170183D-02 -0.821679D-03 -0.407130D-05 -0.500022D-03
     30 -0.180503D-02  0.699332D-03  0.241448D-02  0.990945D-04  0.285298D-03
     31  0.265890D-03 -0.750429D-04  0.180253D-04 -0.399136D-04  0.576662D-04
     32  0.323699D-03 -0.422754D-04  0.558571D-04 -0.815608D-05  0.879423D-04
     33  0.256592D-04  0.235997D-03 -0.261453D-03 -0.271148D-04  0.162676D-03
     34  0.394600D-04 -0.142338D-02 -0.803921D-02  0.261860D-02 -0.191610D-02
     35  0.694550D-03 -0.111999D-02  0.114127D-02  0.182166D-02 -0.325431D-03
     36 -0.752229D-03  0.173623D-02 -0.179383D-02 -0.110525D-03  0.101893D-02
     37 -0.152639D-02 -0.162343D-03  0.427425D-03 -0.172240D-03 -0.817906D-04
     38  0.101068D-02 -0.105006D-03 -0.400705D-03 -0.194011D-03  0.000000D+00
     39  0.612224D-03  0.120140D-03 -0.844687D-03 -0.370906D-03 -0.273686D-03
     40  0.768368D-03  0.195997D-03 -0.286769D-03  0.276852D-03  0.129819D-03
     41  0.540294D-03  0.312110D-03  0.136599D-03  0.392282D-03  0.187747D-03
     42 -0.761884D-04 -0.966149D-04  0.169569D-03  0.256015D-03  0.992176D-04
               16            17            18            19            20
     16  0.579587D+00
     17  0.165708D-01  0.483615D+00
     18  0.489604D-02 -0.205838D-01  0.547266D+00
     19 -0.619908D-01 -0.936417D-02 -0.593555D-01  0.622697D-01
     20 -0.971241D-02 -0.525194D-01 -0.401499D-01  0.977051D-02  0.582150D-01
     21 -0.594666D-01 -0.404830D-01 -0.282814D+00  0.653850D-01  0.473513D-01
     22 -0.300950D+00  0.452758D-01 -0.315776D-01 -0.647223D-02  0.769123D-03
     23  0.409114D-01 -0.540680D-01  0.507404D-02 -0.540926D-02  0.146305D-03
     24 -0.325565D-01  0.491818D-02 -0.505432D-01 -0.308824D-01  0.550707D-02
     25 -0.116624D+00 -0.840357D-01  0.778813D-01  0.394357D-02  0.620153D-02
     26 -0.829893D-01 -0.151660D+00  0.942166D-01  0.387308D-02  0.387320D-02
     27  0.777629D-01  0.949514D-01 -0.132321D+00  0.166964D-01  0.199804D-01
     28  0.220425D-02 -0.468786D-02  0.145210D-01 -0.107992D-02  0.554130D-02
     29 -0.902727D-02 -0.133098D-01 -0.218159D-01  0.218798D-03 -0.177116D-02
     30  0.212625D-02 -0.418575D-03 -0.745043D-02 -0.111335D-02 -0.163585D-02
     31  0.315034D-03  0.851507D-03  0.103488D-02  0.383860D-03 -0.986235D-04
     32 -0.601526D-03  0.123850D-02  0.936223D-03  0.387836D-03  0.638269D-04
     33 -0.111448D-02  0.298420D-04  0.311957D-03  0.265817D-03  0.377458D-04
     34 -0.183308D-02 -0.684618D-02 -0.322292D-02  0.475641D-03 -0.279218D-03
     35 -0.247496D-01 -0.278376D-01  0.272794D-01 -0.313042D-03  0.324889D-02
     36 -0.328428D-02 -0.431312D-02  0.115323D-01 -0.532116D-03  0.398182D-02
     37  0.340884D-03  0.586640D-03 -0.319849D-02  0.260558D-03 -0.107712D-02
     38 -0.267276D-02  0.218035D-02 -0.594121D-02  0.415152D-03 -0.254440D-02
     39 -0.196327D-02  0.395447D-03 -0.104289D-02  0.734928D-03 -0.663037D-03
     40 -0.110485D-02 -0.335853D-03 -0.681017D-04  0.848760D-04 -0.134790D-03
     41 -0.351974D-04 -0.243102D-03 -0.308876D-04 -0.136759D-03  0.114214D-03
     42 -0.595290D-04  0.282393D-03 -0.703109D-03 -0.456057D-04 -0.202519D-03
               21            22            23            24            25
     21  0.307509D+00
     22 -0.637868D-03  0.325946D+00
     23  0.773190D-04 -0.492665D-01  0.590502D-01
     24 -0.276445D-02  0.347695D-01 -0.335920D-02  0.509085D-01
     25 -0.464219D-02 -0.139309D-01 -0.202148D-01  0.184156D-01  0.123063D+00
     26 -0.296857D-02  0.272365D-02  0.405109D-02 -0.452411D-02  0.933397D-01
     27 -0.168897D-01 -0.231569D-02 -0.421415D-02  0.227729D-02 -0.862313D-01
     28  0.278164D-02 -0.361013D-03  0.246227D-02  0.133439D-02 -0.109689D-03
     29  0.186052D-02 -0.114209D-02  0.491321D-03 -0.847609D-03 -0.250428D-03
     30  0.123585D-02 -0.421034D-03 -0.709792D-03  0.948069D-03  0.419678D-03
     31  0.256617D-04  0.717162D-03 -0.782091D-03 -0.255969D-03  0.384925D-04
     32  0.157496D-03  0.448292D-03  0.917092D-04 -0.299393D-04 -0.191860D-03
     33  0.426968D-04  0.163019D-03 -0.419487D-03 -0.290500D-03  0.158306D-03
     34 -0.107127D-02  0.202996D-02 -0.774128D-03 -0.456138D-03  0.174968D-02
     35 -0.144343D-02 -0.520727D-03  0.257779D-02  0.793784D-03  0.168717D-02
     36  0.205395D-02 -0.549800D-03  0.119317D-02 -0.593461D-03 -0.421089D-03
     37  0.143787D-03  0.342027D-03 -0.546681D-03 -0.236308D-03  0.240600D-05
     38 -0.104573D-02  0.416780D-04  0.519105D-03  0.393643D-03 -0.242073D-03
     39 -0.155430D-03  0.379302D-03  0.935299D-04 -0.117265D-03 -0.243738D-03
     40 -0.169593D-03 -0.101497D-03  0.177858D-03 -0.193146D-04  0.183496D-04
     41  0.130986D-04 -0.229676D-03  0.129791D-03  0.204673D-04  0.750359D-04
     42 -0.674853D-04 -0.356475D-04  0.591243D-04  0.888441D-04 -0.198860D-04
               26            27            28            29            30
     26  0.165407D+00
     27 -0.103811D+00  0.140869D+00
     28 -0.141568D-02 -0.457223D-03  0.540398D+00
     29  0.478383D-03  0.930967D-03 -0.126706D+00  0.502968D+00
     30  0.220624D-02  0.635247D-03  0.175476D+00  0.711600D-01  0.505355D+00
     31 -0.149953D-03 -0.588619D-04 -0.229553D+00  0.978889D-01 -0.887795D-01
     32 -0.907811D-04 -0.235034D-04  0.900791D-01 -0.966773D-01  0.430248D-01
     33 -0.305655D-03 -0.663515D-04 -0.862560D-01  0.498843D-01 -0.848788D-01
     34  0.795896D-03 -0.724839D-03 -0.492336D-01  0.142093D-01  0.255286D-01
     35 -0.766509D-02 -0.370862D-02  0.178420D-01 -0.710337D-01  0.608533D-01
     36 -0.298206D-02  0.628925D-03 -0.912665D-02  0.300601D-01 -0.208663D+00
     37  0.565120D-03  0.131362D-03 -0.863530D-01  0.598690D-01  0.146486D-01
     38 -0.236064D-03  0.286753D-03  0.500169D-01 -0.204267D+00 -0.917699D-01
     39 -0.834312D-03  0.124794D-03 -0.378203D-03 -0.494683D-01 -0.129777D+00
     40 -0.340117D-03  0.683172D-05 -0.136387D-01  0.147499D-01 -0.532199D-02
     41  0.446813D-04 -0.275574D-04  0.243046D-01 -0.307270D-01  0.211372D-01
     42  0.226186D-03  0.301620D-04  0.156319D-01 -0.234639D-01  0.132818D-01
               31            32            33            34            35
     31  0.232756D+00
     32 -0.109936D+00  0.113677D+00
     33  0.953555D-01 -0.420739D-01  0.104408D+00
     34  0.139255D-01  0.749710D-02 -0.253143D-01  0.153067D+00
     35 -0.664409D-02 -0.139822D-04  0.743786D-02  0.573418D-01  0.173889D+00
     36  0.395818D-03  0.541860D-02 -0.222374D-01 -0.559172D-01 -0.759055D-01
     37 -0.435773D-02  0.254746D-01  0.146452D-01  0.269169D-02  0.572531D-02
     38  0.888187D-02 -0.241299D-01 -0.150995D-01  0.983630D-03  0.172887D-01
     39 -0.162018D-02  0.421040D-02  0.926042D-02  0.953157D-02 -0.385465D-01
     40 -0.283412D-03  0.366593D-02  0.262546D-02  0.334666D-03 -0.351876D-02
     41 -0.383920D-03 -0.214814D-02 -0.334726D-02 -0.272102D-02  0.549735D-02
     42  0.171019D-02 -0.367541D-02 -0.159547D-02  0.100863D-02  0.457523D-02
               36            37            38            39            40
     36  0.311361D+00
     37  0.129373D-01  0.206128D+00
     38 -0.191390D-01 -0.233215D+00  0.447622D+00
     39 -0.427189D-01  0.131202D+00 -0.489339D-01  0.383899D+00
     40 -0.402258D-02 -0.132658D+00  0.165696D+00 -0.140634D+00  0.145445D+00
     41  0.984146D-03  0.156938D+00 -0.212385D+00  0.144291D+00 -0.178323D+00
     42  0.111941D-03 -0.165084D+00  0.190246D+00 -0.208122D+00  0.148972D+00
               41            42
     41  0.240364D+00
     42 -0.164028D+00  0.196006D+00
 FrcOut:
 IF    =  1026 IFX   =  1068 IFXYZ =  1110
 IFFX  =  1152 IFFFX =  2055 IFLen =    42
 IFFLen=   903 IFFFLn=     0 IEDerv=  2055
 LEDerv=  2069 IFroze=  4128 ICStrt= 53261
 DipoleDeriv   = 3.85143837D-01-1.49679952D-02-6.50763239D-02
                 2.91959749D-02 4.37360190D-01-1.41021766D-02
                -1.43892116D-01-1.28406375D-01 8.04347161D-02
                -4.76141935D-02 4.36801873D-02 1.64687839D-02
                 6.20687285D-02 6.42724476D-03-2.74557140D-02
                -4.25159046D-02-2.52157845D-02 1.14257577D-01
                 4.21751476D-02 6.14827861D-03 2.55664237D-03
                 6.33713210D-02-1.28026087D-01-6.69030148D-02
                 2.84032263D-02-7.71107978D-02 4.82919353D-02
                 9.56657434D-03-1.21393275D-02-2.42133943D-02
                 1.44250143D-02 7.55590227D-02-1.52157501D-02
                -8.35359021D-02-1.17116212D-02-1.21017862D-01
                -1.90773796D-02-6.01029814D-02 2.90580447D-02
                -9.17858396D-02-1.56537141D-02 7.21524191D-02
                 6.09536137D-02 7.21269498D-02 2.13181638D-02
                 9.60994490D-03 6.32600159D-02-5.28742579D-03
                 3.64832015D-02-4.39008907D-02-1.11214020D-02
                -3.69552513D-04-6.20009270D-02 1.28203932D-01
                 6.02976559D-02 3.30535428D-04-5.99116243D-02
                -6.68208457D-03 1.48432789D-02-8.16654205D-03
                -5.24715635D-02-7.92378833D-02-1.28645297D-01
                -1.23391029D-01 6.68470828D-02-2.11883766D-02
                 1.07170467D-02 3.55605929D-02-9.68404130D-03
                -3.36922755D-02-3.17506169D-03 6.76994437D-02
                 1.39433625D-02-8.01289041D-02 7.06138635D-02
                -5.71147218D-02-4.07101793D-02 3.62378351D-02
                 6.89918360D-02 7.79362713D-02-1.32006071D-03
                 4.98168752D-01-6.99574864D-02-5.48530142D-02
                 2.71439883D-02 9.34544400D-01 3.90979173D-01
                 9.86349276D-02 4.37654748D-01 9.40862245D-01
                -7.20658276D-02 6.92867482D-02-9.63912199D-02
                 6.07483633D-02-1.04264874D-02-8.31181637D-03
                -6.15683418D-02 6.65403296D-03-1.16762881D-03
                -5.71929250D-01-1.67418387D-01 8.21405315D-02
                -1.61499713D-01-6.84145910D-01 1.02234652D-01
                 2.04004168D-01 6.23440684D-02-7.51573111D-01
                -4.47858128D-01 9.76895045D-02 1.83369818D-01
                -4.90383452D-02-9.35054672D-01-4.67425620D-01
                 2.03636747D-02-3.58328254D-01-5.97673375D-01
                 2.63030534D-01 5.74727286D-02-5.72863053D-02
                 6.19670650D-02 3.53623210D-01 2.67819975D-02
                -6.33057903D-02 8.84706341D-02 2.00329322D-01
 Full mass-weighted force constant matrix:
 Low frequencies ---  -11.6962   -0.0004   -0.0001    0.0005    2.0846    9.1572
 Low frequencies ---  146.6406  179.4892  201.6722
 Dipole derivatives wrt mode   1:  1.82436D+00  4.28027D-01 -6.37129D-01
 Vibrational polarizability contributions from mode   1       4.1668523       0.2293648       0.5082070
 Vibrational hyperpolarizability contributions from mode   1       0.0000000       0.0000000       0.0000000
 Dipole derivatives wrt mode   2: -3.22452D+00 -1.35101D+00  1.55530D+00
 Vibrational polarizability contributions from mode   2       8.6855811       1.5247077       2.0206829
 Vibrational hyperpolarizability contributions from mode   2       0.0000000       0.0000000       0.0000000
 Dipole derivatives wrt mode   3: -4.11788D+00 -1.24646D+00  1.83005D+00
 Vibrational polarizability contributions from mode   3      11.2209074       1.0280979       2.2161869
 Vibrational hyperpolarizability contributions from mode   3       0.0000000       0.0000000       0.0000000
 Dipole derivatives wrt mode   4:  5.30616D+00  3.51559D+00 -2.38407D+00
 Vibrational polarizability contributions from mode   4      10.2984854       4.5207402       2.0789875
 Vibrational hyperpolarizability contributions from mode   4       0.0000000       0.0000000       0.0000000
 Dipole derivatives wrt mode   5:  3.18667D+00  1.56105D+00 -2.48409D-02
 Vibrational polarizability contributions from mode   5       3.2815077       0.7874649       0.0001994
 Vibrational hyperpolarizability contributions from mode   5       0.0000000       0.0000000       0.0000000
 Dipole derivatives wrt mode   6: -2.61882D+00 -5.16456D-01  1.10979D+00
 Vibrational polarizability contributions from mode   6       1.3643269       0.0530609       0.2450122
 Vibrational hyperpolarizability contributions from mode   6       0.0000000       0.0000000       0.0000000
 Dipole derivatives wrt mode   7:  3.53952D+00  5.17422D-01 -1.22949D+00
 Vibrational polarizability contributions from mode   7       2.0993657       0.0448630       0.2533080
 Vibrational hyperpolarizability contributions from mode   7       0.0000000       0.0000000       0.0000000
 Dipole derivatives wrt mode   8:  1.21600D+00  2.18406D+00  3.80024D-01
 Vibrational polarizability contributions from mode   8       0.1413020       0.4558404       0.0138008
 Vibrational hyperpolarizability contributions from mode   8       0.0000000       0.0000000       0.0000000
 Dipole derivatives wrt mode   9:  4.06978D-01  5.43484D+00  5.63519D-01
 Vibrational polarizability contributions from mode   9       0.0144301       2.5733732       0.0276660
 Vibrational hyperpolarizability contributions from mode   9       0.0000000       0.0000000       0.0000000
 Dipole derivatives wrt mode  10:  1.63529D+00  1.36669D+00  2.07643D+00
 Vibrational polarizability contributions from mode  10       0.1510797       0.1055252       0.2435867
 Vibrational hyperpolarizability contributions from mode  10       0.0000000       0.0000000       0.0000000
 Dipole derivatives wrt mode  11: -5.27656D+00 -1.99094D+00  2.36526D+00
 Vibrational polarizability contributions from mode  11       1.1951505       0.1701524       0.2401483
 Vibrational hyperpolarizability contributions from mode  11       0.0000000       0.0000000       0.0000000
 Dipole derivatives wrt mode  12: -1.03518D+00 -2.69876D+00  3.68347D+00
 Vibrational polarizability contributions from mode  12       0.0347095       0.2359098       0.4394733
 Vibrational hyperpolarizability contributions from mode  12       0.0000000       0.0000000       0.0000000
 Dipole derivatives wrt mode  13: -8.76267D-01 -1.15036D-02  6.33080D-01
 Vibrational polarizability contributions from mode  13       0.0226573       0.0000039       0.0118264
 Vibrational hyperpolarizability contributions from mode  13       0.0000000       0.0000000       0.0000000
 Dipole derivatives wrt mode  14: -1.05371D+00 -3.40726D+00 -6.88820D-01
 Vibrational polarizability contributions from mode  14       0.0299298       0.3129485       0.0127901
 Vibrational hyperpolarizability contributions from mode  14       0.0000000       0.0000000       0.0000000
 Dipole derivatives wrt mode  15: -4.89050D-01  6.85852D+00  1.17934D+00
 Vibrational polarizability contributions from mode  15       0.0059526       1.1707444       0.0346162
 Vibrational hyperpolarizability contributions from mode  15       0.0000000       0.0000000       0.0000000
 Dipole derivatives wrt mode  16: -7.33873D-01 -6.69053D+00 -2.27772D+00
 Vibrational polarizability contributions from mode  16       0.0115379       0.9589703       0.1111434
 Vibrational hyperpolarizability contributions from mode  16       0.0000000       0.0000000       0.0000000
 Dipole derivatives wrt mode  17:  2.16608D+00  8.95925D+00  6.33286D+00
 Vibrational polarizability contributions from mode  17       0.0960734       1.6436062       0.8212108
 Vibrational hyperpolarizability contributions from mode  17       0.0000000       0.0000000       0.0000000
 Dipole derivatives wrt mode  18: -1.29510D+00  3.69871D+00  7.09998D+00
 Vibrational polarizability contributions from mode  18       0.0334543       0.2728651       1.0054564
 Vibrational hyperpolarizability contributions from mode  18       0.0000000       0.0000000       0.0000000
 Dipole derivatives wrt mode  19: -1.44212D+00  1.78351D+00 -7.92689D-01
 Vibrational polarizability contributions from mode  19       0.0354563       0.0542306       0.0107127
 Vibrational hyperpolarizability contributions from mode  19       0.0000000       0.0000000       0.0000000
 Dipole derivatives wrt mode  20: -1.09253D+00  1.69984D+00  2.19802D+00
 Vibrational polarizability contributions from mode  20       0.0189407       0.0458507       0.0766640
 Vibrational hyperpolarizability contributions from mode  20       0.0000000       0.0000000       0.0000000
 Dipole derivatives wrt mode  21: -1.46687D+00 -1.35947D+00  3.52133D-02
 Vibrational polarizability contributions from mode  21       0.0308927       0.0265347       0.0000178
 Vibrational hyperpolarizability contributions from mode  21       0.0000000       0.0000000       0.0000000
 Dipole derivatives wrt mode  22:  2.04067D+00 -3.38197D+00 -4.08872D-01
 Vibrational polarizability contributions from mode  22       0.0561578       0.1542419       0.0022544
 Vibrational hyperpolarizability contributions from mode  22       0.0000000       0.0000000       0.0000000
 Dipole derivatives wrt mode  23:  2.64314D+00 -7.66080D-01 -4.14425D-01
 Vibrational polarizability contributions from mode  23       0.0924931       0.0077699       0.0022738
 Vibrational hyperpolarizability contributions from mode  23       0.0000000       0.0000000       0.0000000
 Dipole derivatives wrt mode  24: -8.53582D-01  3.63140D+00  4.73345D+00
 Vibrational polarizability contributions from mode  24       0.0091098       0.1648796       0.2801390
 Vibrational hyperpolarizability contributions from mode  24       0.0000000       0.0000000       0.0000000
 Dipole derivatives wrt mode  25: -5.57784D-01 -1.71828D-01 -8.11861D-01
 Vibrational polarizability contributions from mode  25       0.0038420       0.0003646       0.0081393
 Vibrational hyperpolarizability contributions from mode  25       0.0000000       0.0000000       0.0000000
 Dipole derivatives wrt mode  26: -1.26963D+00  1.32858D+00 -5.13441D-01
 Vibrational polarizability contributions from mode  26       0.0196713       0.0215406       0.0032171
 Vibrational hyperpolarizability contributions from mode  26       0.0000000       0.0000000       0.0000000
 Dipole derivatives wrt mode  27: -1.17365D+00 -4.98097D-01  3.84592D+00
 Vibrational polarizability contributions from mode  27       0.0164727       0.0029670       0.1768822
 Vibrational hyperpolarizability contributions from mode  27       0.0000000       0.0000000       0.0000000
 Dipole derivatives wrt mode  28: -2.72321D-01 -3.92456D+00 -5.82238D+00
 Vibrational polarizability contributions from mode  28       0.0008654       0.1797470       0.3956213
 Vibrational hyperpolarizability contributions from mode  28       0.0000000       0.0000000       0.0000000
 Dipole derivatives wrt mode  29:  9.83371D-01 -4.00093D+00 -1.31011D+00
 Vibrational polarizability contributions from mode  29       0.0028425       0.0470532       0.0050453
 Vibrational hyperpolarizability contributions from mode  29       0.0000000       0.0000000       0.0000000
 Dipole derivatives wrt mode  30: -4.08268D+00 -1.06144D+00 -1.41437D+00
 Vibrational polarizability contributions from mode  30       0.0487351       0.0032942       0.0058490
 Vibrational hyperpolarizability contributions from mode  30       0.0000000       0.0000000       0.0000000
 Dipole derivatives wrt mode  31:  3.55021D-02  5.02776D-01 -2.93257D+00
 Vibrational polarizability contributions from mode  31       0.0000036       0.0007148       0.0243197
 Vibrational hyperpolarizability contributions from mode  31       0.0000000       0.0000000       0.0000000
 Dipole derivatives wrt mode  32:  5.48343D-01  1.82215D+00 -5.38624D+00
 Vibrational polarizability contributions from mode  32       0.0008461       0.0093429       0.0816365
 Vibrational hyperpolarizability contributions from mode  32       0.0000000       0.0000000       0.0000000
 Dipole derivatives wrt mode  33: -3.31897D+00  5.67978D-01  9.70396D-01
 Vibrational polarizability contributions from mode  33       0.0306780       0.0008984       0.0026225
 Vibrational hyperpolarizability contributions from mode  33       0.0000000       0.0000000       0.0000000
 Dipole derivatives wrt mode  34: -1.97014D+00 -4.65141D+00 -1.96809D+00
 Vibrational polarizability contributions from mode  34       0.0107945       0.0601699       0.0107721
 Vibrational hyperpolarizability contributions from mode  34       0.0000000       0.0000000       0.0000000
 Dipole derivatives wrt mode  35: -5.04783D+00  3.16591D+00 -2.46267D+00
 Vibrational polarizability contributions from mode  35       0.0705177       0.0277387       0.0167842
 Vibrational hyperpolarizability contributions from mode  35       0.0000000       0.0000000       0.0000000
 Dipole derivatives wrt mode  36: -2.11497D+00  5.26606D+00 -1.80344D+00
 Vibrational polarizability contributions from mode  36       0.0082409       0.0510902       0.0059919
 Vibrational hyperpolarizability contributions from mode  36       0.0000000       0.0000000       0.0000000
 Diagonal vibrational polarizability:
       43.3098638      16.9466678      11.3932452
 Harmonic frequencies (cm**-1), IR intensities (KM/Mole), Raman scattering
 activities (A**4/AMU), depolarization ratios for plane and unpolarized
 incident light, reduced masses (AMU), force constants (mDyne/A),
 and normal coordinates:
                           1         2         3         4         5
                           A         A         A         A         A
       Frequencies ---   146.6135  179.4867  201.6632  271.2438  288.5805
    Reduced masses ---     1.0269    1.3138    1.5571    1.4999    3.0532
   Force constants ---     0.0130    0.0249    0.0373    0.0650    0.1498
    IR Intensities ---     3.9174   14.6417   21.8597   46.1984   12.5924
 Coord Atom Element:
   1     1     6         -0.00222   0.00174  -0.02824  -0.06621   0.03821
   2     1     6         -0.01044   0.02333   0.00716   0.00118   0.02256
   3     1     6          0.01124  -0.02700   0.01526  -0.00438  -0.08631
   1     2     6          0.00313   0.00140  -0.03328  -0.06302   0.05776
   2     2     6          0.00761   0.00693  -0.03144  -0.03221   0.12122
   3     2     6          0.00008  -0.08360  -0.08441  -0.08440   0.06263
   1     3     1         -0.08257  -0.02107  -0.13436  -0.03914   0.19599
   2     3     1         -0.19819   0.05262  -0.09653   0.00381   0.09355
   3     3     1          0.48733  -0.20761   0.04388  -0.16837   0.19142
   1     4     1          0.16091   0.03238   0.11860  -0.02051  -0.04453
   2     4     1          0.52194  -0.10074   0.13988  -0.13182   0.25913
   3     4     1         -0.05564  -0.09061  -0.13252  -0.09583   0.09058
   1     5     1         -0.05710  -0.01514  -0.08991  -0.08136   0.04719
   2     5     1         -0.28861   0.06389  -0.14408   0.01335   0.12586
   3     5     1         -0.44606  -0.02991  -0.29487  -0.04720   0.05533
   1     6     6          0.00032  -0.00751   0.01672   0.06791   0.03363
   2     6     6         -0.00904  -0.00596   0.00206   0.02151  -0.03574
   3     6     6          0.00921   0.07527   0.06476   0.03415   0.16582
   1     7     1         -0.16797  -0.42005   0.39922   0.09393   0.29655
   2     7     1         -0.06735  -0.24518   0.08010  -0.05689  -0.24041
   3     7     1          0.06143   0.22205  -0.04441   0.04311   0.14108
   1     8     1          0.03154   0.06485  -0.04472   0.09001  -0.01841
   2     8     1          0.04969   0.13560  -0.08269   0.14746  -0.10544
   3     8     1         -0.16201  -0.31895   0.45182   0.04591   0.50473
   1     9     1          0.13823   0.32303  -0.26196   0.14858  -0.18361
   2     9     1         -0.00778   0.05977   0.00392  -0.01319   0.13956
   3     9     1          0.13478   0.44875  -0.18507   0.06851   0.16825
   1    10     6          0.00402  -0.00048  -0.00042  -0.03136   0.03465
   2    10     6         -0.00209   0.00793   0.02461  -0.03759  -0.00761
   3    10     6          0.00354  -0.02266  -0.02049   0.00586  -0.11886
   1    11     1          0.00565   0.01169   0.01971  -0.05198   0.09050
   2    11     1          0.00617  -0.00343   0.00451  -0.13599   0.01327
   3    11     1          0.01055  -0.06127  -0.08373  -0.05088  -0.20280
   1    12     8         -0.00370  -0.01553  -0.07137  -0.06974  -0.01956
   2    12     8         -0.00859   0.03573   0.01338   0.03169   0.08704
   3    12     8          0.00706  -0.02855  -0.03035   0.02620  -0.11836
   1    13     8         -0.00935   0.04018   0.12925   0.08084  -0.14627
   2    13     8          0.01429  -0.04684   0.00326  -0.00967  -0.18725
   3    13     8         -0.02165   0.05939   0.04629   0.03409   0.04269
   1    14     1          0.11599  -0.30918  -0.38673   0.78776   0.29236
   2    14     1          0.05987  -0.16994  -0.19778   0.38472   0.10901
   3    14     1         -0.08531   0.23854   0.28830  -0.17138  -0.02496
                           6         7         8         9        10
                           A         A         A         A         A
       Frequencies ---   367.8009  400.7444  530.6709  555.7791  690.1716
    Reduced masses ---     2.1789    2.7127    3.4041    4.2900    4.9793
   Force constants ---     0.1737    0.2567    0.5648    0.7807    1.3975
    IR Intensities ---     8.3566   14.3076    6.3932   30.0207    8.8535
 Coord Atom Element:
   1     1     6         -0.08478   0.03937  -0.03144  -0.00041   0.11746
   2     1     6         -0.02361  -0.13078   0.08067  -0.00134   0.12075
   3     1     6          0.00262   0.15545   0.22522  -0.04325  -0.13676
   1     2     6         -0.05171   0.13975  -0.05524  -0.01811   0.29043
   2     2     6          0.16276   0.09240  -0.03054  -0.00969  -0.05258
   3     2     6          0.04749  -0.04749  -0.02289   0.00425   0.01259
   1     3     1          0.14317   0.34637  -0.32613   0.00995   0.23412
   2     3     1          0.19523   0.19857  -0.01280  -0.04464  -0.08337
   3     3     1          0.06368  -0.22807  -0.20456   0.10902   0.05972
   1     4     1         -0.11750   0.39776   0.30078  -0.13924   0.20773
   2     4     1          0.24743   0.08089  -0.21110   0.03975  -0.05817
   3     4     1          0.06634  -0.12454  -0.12509   0.03963   0.03767
   1     5     1         -0.15471  -0.19617  -0.11897   0.06882   0.44294
   2     5     1          0.28557   0.34041  -0.08986  -0.06091  -0.14549
   3     5     1          0.08577  -0.12213  -0.17367   0.04111   0.06063
   1     6     6          0.18352   0.00682  -0.02757   0.01082  -0.03062
   2     6     6          0.03945  -0.10612   0.23839  -0.02134   0.21967
   3     6     6         -0.00215  -0.05853   0.06058  -0.03790   0.03750
   1     7     1          0.28538  -0.08948  -0.05262  -0.00987  -0.08648
   2     7     1         -0.00695   0.10798   0.49074   0.08870   0.17961
   3     7     1         -0.01815  -0.07558   0.01870  -0.05643   0.05876
   1     8     1          0.24773   0.01435  -0.00271   0.03126  -0.05639
   2     8     1          0.38920  -0.15519   0.30732   0.03867   0.09009
   3     8     1          0.00392  -0.19168  -0.05909  -0.11876   0.04014
   1     9     1          0.40604   0.04011   0.05649   0.06913  -0.14496
   2     9     1         -0.15954  -0.21338   0.03921  -0.12248   0.38899
   3     9     1         -0.02593  -0.15015  -0.08997  -0.10387   0.11700
   1    10     6         -0.07024   0.06313   0.16853  -0.07622  -0.15073
   2    10     6         -0.06608   0.06198   0.00030   0.18401  -0.13179
   3    10     6          0.00767   0.00067  -0.03876  -0.06437   0.17948
   1    11     1         -0.12714   0.23461   0.22389  -0.09406  -0.16415
   2    11     1         -0.11638   0.24451   0.05521   0.19235  -0.20175
   3    11     1          0.05839  -0.13091  -0.08701  -0.03624   0.09591
   1    12     8         -0.02246  -0.20121   0.03449   0.08410  -0.21928
   2    12     8         -0.11353  -0.00625  -0.11343  -0.24419  -0.14265
   3    12     8         -0.00511  -0.00373  -0.08085  -0.18823  -0.08404
   1    13     8          0.01568  -0.03749  -0.08549  -0.03246   0.02016
   2    13     8         -0.01169   0.02527  -0.13412   0.08806   0.01828
   3    13     8         -0.05381   0.03132  -0.03357   0.26973  -0.00911
   1    14     1         -0.29887   0.07533   0.08238   0.24347   0.02998
   2    14     1         -0.18702   0.07687  -0.08894   0.54087  -0.05404
   3    14     1          0.03875  -0.01135  -0.13229   0.51405  -0.09662
                          11        12        13        14        15
                           A         A         A         A         A
[...]
     38  0.102351D-02  0.699332D-03  0.285298D-03 -0.745043D-02  0.123585D-02
     39 -0.169098D-03  0.235997D-03  0.162676D-03  0.311957D-03  0.426968D-04
     40 -0.970941D-03  0.173623D-02  0.101893D-02  0.115323D-01  0.205395D-02
     41 -0.629077D-03  0.120140D-03 -0.273686D-03 -0.104289D-02 -0.155430D-03
     42  0.682916D-03 -0.966149D-04  0.992176D-04 -0.703109D-03 -0.674853D-04
               36            37            38            39            40
     36  0.509085D-01
     37  0.227729D-02  0.140869D+00
     38  0.948069D-03  0.635247D-03  0.505355D+00
     39 -0.290500D-03 -0.663515D-04 -0.848788D-01  0.104408D+00
     40 -0.593461D-03  0.628925D-03 -0.208663D+00 -0.222374D-01  0.311361D+00
     41 -0.117265D-03  0.124794D-03 -0.129777D+00  0.926042D-02 -0.427189D-01
     42  0.888441D-04  0.301620D-04  0.132818D-01 -0.159547D-02  0.111941D-03
               41            42
     41  0.383899D+00
     42 -0.208122D+00  0.196006D+00
 Final forces over variables, Energy=-3.07741319D+02:
  2.13965888D-06-1.58018489D-07 2.24809528D-06 2.89177366D-06
 -1.31466288D-06 1.79129371D-06 2.65385139D-06 4.89091887D-07
 -8.93905690D-07 2.44968578D-06 2.45982678D-06 1.07728991D-06
 -1.49034414D-05-9.30538855D-07 6.36308141D-06-1.66559482D-06
  4.50676019D-06 1.43959925D-06-1.66667069D-06-7.78557564D-07
  3.81173187D-07 8.38191037D-08-6.61682248D-07-2.26494340D-06
 -2.96013814D-06-5.88360156D-06 5.02230285D-06-1.91554752D-06
 -2.88123142D-06 2.25002598D-06-7.00723860D-06-3.52860127D-06
 -4.60958736D-06 2.41503893D-06-5.27220778D-07 2.77482548D-06
 -6.64746077D-07 9.84572372D-06-1.35815662D-06-3.32494661D-07
 -4.38167075D-06 8.00533300D-06

 GradGradGradGradGradGradGradGradGradGradGradGradGradGradGradGradGradGrad
 Berny optimization.
 Search for a local minimum.
 Step number   1 out of a maximum of   2
 All quantities printed in internal units (Hartrees-Bohrs-Radians)
 Second derivative matrix not updated -- analytic derivatives used.
     Eigenvalues ---    0.00085   0.00150   0.00259   0.00788   0.01079
     Eigenvalues ---    0.01520   0.01768   0.03269   0.04996   0.05453
     Eigenvalues ---    0.06021   0.06501   0.07458   0.09389   0.10237
     Eigenvalues ---    0.10554   0.11081   0.12561   0.14762   0.18312
     Eigenvalues ---    0.19299   0.22515   0.26451   0.29107   0.41210
     Eigenvalues ---    0.47878   0.52191   0.65601   0.71745   0.73812
     Eigenvalues ---    0.75675   0.79427   0.81175   0.84424   1.01015
     Eigenvalues ---    1.07698
 Angle between quadratic step and forces=  80.43 degrees.
 Linear search not attempted -- first point.
 TrRot=  0.000059  0.000006 -0.000018 -0.000004  0.000014 -0.000004
 Variable       Old X    -DE/DX   Delta X   Delta X   Delta X     New X
                                 (Linear)    (Quad)   (Total)
    X1       -0.13816   0.00000   0.00000   0.00006   0.00009  -0.13807
    Y1       -4.46879   0.00001   0.00000   0.00006   0.00007  -4.46872
    Z1        0.53866   0.00000   0.00000  -0.00004  -0.00005   0.53861
    X2       -2.87980   0.00000   0.00000   0.00004   0.00008  -2.87972
    Y2       -3.71984   0.00000   0.00000   0.00006   0.00009  -3.71976
    Z2        0.29178   0.00000   0.00000   0.00000   0.00002   0.29180
    X3       -3.23840   0.00000   0.00000   0.00025   0.00031  -3.23808
    Y3       -1.82958   0.00000   0.00000   0.00057   0.00060  -1.82899
    Z3        1.03277  -0.00001   0.00000  -0.00118  -0.00115   1.03162
    X4       -3.46026   0.00000   0.00000  -0.00019  -0.00019  -3.46044
    Y4       -3.75625   0.00000   0.00000  -0.00099  -0.00096  -3.75722
    Z4       -1.69144   0.00000   0.00000   0.00008   0.00011  -1.69132
    X5       -4.07666   0.00000   0.00000   0.00008   0.00012  -4.07654
    Y5       -5.04161   0.00000   0.00000   0.00072   0.00076  -5.04085
    Z5        1.33692   0.00000   0.00000   0.00088   0.00092   1.33784
    X6        0.48521   0.00000   0.00000  -0.00002  -0.00001   0.48520
    Y6       -7.16906   0.00000   0.00000   0.00003   0.00003  -7.16902
    Z6       -0.14854   0.00000   0.00000   0.00001  -0.00002  -0.14856
    X7       -0.00035   0.00000   0.00000   0.00044   0.00041   0.00006
    Y7       -7.53937   0.00000   0.00000   0.00018   0.00018  -7.53919
    Z7       -2.12458   0.00000   0.00000  -0.00013  -0.00015  -2.12473
    X8        2.49965   0.00000   0.00000  -0.00011  -0.00010   2.49955
    Y8       -7.54130   0.00000   0.00000  -0.00016  -0.00017  -7.54147
    Z8        0.09290   0.00000   0.00000   0.00047   0.00042   0.09332
    X9       -0.57691   0.00000   0.00000  -0.00041  -0.00039  -0.57730
    Y9       -8.49223   0.00000   0.00000   0.00005   0.00006  -8.49217
    Z9        1.03237   0.00000   0.00000  -0.00032  -0.00033   1.03204
   X10        1.59637   0.00000   0.00000   0.00011   0.00017   1.59654
   Y10       -3.01416   0.00000   0.00000   0.00003   0.00003  -3.01413
   Z10        2.16578   0.00001   0.00000  -0.00008  -0.00012   2.16565
   X11        3.22946   0.00000   0.00000   0.00022   0.00030   3.22976
   Y11       -3.93827   0.00000   0.00000   0.00005   0.00003  -3.93824
   Z11        3.00752   0.00000   0.00000  -0.00030  -0.00036   3.00716
   X12        1.67707   0.00000   0.00000  -0.00004   0.00000   1.67707
   Y12       -2.62426  -0.00001   0.00000   0.00003   0.00002  -2.62423
   Z12       -0.47112   0.00000   0.00000  -0.00014  -0.00018  -0.47130
   X13        0.88537  -0.00001   0.00000   0.00019   0.00030   0.88566
   Y13       -0.98569   0.00001   0.00000  -0.00011  -0.00011  -0.98580
   Z13        3.65413   0.00000   0.00000   0.00012   0.00009   3.65423
   X14       -0.05753   0.00000   0.00000  -0.00119  -0.00109  -0.05862
   Y14        0.16094   0.00000   0.00000  -0.00064  -0.00063   0.16032
   Z14        2.59912   0.00001   0.00000   0.00082   0.00080   2.59992
         Item               Value     Threshold  Converged?
 Maximum Force            0.000015     0.000450     YES
 RMS     Force            0.000004     0.000300     YES
 Maximum Displacement     0.001147     0.001800     YES
 RMS     Displacement     0.000424     0.001200     YES
 Predicted change in Energy=-4.243699D-09
 Optimization completed.
    -- Stationary point found.
 GradGradGradGradGradGradGradGradGradGradGradGradGradGradGradGradGradGrad


 Test job not archived.
 1\1\GINC-NODE51\Freq\RB3LYP\CBSB7\C4H8O2\NYEE\15-Jul-2014\0\\# freq no
 symm b3lyp/cbsb7 iop(7/33=1)\\Title Card Required\\0,1\C,-0.073112,-2.
 364783,0.285048\C,-1.523926,-1.968456,0.154402\H,-1.713686,-0.968173,0
 .546517\H,-1.831089,-1.987724,-0.895069\H,-2.157274,-2.667905,0.707467
 \C,0.256763,-3.793701,-0.078605\H,-0.000186,-3.989664,-1.124277\H,1.32
 2757,-3.990684,0.049161\H,-0.305288,-4.493897,0.546305\C,0.844762,-1.5
 95023,1.14608\H,1.708957,-2.084044,1.59151\O,0.887469,-1.388696,-0.249
 306\O,0.468515,-0.521604,1.933684\H,-0.030441,0.085168,1.375395\\Versi
 on=AM64L-G03RevD.01\HF=-307.7413191\RMSD=9.090e-09\RMSF=4.102e-06\Zero
 Point=0.1170257\Thermal=0.1240874\Dipole=-0.5605546,-0.4401088,-0.0406
 834\DipoleDeriv=0.3851438,-0.014968,-0.0650763,0.029196,0.4373602,-0.0
 141022,-0.1438921,-0.1284064,0.0804347,-0.0476142,0.0436802,0.0164688,
 0.0620687,0.0064272,-0.0274557,-0.0425159,-0.0252158,0.1142576,0.04217
 51,0.0061483,0.0025566,0.0633713,-0.1280261,-0.066903,0.0284032,-0.077
 1108,0.0482919,0.0095666,-0.0121393,-0.0242134,0.014425,0.075559,-0.01
 52158,-0.0835359,-0.0117116,-0.1210179,-0.0190774,-0.060103,0.029058,-
 0.0917858,-0.0156537,0.0721524,0.0609536,0.0721269,0.0213182,0.0096099
 ,0.06326,-0.0052874,0.0364832,-0.0439009,-0.0111214,-0.0003696,-0.0620
 009,0.1282039,0.0602977,0.0003305,-0.0599116,-0.0066821,0.0148433,-0.0
 081665,-0.0524716,-0.0792379,-0.1286453,-0.123391,0.0668471,-0.0211884
 ,0.010717,0.0355606,-0.009684,-0.0336923,-0.0031751,0.0676994,0.013943
 4,-0.0801289,0.0706139,-0.0571147,-0.0407102,0.0362378,0.0689918,0.077
 9363,-0.0013201,0.4981688,-0.0699575,-0.054853,0.027144,0.9345444,0.39
 09792,0.0986349,0.4376547,0.9408622,-0.0720658,0.0692867,-0.0963912,0.
 0607484,-0.0104265,-0.0083118,-0.0615683,0.006654,-0.0011676,-0.571929
 3,-0.1674184,0.0821405,-0.1614997,-0.6841459,0.1022347,0.2040042,0.062
 3441,-0.7515731,-0.4478581,0.0976895,0.1833698,-0.0490383,-0.9350547,-
 0.4674256,0.0203637,-0.3583283,-0.5976734,0.2630305,0.0574727,-0.05728
 63,0.0619671,0.3536232,0.026782,-0.0633058,0.0884706,0.2003293\Polar=5
 1.8893057,0.2067687,54.3098264,4.2312929,5.633463,46.781271\PG=C01 [X(
 C4H8O2)]\NImag=0\\0.55190325,0.00516097,0.51304624,0.08411050,0.103699
 13,0.33369794,-0.18622054,0.04356310,-0.01228866,0.48114337,0.04433072
 ,-0.09305686,-0.00092872,0.01491182,0.57513916,-0.02418690,-0.00316200
 ,-0.07748268,-0.00776610,0.00785100,0.55630908,-0.00394577,0.03067068,
 0.01168887,-0.05489213,0.03795362,0.01527212,0.06008920,0.00053395,-0.
 00868783,-0.00050343,0.04046966,-0.26946463,-0.08790664,-0.04308503,0.
 29372284,0.00111102,0.00429333,0.00031847,0.01513130,-0.08883938,-0.08
 080834,-0.01507993,0.09814232,0.08321837,-0.01496616,-0.00289467,-0.03
 491576,-0.06337397,-0.00103183,-0.06690550,0.00056049,-0.00063278,0.00
 515819,0.07144506,0.00215376,0.00003821,0.00962647,-0.00030253,-0.0467
 6598,-0.00493916,-0.00856111,0.00014982,-0.02923472,-0.00026334,0.0461
 6965,-0.00234727,-0.00060865,-0.00251424,-0.06708096,-0.00574706,-0.28
 837378,-0.00224088,0.00010970,-0.01008178,0.07533746,0.00592063,0.3124
 2753,-0.01461781,-0.02168578,0.01645125,-0.13228424,-0.09373790,0.0752
 1615,0.00314775,0.00336985,-0.00372579,0.00546867,0.00676556,-0.003964
 42,0.14477189,0.00311928,0.00443143,-0.00514427,-0.09541232,-0.1552923
 0,0.08554215,-0.01672397,-0.01784994,0.01567465,0.00157395,0.00034247,
 -0.00089307,0.10458662,0.16645816,-0.00194575,-0.00256745,0.00084652,0
 .07591003,0.08510552,-0.11342197,-0.00820474,-0.00768283,0.00643027,0.
 01845464,0.02046878,-0.01485852,-0.08334969,-0.09468278,0.11932546,-0.
 08885718,0.03818063,0.00599121,-0.00721184,0.03177925,0.00830231,-0.00
 591175,0.00247712,-0.00072213,0.00083359,-0.00025343,0.00004146,0.0012
 0290,0.00012238,0.00004662,0.57958725,0.03680696,-0.18061063,-0.030907
 15,0.00713577,-0.00765471,-0.00441801,-0.00021567,0.00091646,0.0002737
 4,-0.00130184,0.00028112,0.00007279,-0.00044020,-0.00032821,0.00019985
 ,0.01657078,0.48361500,0.00204226,-0.04268329,-0.08725017,-0.00190255,
 0.00273674,0.00244964,-0.00111750,0.00032211,0.00023680,-0.00010488,0.
 00070206,0.00024990,0.00017200,-0.00006214,0.00007842,0.00489604,-0.02
 058384,0.54726574,0.00167997,0.00064160,0.00841617,0.00048369,-0.00030
 431,0.00059538,0.00001829,-0.00018699,-0.00016855,-0.00002480,0.000361
 93,-0.00012370,-0.00003249,0.00004564,0.00012747,-0.06199077,-0.009364
 17,-0.05935546,0.06226975,-0.01030824,-0.00989278,-0.03512726,-0.00127
 595,0.00116251,0.00008432,-0.00025984,0.00010640,0.00030180,0.00075893
 ,-0.00019715,0.00040907,0.00010480,-0.00000548,0.00012510,-0.00971241,
 -0.05251939,-0.04014990,0.00977051,0.05821501,-0.00279693,-0.00348620,
 -0.00886847,-0.00014266,0.00032767,0.00032437,0.00004728,-0.00003042,0
 .00024116,0.00054388,-0.00030358,0.00025556,-0.00000020,-0.00002645,-0
 .00010327,-0.05946658,-0.04048298,-0.28281406,0.06538505,0.04735126,0.
 30750929,-0.00820249,0.00015095,-0.00008442,0.00092597,0.00183938,0.00
 075003,-0.00043986,0.00017439,-0.00027175,0.00010235,-0.00013417,-0.00
 004741,0.00039424,-0.00013010,-0.00012064,-0.30095021,0.04527580,-0.03
 157758,-0.00647223,0.00076912,-0.00063787,0.32594649,0.03238494,-0.006
 98047,0.00402163,-0.00039319,-0.00573685,-0.00181407,0.00177508,-0.000
 53530,0.00012571,-0.00020386,0.00004498,0.00006266,-0.00012099,0.00021
 829,-0.00019048,0.04091141,-0.05406798,0.00507404,-0.00540926,0.000146
 31,0.00007732,-0.04926651,0.05905021,0.00943617,-0.00077342,-0.0006335
 8,0.00013662,-0.00130564,0.00003755,0.00033826,-0.00040796,0.00043770,
 0.00032577,-0.00028382,0.00022720,-0.00034962,-0.00010145,0.00001727,-
 0.03255654,0.00491818,-0.05054318,-0.03088241,0.00550707,-0.00276445,0
 .03476950,-0.00335920,0.05090851,0.00203792,0.00316703,-0.00517233,-0.
 00031039,-0.00005440,-0.00006462,0.00014655,-0.00016123,-0.00007061,0.
 00004445,0.00012270,0.00002862,-0.00006906,0.00055734,-0.00003773,-0.1
 1662423,-0.08403568,0.07788135,0.00394357,0.00620153,-0.00464219,-0.01
 393090,-0.02021483,0.01841558,0.12306285,-0.01691595,-0.01547656,0.019
 18186,-0.00052999,0.00081522,0.00020773,-0.00001027,0.00041514,-0.0003
 1374,0.00000716,0.00002566,-0.00007274,0.00104670,0.00001787,-0.000226
 42,-0.08298934,-0.15166001,0.09421662,0.00387308,0.00387320,-0.0029685
 7,0.00272365,0.00405109,-0.00452411,0.09333969,0.16540726,-0.00482797,
 -0.00451625,0.00437807,0.00025684,0.00031408,-0.00010326,-0.00023289,-
 0.00004817,0.00007002,0.00012820,0.00003891,-0.00002696,-0.00013375,-0
 .00015320,0.00039339,0.07776295,0.09495142,-0.13232094,0.01669638,0.01
 998036,-0.01688971,-0.00231569,-0.00421415,0.00227729,-0.08623134,-0.1
 0381103,0.14086933,-0.14302930,-0.05033523,-0.08811813,-0.01505745,-0.
 00744286,-0.02754667,0.00006568,0.00020018,-0.00065427,-0.00415054,0.0
 0056328,0.00186188,-0.00010133,-0.00042213,0.00093019,0.00220425,-0.00
 468786,0.01452096,-0.00107992,0.00554130,0.00278164,-0.00036101,0.0024
 6227,0.00133439,-0.00010969,-0.00141568,-0.00045722,0.54039756,-0.0519
 5924,-0.08378186,-0.07446691,-0.00645978,0.00331207,0.01519742,0.00290
 709,-0.00302079,-0.00023244,0.00652353,-0.00265800,0.00170183,-0.00082
 168,-0.00000407,-0.00050002,-0.00902727,-0.01330976,-0.02181591,0.0002
 1880,-0.00177116,0.00186052,-0.00114209,0.00049132,-0.00084761,-0.0002
 5043,0.00047838,0.00093097,-0.12670597,0.50296844,-0.12334677,-0.10626
 503,-0.08842689,-0.00113142,0.00610959,-0.00426761,0.00071170,-0.00198
 605,0.00102351,-0.00121140,-0.00180503,0.00069933,0.00241448,0.0000990
 9,0.00028530,0.00212625,-0.00041857,-0.00745043,-0.00111335,-0.0016358
 5,0.00123585,-0.00042103,-0.00070979,0.00094807,0.00041968,0.00220624,
 0.00063525,0.17547616,0.07115999,0.50535458,-0.01392187,0.01046107,-0.
 00492266,0.00099921,-0.00053787,-0.00304487,0.00017286,0.00022330,0.00
 017735,-0.00121046,0.00026589,-0.00007504,0.00001803,-0.00003991,0.000
 05767,0.00031503,0.00085151,0.00103488,0.00038386,-0.00009862,0.000025
 66,0.00071716,-0.00078209,-0.00025597,0.00003849,-0.00014995,-0.000058
 86,-0.22955295,0.09788887,-0.08877947,0.23275626,-0.01608017,0.0079682
 8,-0.00468529,0.00062170,-0.00069517,-0.00338017,-0.00007303,0.0004000
 8,0.00007502,-0.00134779,0.00032370,-0.00004228,0.00005586,-0.00000816
 ,0.00008794,-0.00060153,0.00123850,0.00093622,0.00038784,0.00006383,0.
 00015750,0.00044829,0.00009171,-0.00002994,-0.00019186,-0.00009078,-0.
 00002350,0.09007914,-0.09667729,0.04302480,-0.10993604,0.11367732,-0.0
 0040452,0.00406813,-0.00561267,0.00010013,-0.00009539,0.00042830,-0.00
 009043,-0.00011526,-0.00016910,0.00012775,0.00002566,0.00023600,-0.000
 26145,-0.00002711,0.00016268,-0.00111448,0.00002984,0.00031196,0.00026
 582,0.00003775,0.00004270,0.00016302,-0.00041949,-0.00029050,0.0001583
 1,-0.00030565,-0.00006635,-0.08625600,0.04988428,-0.08487875,0.0953554
 9,-0.04207390,0.10440821,-0.09792592,-0.04468072,0.02593278,-0.0234855
 0,-0.02806531,0.02793541,0.00196802,-0.00011921,0.00010920,0.00427539,
 0.00003946,-0.00142338,-0.00803921,0.00261860,-0.00191610,-0.00183308,
 -0.00684618,-0.00322292,0.00047564,-0.00027922,-0.00107127,0.00202996,
 -0.00077413,-0.00045614,0.00174968,0.00079590,-0.00072484,-0.04923362,
 0.01420930,0.02552857,0.01392552,0.00749710,-0.02531434,0.15306675,-0.
 04053680,-0.10124050,0.02315710,-0.00563033,0.00077091,-0.00333787,-0.
 00113099,0.00200168,0.00029063,-0.00069317,0.00069455,-0.00111999,0.00
 114127,0.00182166,-0.00032543,-0.02474965,-0.02783762,0.02727939,-0.00
 031304,0.00324889,-0.00144343,-0.00052073,0.00257779,0.00079378,0.0016
 8717,-0.00766509,-0.00370862,0.01784201,-0.07103368,0.06085329,-0.0066
 4409,-0.00001398,0.00743786,0.05734179,0.17388930,0.06122867,0.0644172
 0,-0.05801107,-0.00216140,-0.00306720,0.00475177,0.00013024,0.00021457
 ,-0.00097094,0.00311689,-0.00075223,0.00173623,-0.00179383,-0.00011053
 ,0.00101893,-0.00328428,-0.00431312,0.01153232,-0.00053212,0.00398182,
 0.00205395,-0.00054980,0.00119317,-0.00059346,-0.00042109,-0.00298206,
 0.00062892,-0.00912665,0.03006009,-0.20866274,0.00039582,0.00541860,-0
 .02223743,-0.05591719,-0.07590548,0.31136050,0.01223510,-0.01226205,-0
 .00665456,-0.00117955,0.00293905,0.00192598,0.00104944,-0.00329782,-0.
 00021712,0.00107111,-0.00152639,-0.00016234,0.00042742,-0.00017224,-0.
 00008179,0.00034088,0.00058664,-0.00319849,0.00026056,-0.00107712,0.00
 014379,0.00034203,-0.00054668,-0.00023631,0.00000241,0.00056512,0.0001
 3136,-0.08635297,0.05986900,0.01464859,-0.00435773,0.02547456,0.014645
 24,0.00269169,0.00572531,0.01293731,0.20612788,0.00964726,-0.02394200,
 -0.00921172,0.00277103,-0.00175727,0.00036089,-0.00136266,0.00083456,-
 0.00004171,-0.00055996,0.00101068,-0.00010501,-0.00040071,-0.00019401,
 0.00000046,-0.00267276,0.00218035,-0.00594121,0.00041515,-0.00254440,-
 0.00104573,0.00004168,0.00051910,0.00039364,-0.00024207,-0.00023606,0.
 00028675,0.05001692,-0.20426662,-0.09176989,0.00888187,-0.02412990,-0.
 01509945,0.00098363,0.01728875,-0.01913898,-0.23321490,0.44762221,0.00
 325435,-0.00904494,-0.01183516,0.00101525,-0.00201839,0.00126721,-0.00
 047538,0.00027783,-0.00062908,0.00004215,0.00061222,0.00012014,-0.0008
 4469,-0.00037091,-0.00027369,-0.00196327,0.00039545,-0.00104289,0.0007
 3493,-0.00066304,-0.00015543,0.00037930,0.00009353,-0.00011726,-0.0002
 4374,-0.00083431,0.00012479,-0.00037820,-0.04946830,-0.12977730,-0.001
 62018,0.00421040,0.00926042,0.00953157,-0.03854646,-0.04271893,0.13120
 231,-0.04893390,0.38389873,0.00383079,-0.00013757,-0.00043427,0.000463
 36,-0.00257938,-0.00048270,-0.00202878,0.00003461,-0.00077690,-0.00007
 517,0.00076837,0.00019600,-0.00028677,0.00027685,0.00012982,-0.0011048
 5,-0.00033585,-0.00006810,0.00008488,-0.00013479,-0.00016959,-0.000101
 50,0.00017786,-0.00001931,0.00001835,-0.00034012,0.00000683,-0.0136387
 3,0.01474986,-0.00532199,-0.00028341,0.00366593,0.00262546,0.00033467,
 -0.00351876,-0.00402258,-0.13265827,0.16569552,-0.14063439,0.14544543,
 0.00166255,-0.00181466,0.00128858,0.00053101,-0.00077610,-0.00028560,-
 0.00188390,0.00101151,-0.00051522,0.00006565,0.00054029,0.00031211,0.0
 0013660,0.00039228,0.00018775,-0.00003520,-0.00024310,-0.00003089,-0.0
 0013676,0.00011421,0.00001310,-0.00022968,0.00012979,0.00002047,0.0000
 7504,0.00004468,-0.00002756,0.02430463,-0.03072697,0.02113720,-0.00038
 392,-0.00214814,-0.00334726,-0.00272102,0.00549735,0.00098415,0.156937
 53,-0.21238538,0.14429081,-0.17832253,0.24036425,-0.00132688,-0.003370
 56,0.00139394,-0.00007642,-0.00044282,-0.00111029,-0.00074672,-0.00038
 577,0.00068292,-0.00009740,-0.00007619,-0.00009661,0.00016957,0.000256
 01,0.00009922,-0.00005953,0.00028239,-0.00070311,-0.00004561,-0.000202
 52,-0.00006749,-0.00003565,0.00005912,0.00008884,-0.00001989,0.0002261
 9,0.00003016,0.01563192,-0.02346392,0.01328185,0.00171019,-0.00367541,
 -0.00159547,0.00100863,0.00457523,0.00011194,-0.16508396,0.19024585,-0
 .20812156,0.14897173,-0.16402763,0.19600566\\-0.00000214,-0.00000636,0
 .00000288,0.00000016,0.00000167,-0.00000225,-0.00000225,-0.00000451,0.
 00000701,-0.00000289,-0.00000144,0.00000353,0.00000131,0.00000167,0.00
 000461,-0.00000179,0.00000078,-0.00000242,-0.00000265,-0.00000038,0.00
 000053,-0.00000049,-0.00000008,-0.00000277,0.00000089,0.00000066,0.000
 00066,-0.00000245,0.00000226,-0.00000985,-0.00000246,0.00000296,0.0000
 0136,-0.00000108,0.00000588,0.00000033,0.00001490,-0.00000502,0.000004
 38,0.00000093,0.00000192,-0.00000801\\\@


 THE NUMBERS ARE MEANINGLESS, BUT THE TRENDS ARE IMPORTANT.
     -- LARRY BURGGRAF
 Job cpu time:  0 days  0 hours 26 minutes 16.8 seconds.
 File lengths (MBytes):  RWF=     39 Int=      0 D2E=      0 Chk=      7 Scr=      1
 Normal termination of Gaussian 03 at Tue Jul 15 17:35:17 2014.
