 Entering Gaussian System, Link 0=g03
 Input=p05_afreq.gjf
 Output=p05_afreq.log
 Initial command:
 /opt/g03/l1.exe /scratch/nyee/Gau-32621.inp -scrdir=/scratch/nyee/
 Entering Link 1 = /opt/g03/l1.exe PID=     32623.
  
 Copyright (c) 1988,1990,1992,1993,1995,1998,2003,2004, Gaussian, Inc.
                  All Rights Reserved.
  
 This is the Gaussian(R) 03 program.  It is based on the
 the Gaussian(R) 98 system (copyright 1998, Gaussian, Inc.),
 the Gaussian(R) 94 system (copyright 1995, Gaussian, Inc.),
 the Gaussian 92(TM) system (copyright 1992, Gaussian, Inc.),
 the Gaussian 90(TM) system (copyright 1990, Gaussian, Inc.),
 the Gaussian 88(TM) system (copyright 1988, Gaussian, Inc.),
 the Gaussian 86(TM) system (copyright 1986, Carnegie Mellon
 University), and the Gaussian 82(TM) system (copyright 1983,
 Carnegie Mellon University). Gaussian is a federally registered
 trademark of Gaussian, Inc.
  
 This software contains proprietary and confidential information,
 including trade secrets, belonging to Gaussian, Inc.
  
 This software is provided under written license and may be
 used, copied, transmitted, or stored only in accord with that
 written license.
  
 The following legend is applicable only to US Government
 contracts under FAR:
  
                    RESTRICTED RIGHTS LEGEND
  
 Use, reproduction and disclosure by the US Government is
 subject to restrictions as set forth in subparagraphs (a)
 and (c) of the Commercial Computer Software - Restricted
 Rights clause in FAR 52.227-19.
  
 Gaussian, Inc.
 340 Quinnipiac St., Bldg. 40, Wallingford CT 06492
  
  
 ---------------------------------------------------------------
 Warning -- This program may not be used in any manner that
 competes with the business of Gaussian, Inc. or will provide
 assistance to any competitor of Gaussian, Inc.  The licensee
 of this program is prohibited from giving any competitor of
 Gaussian, Inc. access to this program.  By using this program,
 the user acknowledges that Gaussian, Inc. is engaged in the
 business of creating and licensing software in the field of
 computational chemistry and represents and warrants to the
 licensee that it is not a competitor of Gaussian, Inc. and that
 it will not use this program in any manner prohibited above.
 ---------------------------------------------------------------
  

 Cite this work as:
 Gaussian 03, Revision D.01,
 M. J. Frisch, G. W. Trucks, H. B. Schlegel, G. E. Scuseria, 
 M. A. Robb, J. R. Cheeseman, J. A. Montgomery, Jr., T. Vreven, 
 K. N. Kudin, J. C. Burant, J. M. Millam, S. S. Iyengar, J. Tomasi, 
 V. Barone, B. Mennucci, M. Cossi, G. Scalmani, N. Rega, 
 G. A. Petersson, H. Nakatsuji, M. Hada, M. Ehara, K. Toyota, 
 R. Fukuda, J. Hasegawa, M. Ishida, T. Nakajima, Y. Honda, O. Kitao, 
 H. Nakai, M. Klene, X. Li, J. E. Knox, H. P. Hratchian, J. B. Cross, 
 V. Bakken, C. Adamo, J. Jaramillo, R. Gomperts, R. E. Stratmann, 
 O. Yazyev, A. J. Austin, R. Cammi, C. Pomelli, J. W. Ochterski, 
 P. Y. Ayala, K. Morokuma, G. A. Voth, P. Salvador, J. J. Dannenberg, 
 V. G. Zakrzewski, S. Dapprich, A. D. Daniels, M. C. Strain, 
 O. Farkas, D. K. Malick, A. D. Rabuck, K. Raghavachari, 
 J. B. Foresman, J. V. Ortiz, Q. Cui, A. G. Baboul, S. Clifford, 
 J. Cioslowski, B. B. Stefanov, G. Liu, A. Liashenko, P. Piskorz, 
 I. Komaromi, R. L. Martin, D. J. Fox, T. Keith, M. A. Al-Laham, 
 C. Y. Peng, A. Nanayakkara, M. Challacombe, P. M. W. Gill, 
 B. Johnson, W. Chen, M. W. Wong, C. Gonzalez, and J. A. Pople, 
 Gaussian, Inc., Wallingford CT, 2004.
 
 ******************************************
 Gaussian 03:  AM64L-G03RevD.01 13-Oct-2005
                15-Jul-2014 
 ******************************************
 %chk=p05_afreq.chk
 %mem=1000mb
 %nproc=8
 Will use up to    8 processors via shared memory.
 -------------------------------------
 # freq nosymm b3lyp/cbsb7 iop(7/33=1)
 -------------------------------------
 1/10=4,30=1,38=1/1,3;
 2/15=1,17=6,18=5,40=1/2;
 3/5=4,6=6,7=700,11=2,16=1,25=1,30=1,74=-5/1,2,3;
 4//1;
 5/5=2,38=5/2;
 8/6=4,10=90,11=11/1;
 11/6=1,8=1,9=11,15=111,16=1,31=1/1,2,10;
 10/6=1,31=1/2;
 6/7=2,8=2,9=2,10=2,18=1,28=1/1;
 7/8=1,10=1,25=1,30=1,33=1/1,2,3,16;
 1/10=4,30=1/3;
 99//99;
 -------------------
 Title Card Required
 -------------------
 Symbolic Z-matrix:
 Charge =  0 Multiplicity = 2
 C                    -1.80986   2.92782   0.01942 
 H                    -1.59407   3.62467   0.84771 
 H                    -1.44314   3.3996   -0.89572 
 H                    -2.90356   2.86502  -0.04519 
 C                    -1.19663   1.58769   0.24161 
 H                    -0.22342   1.38073  -0.19045 
 C                    -1.74086   0.65179   1.26594 
 H                    -1.31657  -0.35093   1.17148 
 H                    -1.52975   0.99427   2.29367 
 H                    -2.83279   0.56648   1.19481 
 

 GradGradGradGradGradGradGradGradGradGradGradGradGradGradGradGradGradGrad
 Berny optimization.
 Initialization pass.
 Trust Radius=3.00D-01 FncErr=1.00D-07 GrdErr=1.00D-07
 Number of steps in this run=   2 maximum allowed number of steps=   2.
 GradGradGradGradGradGradGradGradGradGradGradGradGradGradGradGradGradGrad

                          Input orientation:                          
 ---------------------------------------------------------------------
 Center     Atomic     Atomic              Coordinates (Angstroms)
 Number     Number      Type              X           Y           Z
 ---------------------------------------------------------------------
    1          6             0       -1.809856    2.927823    0.019417
    2          1             0       -1.594070    3.624671    0.847709
    3          1             0       -1.443141    3.399596   -0.895719
    4          1             0       -2.903559    2.865022   -0.045187
    5          6             0       -1.196634    1.587693    0.241614
    6          1             0       -0.223422    1.380732   -0.190451
    7          6             0       -1.740859    0.651791    1.265936
    8          1             0       -1.316566   -0.350926    1.171480
    9          1             0       -1.529748    0.994271    2.293667
   10          1             0       -2.832790    0.566482    1.194813
 ---------------------------------------------------------------------
                    Distance matrix (angstroms):
                    1          2          3          4          5
     1  C    0.000000
     2  H    1.103734   0.000000
     3  H    1.092943   1.764364   0.000000
     4  H    1.097408   1.757581   1.772567   0.000000
     5  C    1.490423   2.162079   2.153436   2.151143   0.000000
     6  H    2.225827   2.826962   2.461895   3.067141   1.084737
     7  C    2.595938   3.005741   3.508820   2.822996   1.490412
     8  H    3.510097   3.998401   4.284361   3.786971   2.153434
     9  H    2.998216   3.002322   3.995657   3.295042   2.161952
    10  H    2.829113   3.317744   3.785232   2.612641   2.151387
                    6          7          8          9         10
     6  H    0.000000
     7  C    2.225990   0.000000
     8  H    2.459362   1.092881   0.000000
     9  H    2.833140   1.103672   1.764739   0.000000
    10  H    3.064435   1.097565   1.772320   1.757385   0.000000
 Symmetry turned off by external request.
 Stoichiometry    C3H7(2)
 Framework group  C1[X(C3H7)]
 Deg. of freedom    24
 Full point group                 C1
 Rotational constants (GHZ):     37.4921127      8.3114759      7.4316298
 Standard basis: CBSB7 (5D, 7F)
 Integral buffers will be    131072 words long.
 Raffenetti 2 integral format.
 Two-electron integral symmetry is turned off.
    96 basis functions,   152 primitive gaussians,    99 cartesian basis functions
    13 alpha electrons       12 beta electrons
       nuclear repulsion energy        75.3566892052 Hartrees.
 NAtoms=   10 NActive=   10 NUniq=   10 SFac= 7.50D-01 NAtFMM=   80 NAOKFM=F Big=F
 One-electron integrals computed using PRISM.
 NBasis=    96 RedAO= T  NBF=    96
 NBsUse=    96 1.00D-06 NBFU=    96
 Harris functional with IExCor=  402 diagonalized for initial guess.
 ExpMin= 1.03D-01 ExpMax= 4.56D+03 ExpMxC= 6.82D+02 IAcc=1 IRadAn=         1 AccDes= 1.00D-06
 HarFok:  IExCor= 402 AccDes= 1.00D-06 IRadAn=         1 IDoV=1
 ScaDFX=  1.000000  1.000000  1.000000  1.000000
 <S**2> of initial guess= 0.7500
 Requested convergence on RMS density matrix=1.00D-08 within 128 cycles.
 Requested convergence on MAX density matrix=1.00D-06.
 Requested convergence on             energy=1.00D-06.
 No special actions if energy rises.
 Keep R1 and R2 integrals in memory in canonical form, NReq=    26382361.
 Integral accuracy reduced to 1.0D-05 until final iterations.
 Initial convergence to 1.0D-05 achieved.  Increase integral accuracy.
 SCF Done:  E(UB+HF-LYP) =  -118.514166356     A.U. after   13 cycles
             Convg  =    0.7698D-08             -V/T =  2.0052
             S**2   =   0.7540
 Annihilation of the first spin contaminant:
 S**2 before annihilation     0.7540,   after     0.7500
 Range of M.O.s used for correlation:     1    96
 NBasis=    96 NAE=    13 NBE=    12 NFC=     0 NFV=     0
 NROrb=     96 NOA=    13 NOB=    12 NVA=    83 NVB=    84
 Symmetrizing basis deriv contribution to polar:
 IMax=3 JMax=2 DiffMx= 0.00D+00
 G2DrvN: will do   11 centers at a time, making    1 passes doing MaxLOS=2.
 FoFDir/FoFCou used for L=0 through L=2.
 DoAtom=TTTTTTTTTT
          Differentiating once with respect to electric field.
                with respect to dipole field.
          Differentiating once with respect to nuclear coordinates.
          Store integrals in memory, NReq=    25330435.
          There are  33 degrees of freedom in the 1st order CPHF.
    30 vectors were produced by pass  0.
 AX will form  30 AO Fock derivatives at one time.
    30 vectors were produced by pass  1.
    30 vectors were produced by pass  2.
    30 vectors were produced by pass  3.
    30 vectors were produced by pass  4.
    30 vectors were produced by pass  5.
    12 vectors were produced by pass  6.
     3 vectors were produced by pass  7.
 Inv2:  IOpt= 1 Iter= 1 AM= 1.97D-15 Conv= 1.00D-12.
 Inverted reduced A of dimension  195 with in-core refinement.
 Isotropic polarizability for W=    0.000000       35.65 Bohr**3.
 End of Minotr Frequency-dependent properties file   721 does not exist.

 **********************************************************************

            Population analysis using the SCF density.

 **********************************************************************

 Alpha  occ. eigenvalues --  -10.17127 -10.16185 -10.16184  -0.78270  -0.69233
 Alpha  occ. eigenvalues --   -0.57219  -0.45413  -0.43106  -0.41127  -0.38773
 Alpha  occ. eigenvalues --   -0.35763  -0.35058  -0.18516
 Alpha virt. eigenvalues --    0.04789   0.07650   0.08149   0.10895   0.12782
 Alpha virt. eigenvalues --    0.13172   0.14322   0.21353   0.26895   0.27226
 Alpha virt. eigenvalues --    0.29669   0.34299   0.35472   0.41212   0.42084
 Alpha virt. eigenvalues --    0.42525   0.48551   0.55383   0.56410   0.57815
 Alpha virt. eigenvalues --    0.59747   0.60008   0.60229   0.62093   0.65007
 Alpha virt. eigenvalues --    0.68585   0.80522   0.90889   0.98029   0.99033
 Alpha virt. eigenvalues --    1.16118   1.26749   1.34651   1.37981   1.42593
 Alpha virt. eigenvalues --    1.45987   1.46269   1.47653   1.50091   1.51135
 Alpha virt. eigenvalues --    1.53149   1.54392   1.59551   1.69208   1.69600
 Alpha virt. eigenvalues --    1.75608   1.77435   1.86016   1.92097   1.92309
 Alpha virt. eigenvalues --    2.02640   2.06740   2.07363   2.21117   2.27372
 Alpha virt. eigenvalues --    2.28807   2.31141   2.32095   2.41606   2.42165
 Alpha virt. eigenvalues --    2.45071   2.46856   2.46994   2.50123   2.50625
 Alpha virt. eigenvalues --    2.57720   2.63743   2.65154   2.77307   2.78345
 Alpha virt. eigenvalues --    2.80466   2.86825   3.10770   3.31315   3.73249
 Alpha virt. eigenvalues --    3.79676   3.80094   3.82729   4.00298   4.27497
 Alpha virt. eigenvalues --   23.80213  23.90130  23.94747
  Beta  occ. eigenvalues --  -10.16273 -10.16272 -10.15710  -0.76562  -0.68992
  Beta  occ. eigenvalues --   -0.55091  -0.44941  -0.41376  -0.40551  -0.38119
  Beta  occ. eigenvalues --   -0.35392  -0.34521
  Beta virt. eigenvalues --   -0.03917   0.04920   0.07969   0.08267   0.11277
  Beta virt. eigenvalues --    0.13186   0.13320   0.14526   0.22285   0.27353
  Beta virt. eigenvalues --    0.27499   0.30123   0.34674   0.36523   0.42673
  Beta virt. eigenvalues --    0.43341   0.43684   0.52900   0.56172   0.57046
  Beta virt. eigenvalues --    0.58028   0.59842   0.60118   0.60377   0.62918
  Beta virt. eigenvalues --    0.65481   0.69975   0.81736   0.91110   0.99863
  Beta virt. eigenvalues --    1.00103   1.16126   1.27220   1.36153   1.39804
  Beta virt. eigenvalues --    1.43631   1.46416   1.46759   1.48190   1.50800
  Beta virt. eigenvalues --    1.51410   1.53882   1.55790   1.60985   1.69833
  Beta virt. eigenvalues --    1.70677   1.77171   1.77669   1.88176   1.93609
  Beta virt. eigenvalues --    1.93828   2.03059   2.07311   2.07824   2.21900
  Beta virt. eigenvalues --    2.28169   2.30138   2.31490   2.32432   2.42393
  Beta virt. eigenvalues --    2.42800   2.45363   2.47079   2.47608   2.50776
  Beta virt. eigenvalues --    2.51427   2.58094   2.64297   2.65829   2.78160
  Beta virt. eigenvalues --    2.79069   2.85018   2.88690   3.11322   3.32021
  Beta virt. eigenvalues --    3.73590   3.79772   3.80669   3.82894   4.01818
  Beta virt. eigenvalues --    4.28909  23.81731  23.90125  23.94660
          Condensed to atoms (all electrons):
              1          2          3          4          5          6
     1  C    4.821998   0.394559   0.403732   0.404946   0.368287  -0.040713
     2  H    0.394559   0.617050  -0.032148  -0.041058  -0.052058   0.001376
     3  H    0.403732  -0.032148   0.577554  -0.026925  -0.032091  -0.008396
     4  H    0.404946  -0.041058  -0.026925   0.595184  -0.046622   0.006803
     5  C    0.368287  -0.052058  -0.032091  -0.046622   5.307543   0.409906
     6  H   -0.040713   0.001376  -0.008396   0.006803   0.409906   0.561183
     7  C   -0.063989  -0.000861   0.006758  -0.005347   0.368506  -0.040764
     8  H    0.006779  -0.000396  -0.000398   0.000082  -0.031951  -0.008507
     9  H   -0.000887   0.005290  -0.000396  -0.001560  -0.052230   0.001494
    10  H   -0.005369  -0.001543   0.000082   0.006287  -0.046643   0.006767
              7          8          9         10
     1  C   -0.063989   0.006779  -0.000887  -0.005369
     2  H   -0.000861  -0.000396   0.005290  -0.001543
     3  H    0.006758  -0.000398  -0.000396   0.000082
     4  H   -0.005347   0.000082  -0.001560   0.006287
     5  C    0.368506  -0.031951  -0.052230  -0.046643
     6  H   -0.040764  -0.008507   0.001494   0.006767
     7  C    4.821865   0.403771   0.394681   0.404771
     8  H    0.403771   0.577481  -0.032024  -0.026960
     9  H    0.394681  -0.032024   0.617191  -0.041214
    10  H    0.404771  -0.026960  -0.041214   0.595292
 Mulliken atomic charges:
              1
     1  C   -0.289342
     2  H    0.109789
     3  H    0.112226
     4  H    0.108210
     5  C   -0.192648
     6  H    0.110850
     7  C   -0.289392
     8  H    0.112123
     9  H    0.109654
    10  H    0.108529
 Sum of Mulliken charges=   0.00000
 Atomic charges with hydrogens summed into heavy atoms:
              1
     1  C    0.040883
     2  H    0.000000
     3  H    0.000000
     4  H    0.000000
     5  C   -0.081797
     6  H    0.000000
     7  C    0.040914
     8  H    0.000000
     9  H    0.000000
    10  H    0.000000
 Sum of Mulliken charges=   0.00000
          Atomic-Atomic Spin Densities.
              1          2          3          4          5          6
     1  C   -0.065672   0.011290   0.004679   0.008068  -0.038197   0.000544
     2  H    0.011290   0.111399  -0.008062  -0.020249  -0.035810  -0.001629
     3  H    0.004679  -0.008062   0.009091   0.004420  -0.004993   0.001187
     4  H    0.008068  -0.020249   0.004420   0.045156  -0.016607   0.000396
     5  C   -0.038197  -0.035810  -0.004993  -0.016607   1.206440   0.003160
     6  H    0.000544  -0.001629   0.001187   0.000396   0.003160  -0.052351
     7  C    0.000008   0.000800   0.000042   0.001107  -0.037963   0.000545
     8  H    0.000034  -0.000318   0.000042   0.000296  -0.004688   0.001169
     9  H    0.000854   0.006919  -0.000336  -0.002877  -0.035710  -0.001620
    10  H    0.001084  -0.002827   0.000316   0.004486  -0.017156   0.000413
              7          8          9         10
     1  C    0.000008   0.000034   0.000854   0.001084
     2  H    0.000800  -0.000318   0.006919  -0.002827
     3  H    0.000042   0.000042  -0.000336   0.000316
     4  H    0.001107   0.000296  -0.002877   0.004486
     5  C   -0.037963  -0.004688  -0.035710  -0.017156
     6  H    0.000545   0.001169  -0.001620   0.000413
     7  C   -0.065907   0.004469   0.011140   0.008368
     8  H    0.004469   0.008355  -0.007704   0.004269
     9  H    0.011140  -0.007704   0.111213  -0.020557
    10  H    0.008368   0.004269  -0.020557   0.046675
 Mulliken atomic spin densities:
              1
     1  C   -0.077309
     2  H    0.061512
     3  H    0.006385
     4  H    0.024196
     5  C    1.018476
     6  H   -0.048188
     7  C   -0.077393
     8  H    0.005925
     9  H    0.061323
    10  H    0.025072
 Sum of Mulliken spin densities=   1.00000
 APT atomic charges:
              1
     1  C    0.079130
     2  H   -0.040691
     3  H   -0.018214
     4  H   -0.025712
     5  C    0.027097
     6  H   -0.016461
     7  C    0.079660
     8  H   -0.018196
     9  H   -0.040568
    10  H   -0.026044
 Sum of APT charges=   0.00000
 APT Atomic charges with hydrogens summed into heavy atoms:
              1
     1  C   -0.005487
     2  H    0.000000
     3  H    0.000000
     4  H    0.000000
     5  C    0.010636
     6  H    0.000000
     7  C   -0.005149
     8  H    0.000000
     9  H    0.000000
    10  H    0.000000
 Sum of APT charges=   0.00000
 Electronic spatial extent (au):  <R**2>=   748.7234
 Charge=     0.0000 electrons
 Dipole moment (field-independent basis, Debye):
    X=     0.0123    Y=     0.0933    Z=     0.1686  Tot=     0.1931
 Quadrupole moment (field-independent basis, Debye-Ang):
   XX=   -20.8835   YY=   -20.7189   ZZ=   -21.2969
   XY=    -0.3211   XZ=    -0.6169   YZ=    -0.0176
 Traceless Quadrupole moment (field-independent basis, Debye-Ang):
   XX=     0.0830   YY=     0.2475   ZZ=    -0.3304
   XY=    -0.3211   XZ=    -0.6169   YZ=    -0.0176
 Octapole moment (field-independent basis, Debye-Ang**2):
  XXX=   100.4196  YYY=  -109.8013  ZZZ=   -34.2383  XYY=    33.6300
  XXY=   -36.0206  XXZ=   -10.6096  XZZ=    34.7632  YZZ=   -36.1295
  YYZ=   -11.8912  XYZ=    -0.7115
 Hexadecapole moment (field-independent basis, Debye-Ang**3):
 XXXX=  -374.3143 YYYY=  -557.7198 ZZZZ=  -120.5977 XXXY=   179.5890
 XXXZ=    58.1114 YYYX=   183.5142 YYYZ=   -26.3514 ZZZX=    60.0285
 ZZZY=   -23.7824 XXYY=  -157.9609 XXZZ=   -87.3073 YYZZ=  -110.2797
 XXYZ=    -7.3230 YYXZ=    19.3471 ZZXY=    61.0182
 N-N= 7.535668920519D+01 E-N=-4.246888760284D+02  KE= 1.179036950479D+02
  Exact polarizability:  33.571  -1.407  39.211  -2.175  -4.066  34.164
 Approx polarizability:  45.077  -1.542  47.263  -2.690  -2.203  44.627
                          Isotropic Fermi Contact Couplings
        Atom                 a.u.       MegaHertz       Gauss      10(-4) cm-1
     1  C(13)             -0.02918     -32.80039     -11.70399     -10.94103
     2  H(1)               0.02895     129.38540      46.16793      43.15832
     3  H(1)               0.00354      15.82980       5.64847       5.28025
     4  H(1)               0.01179      52.68419      18.79903      17.57355
     5  C(13)              0.07914      88.96672      31.74554      29.67610
     6  H(1)              -0.01335     -59.69180     -21.29952     -19.91104
     7  C(13)             -0.02921     -32.83362     -11.71585     -10.95212
     8  H(1)               0.00326      14.57272       5.19991       4.86094
     9  H(1)               0.02881     128.79229      45.95629      42.96048
    10  H(1)               0.01226      54.79421      19.55194      18.27738
 --------------------------------------------------------
       Center         ----  Spin Dipole Couplings  ----
                      3XX-RR        3YY-RR        3ZZ-RR
 --------------------------------------------------------
     1   Atom       -0.008437      0.017146     -0.008709
     2   Atom       -0.006862      0.012469     -0.005606
     3   Atom       -0.008207      0.011277     -0.003070
     4   Atom        0.005488      0.002494     -0.007982
     5   Atom       -0.147079     -0.260310      0.407389
     6   Atom        0.062457     -0.054240     -0.008217
     7   Atom       -0.009490     -0.002264      0.011755
     8   Atom       -0.008460      0.010408     -0.001948
     9   Atom       -0.007357     -0.004049      0.011406
    10   Atom        0.004268     -0.002989     -0.001279
 --------------------------------------------------------
                        XY            XZ            YZ
 --------------------------------------------------------
     1   Atom       -0.010223      0.004639      0.002019
     2   Atom       -0.005685      0.000071      0.004359
     3   Atom       -0.001954      0.002064     -0.010134
     4   Atom       -0.012531      0.001083     -0.001228
     5   Atom        0.366533      0.645413      0.559060
     6   Atom       -0.010456     -0.026652      0.034597
     7   Atom        0.008852     -0.005001     -0.011462
     8   Atom        0.001560      0.000201     -0.010856
     9   Atom        0.002806     -0.004165     -0.006534
    10   Atom        0.008005     -0.009800     -0.006001
 --------------------------------------------------------


 ---------------------------------------------------------------------------------
              Anisotropic Spin Dipole Couplings in Principal Axis System
 ---------------------------------------------------------------------------------

       Atom             a.u.   MegaHertz   Gauss  10(-4) cm-1        Axes

              Baa    -0.0157    -2.104    -0.751    -0.702  0.7622  0.2735 -0.5867
     1 C(13)  Bbb    -0.0051    -0.679    -0.242    -0.226  0.5576  0.1831  0.8097
              Bcc     0.0207     2.782     0.993     0.928 -0.3289  0.9443  0.0129
 
              Baa    -0.0090    -4.789    -1.709    -1.597  0.8520  0.3114 -0.4209
     2 H(1)   Bbb    -0.0059    -3.148    -1.123    -1.050  0.4615 -0.0671  0.8846
              Bcc     0.0149     7.937     2.832     2.647 -0.2472  0.9479  0.2009
 
              Baa    -0.0093    -4.983    -1.778    -1.662  0.7368 -0.2407 -0.6318
     3 H(1)   Bbb    -0.0075    -3.985    -1.422    -1.329  0.6676  0.4067  0.6236
              Bcc     0.0168     8.968     3.200     2.991 -0.1068  0.8813 -0.4604
 
              Baa    -0.0087    -4.639    -1.655    -1.547  0.6158  0.7238  0.3113
     4 H(1)   Bbb    -0.0080    -4.281    -1.528    -1.428 -0.2538 -0.1918  0.9480
              Bcc     0.0167     8.920     3.183     2.975  0.7459 -0.6628  0.0656
 
              Baa    -0.5776   -77.511   -27.658   -25.855 -0.0249  0.8763 -0.4811
     5 C(13)  Bbb    -0.5719   -76.749   -27.386   -25.601  0.8675 -0.2202 -0.4460
              Bcc     1.1496   154.261    55.044    51.456  0.4968  0.4284  0.7547
 
              Baa    -0.0729   -38.880   -13.873   -12.969 -0.0268  0.8767 -0.4802
     6 H(1)   Bbb    -0.0022    -1.150    -0.410    -0.384  0.4018  0.4493  0.7979
              Bcc     0.0750    40.030    14.284    13.353  0.9153 -0.1716 -0.3644
 
              Baa    -0.0157    -2.106    -0.751    -0.702  0.7825 -0.6123 -0.1131
     7 C(13)  Bbb    -0.0051    -0.680    -0.242    -0.227  0.5541  0.6019  0.5750
              Bcc     0.0208     2.786     0.994     0.929 -0.2840 -0.5126  0.8103
 
              Baa    -0.0094    -4.992    -1.781    -1.665  0.7525 -0.3617 -0.5504
     8 H(1)   Bbb    -0.0074    -3.962    -1.414    -1.322  0.6568  0.3494  0.6683
              Bcc     0.0168     8.954     3.195     2.987  0.0494  0.8644 -0.5004
 
              Baa    -0.0090    -4.787    -1.708    -1.597  0.8868 -0.4610  0.0334
     9 H(1)   Bbb    -0.0059    -3.147    -1.123    -1.050  0.4093  0.8167  0.4069
              Bcc     0.0149     7.934     2.831     2.647 -0.2149 -0.3471  0.9129
 
              Baa    -0.0087    -4.638    -1.655    -1.547  0.6230 -0.0532  0.7804
    10 H(1)   Bbb    -0.0081    -4.299    -1.534    -1.434 -0.3243  0.8904  0.3195
              Bcc     0.0168     8.937     3.189     2.981  0.7119  0.4521 -0.5374
 

 ---------------------------------------------------------------------------------

 Use density number 0.
 Entering OneElI...
 Calculate overlap and kinetic energy integrals
    NBasis =  99  MinDer = 2  MaxDer = 2
 Requested accuracy = 0.1000D-12
 PrsmSu:  NPrtUS=   1 ThrOK=F
 PRISM was handed   130968683 working-precision words and   946 shell-pairs
 Entering OneElI...
 Calculate potential energy integrals
    NBasis =  99  MinDer = 2  MaxDer = 2
 Requested accuracy = 0.1000D-12
 PrsmSu:  NPrtUS=   8 ThrOK=T
 PRISM was handed    16353009 working-precision words and   937 shell-pairs
 PRISM was handed    16353009 working-precision words and   937 shell-pairs
 PRISM was handed    16353009 working-precision words and   937 shell-pairs
 PRISM was handed    16353009 working-precision words and   937 shell-pairs
 PRISM was handed    16353009 working-precision words and   937 shell-pairs
 PRISM was handed    16353009 working-precision words and   937 shell-pairs
 PRISM was handed    16353009 working-precision words and   937 shell-pairs
 PRISM was handed    16353009 working-precision words and   937 shell-pairs
 Polarizability after L701:
                1             2             3
      1  0.335713D+02
      2 -0.140731D+01  0.392112D+02
      3 -0.217476D+01 -0.406569D+01  0.341644D+02
 Dipole Derivatives after L701:
               1            2            3            4            5
      1 0.903185D-01 0.358107D-01 0.362461D-01 0.544525D-01-0.708903D-02
      2 0.234657D-01 0.172209D-01 0.399119D-01-0.114724D-01-0.958617D-01
      3 0.385442D-01 0.905448D-01 0.129850D+00-0.522033D-01-0.731406D-01
               6            7            8            9           10
      1-0.361442D-01 0.485004D-01-0.121935D-01 0.567645D-01-0.177437D+00
      2-0.146220D+00-0.217778D-01-0.997868D-02 0.113812D+00 0.224603D-01
      3-0.806653D-01 0.695671D-01 0.842201D-01-0.931631D-01-0.285011D-01
              11           12           13           14           15
      1-0.352243D-01-0.513473D-02 0.691311D-01-0.819503D-01-0.140635D+00
      2 0.338661D-01 0.127613D-01-0.884039D-01 0.117173D+00-0.181396D+00
      3 0.437214D-02 0.664344D-01-0.156444D+00-0.182273D+00-0.105014D+00
              16           17           18           19           20
      1-0.980464D-01 0.429767D-01 0.812626D-01 0.911558D-01 0.156142D-01
      2 0.548310D-01-0.930189D-02 0.576533D-01 0.231339D-01 0.405332D-01
      3 0.103389D+00 0.582068D-01 0.579668D-01 0.391905D-01 0.544379D-01
              21           22           23           24           25
      1 0.446599D-01 0.410488D-01 0.662641D-01 0.207393D-01 0.570788D-01
      2 0.104523D+00 0.821548D-01-0.150913D+00-0.949968D-02-0.351210D-01
      3 0.107290D+00 0.174314D-01 0.199787D-01 0.552776D-01-0.370931D-01
              26           27           28           29           30
      1-0.257602D-01-0.284414D-01-0.176203D+00 0.155171D-02-0.293174D-01
      2 0.102149D-01-0.526004D-02-0.492705D-01 0.470474D-01 0.137143D-01
      3-0.793210D-01-0.188999D+00 0.611836D-02 0.229746D-01 0.510221D-01
 Hessian after L701:
                1             2             3             4             5
      1  0.979610D+01
      2  0.122276D+01  0.712473D+01
      3 -0.163848D+00  0.724626D+00  0.101389D+02
      4 -0.262605D+01  0.231181D+00  0.264189D+00  0.260587D+01
      5  0.242678D+00 -0.182743D+01  0.102390D+01 -0.271745D+00  0.152726D+01
      6  0.261242D+00  0.959945D+00 -0.159653D+01 -0.227900D+00 -0.107161D+01
      7 -0.253268D+01  0.281660D+00 -0.514543D+00  0.425775D-01  0.421522D-02
      8  0.306170D+00 -0.232356D+01 -0.769859D+00  0.947848D-02  0.525721D-01
      9 -0.533504D+00 -0.730882D+00 -0.135030D+01  0.177346D-01 -0.434269D-04
     10 -0.708113D+00  0.942418D-01  0.100641D+00 -0.329430D-02 -0.429861D-01
     11  0.439458D-02 -0.279811D+01  0.165648D-01 -0.487129D-01  0.415023D-01
     12  0.145619D+00  0.220483D-01 -0.277603D+01 -0.679360D-01 -0.309063D-01
     13 -0.378903D+01 -0.180647D+01  0.320473D+00  0.207993D-01  0.855851D-01
     14 -0.180153D+01 -0.524709D+00 -0.686026D+00  0.695519D-01  0.952064D-01
     15  0.319009D+00 -0.692381D+00 -0.442406D+01  0.226330D-01  0.102365D+00
     16  0.534835D-01  0.146306D-01 -0.230153D-01 -0.146503D-02 -0.246458D-01
     17  0.331817D-01  0.341574D-03 -0.277434D-02 -0.952926D-02  0.146332D-01
     18 -0.269548D-01  0.606637D-02  0.411245D-01 -0.620281D-02  0.157978D-01
     19 -0.138356D+00 -0.361592D-01  0.906659D-02 -0.271536D-01  0.544723D-02
     20  0.362665D-02  0.224653D+00 -0.212140D+00  0.167715D-01  0.626610D-01
     21 -0.132637D-01 -0.190857D+00 -0.311904D-01 -0.203552D-03 -0.646963D-02
     22 -0.307154D-01 -0.292455D-01  0.102784D-01 -0.167066D-02 -0.278346D-02
     23 -0.244944D-01  0.116267D+00 -0.490355D-01  0.154656D-02  0.818759D-02
     24  0.786582D-02 -0.395920D-01 -0.216578D-01  0.299037D-04  0.810498D-03
     25 -0.262629D-01 -0.110917D-01  0.164171D-01 -0.124247D-01 -0.436917D-02
     26 -0.454739D-02 -0.590853D-02 -0.270529D-01  0.304552D-03  0.251795D-01
     27  0.816221D-02 -0.493601D-01  0.398748D-01 -0.261205D-02 -0.351092D-01
     28  0.162613D-02  0.384926D-01 -0.196576D-01  0.281065D-02  0.860410D-02
     29  0.177610D-01  0.137270D-01 -0.182044D-01  0.115376D-02  0.227488D-03
     30 -0.432724D-02 -0.961368D-02 -0.201768D-01  0.268062D-03  0.125890D-02
                6             7             8             9            10
      6  0.150501D+01
      7 -0.623753D-02  0.252583D+01
      8 -0.242296D-01 -0.325554D+00  0.216846D+01
      9 -0.366183D-01  0.523847D+00  0.916560D+00  0.120972D+01
     10 -0.370352D-01 -0.221121D-02 -0.123248D-01  0.106516D-01  0.512370D+00
     11 -0.167261D-01 -0.213067D-01  0.281724D-01 -0.105468D-02  0.647534D-01
     12  0.306216D-01  0.476442D-01  0.728241D-02  0.285616D-01 -0.177375D+00
     13  0.238046D-01  0.279160D-02 -0.591671D-02 -0.628774D-02  0.147874D+00
     14  0.128623D+00  0.206640D-01  0.255422D-01 -0.890291D-01  0.640351D-03
     15  0.129817D+00 -0.258204D-01 -0.548755D-01  0.991868D-01  0.794397D-01
     16 -0.177668D-01 -0.359679D-02  0.965698D-02  0.429693D-02  0.686850D-01
     17  0.138845D-01  0.167088D-01 -0.161394D-01  0.506692D-02 -0.399526D-01
     18  0.318390D-02 -0.598482D-02  0.108164D-01  0.203501D-02 -0.161694D-01
     19 -0.511415D-04 -0.334198D-01  0.129656D-01 -0.101415D-01  0.461538D-02
     20  0.151594D-01  0.170531D-01  0.595135D-01 -0.873089D-01 -0.381760D-01
     21 -0.273474D-01 -0.132643D-01 -0.776425D-01  0.375756D-01  0.222012D-01
     22 -0.203696D-02 -0.113408D-02 -0.264198D-02  0.287489D-02  0.456072D-02
     23  0.665158D-02  0.330421D-02  0.340091D-02 -0.775189D-02 -0.143006D-01
     24 -0.917841D-03 -0.745765D-03  0.146307D-02 -0.559663D-03  0.177950D-02
     25 -0.397262D-03 -0.163535D-02 -0.870793D-03  0.146034D-02  0.297391D-02
     26 -0.151332D-01 -0.217542D-03 -0.173020D-02  0.517387D-03  0.107301D-02
     27 -0.650746D-02 -0.282781D-02 -0.557760D-02  0.908379D-02  0.108662D-01
     28  0.637846D-02  0.348012D-02  0.903772D-02 -0.109318D-01 -0.274605D-01
     29  0.343151D-02  0.347285D-02  0.377129D-02 -0.607363D-02 -0.129684D-01
     30 -0.712283D-03 -0.206707D-02 -0.393695D-02  0.131354D-02  0.500079D-02
               11            12            13            14            15
     11  0.272343D+01
     12  0.714980D-01  0.269987D+01
     13  0.464553D-01  0.432821D-01  0.861672D+01
     14 -0.251203D-01 -0.191239D-01  0.937720D+00  0.561677D+01
     15 -0.357515D-01  0.472451D-01  0.146901D+01  0.252372D+01  0.873232D+01
     16 -0.361784D-01 -0.844484D-03 -0.121193D+01 -0.369095D+00 -0.771151D+00
     17 -0.131364D-02  0.469118D-03 -0.371672D+00 -0.283980D+01  0.204319D+00
     18  0.628375D-02 -0.168610D-01 -0.775581D+00  0.204073D+00 -0.252384D+01
     19 -0.135071D-01  0.129587D-01 -0.396406D+01  0.112698D+01 -0.120684D+01
     20  0.221365D-03 -0.238839D-01  0.113045D+01 -0.255798D+01 -0.214627D+01
     21 -0.160505D-01 -0.100044D-01 -0.121001D+01 -0.215264D+01 -0.221743D+01
     22 -0.382588D-02  0.179157D-02  0.489171D-02 -0.407405D-01  0.426073D-02
     23  0.573915D-02 -0.364231D-02 -0.102487D-01  0.139846D+00 -0.156492D-01
     24 -0.200885D-02 -0.158574D-02 -0.986068D-02  0.184516D-01 -0.176639D-01
     25 -0.177996D-03  0.952654D-03  0.256494D-01 -0.167985D-01  0.702322D-01
     26 -0.256977D-02  0.165443D-02 -0.241525D-01  0.143423D-01  0.825946D-01
     27 -0.154810D-03  0.171129D-02  0.863005D-01  0.564979D-01  0.206154D+00
     28  0.810557D-02 -0.609281D-02  0.146292D+00  0.726069D-01  0.392261D-01
     29  0.280519D-01 -0.253958D-01  0.182443D-01  0.559090D-01  0.319302D-01
     30 -0.226001D-01 -0.352710D-02  0.588657D-01  0.154506D-01 -0.317374D-01
               16            17            18            19            20
     16  0.977000D+00
     17  0.411288D+00  0.284988D+01
     18  0.863168D+00 -0.257441D+00  0.246032D+01
     19  0.571546D-01 -0.386770D-01  0.116008D-01  0.991028D+01
     20 -0.257057D-01  0.246827D-01  0.164318D-01 -0.694707D+00  0.853892D+01
     21 -0.218703D-02  0.248226D-01  0.133793D-01  0.831772D+00  0.173221D+01
     22 -0.229188D-02 -0.133429D-01  0.106531D-01 -0.245915D+01 -0.671714D+00
     23 -0.117838D-02 -0.112641D-01  0.961434D-02 -0.700537D+00 -0.102536D+01
     24  0.975165D-02  0.156378D-01 -0.437440D-02 -0.343997D-01  0.102963D+00
     25 -0.208120D-02  0.128548D-03 -0.112825D-01 -0.262936D+01  0.104358D+00
     26 -0.157072D-02 -0.724653D-02 -0.312039D-03  0.947730D-01 -0.254645D+01
     27 -0.303472D-01  0.590003D-03  0.262738D-01  0.336033D+00  0.585028D+00
     28  0.650421D-01  0.118675D-01 -0.432469D-01 -0.720551D+00  0.158041D+00
     29  0.227985D-01 -0.137724D-01 -0.113303D-01  0.243424D+00 -0.278085D+01
     30 -0.319046D-01 -0.457442D-02 -0.123697D-02  0.500002D-01  0.178161D-01
               21            22            23            24            25
     21  0.861104D+01
     22 -0.473257D-01  0.244902D+01
     23  0.141662D+00  0.720320D+00  0.733762D+00
     24 -0.272352D+01  0.970821D-02 -0.461805D-01  0.272323D+01
     25  0.331542D+00  0.424491D-01  0.119003D-01  0.203965D-01  0.260352D+01
     26  0.519964D+00 -0.592801D-02 -0.359094D-04 -0.561950D-01 -0.477109D-01
     27 -0.878115D+00  0.178651D-02 -0.332528D-01  0.159831D-01 -0.352589D+00
     28  0.100735D+00 -0.595099D-02  0.136889D-01 -0.452543D-02 -0.282794D-02
     29  0.250010D-01  0.499029D-01  0.294561D-01  0.465050D-02 -0.353674D-01
     30 -0.277439D+01  0.800927D-02 -0.241531D-02  0.310723D-01 -0.767324D-01
               26            27            28            29            30
     26  0.247152D+01
     27 -0.493484D+00  0.566587D+00
     28 -0.120235D-01 -0.547720D-01  0.537540D+00
     29  0.528992D-01 -0.251772D-01 -0.308421D+00  0.261058D+01
     30 -0.125532D-01  0.189540D-01 -0.711267D-02  0.211680D-01  0.278044D+01
 ReadGW:  IGet=0 IStart=          78 Next=        4500 LGW=        4422.
 ICntrl=12127.
 Symmetry not used in FoFDir.
 MinBra= 0 MaxBra= 2 Meth= 1.
 IRaf=       0 NMat=   1 IRICut=       1 DoRegI=T DoRafI=F ISym2E= 0 JSym2E=0.
 PrsmSu:  NPrtUS=   8 ThrOK=T
 PRISM was handed    16349215 working-precision words and   945 shell-pairs
 PRISM was handed    16349215 working-precision words and   945 shell-pairs
 PRISM was handed    16349215 working-precision words and   945 shell-pairs
 PRISM was handed    16349215 working-precision words and   945 shell-pairs
 PRISM was handed    16349215 working-precision words and   945 shell-pairs
 PRISM was handed    16349215 working-precision words and   945 shell-pairs
 PRISM was handed    16349215 working-precision words and   945 shell-pairs
 PRISM was handed    16349215 working-precision words and   945 shell-pairs
 Pruned (  75, 302) grid will be used in CalDFT.
 CkSvGd:  ISavGI=        -1 IRadAn=       4 IRASav=       4 ISavGd=        -1.
 CalDSu:  NPrtUS=   8 ThrOK=T
 IPart= 0 IRanGd=          0 ScrnBf=T ScrnGd=T RCrit=4.00D+00 DoMicB=T.
 IPart= 4 IRanGd=          0 ScrnBf=T ScrnGd=T RCrit=4.00D+00 DoMicB=T.
 IPart= 5 IRanGd=          0 ScrnBf=T ScrnGd=T RCrit=4.00D+00 DoMicB=T.
 IPart= 3 IRanGd=          0 ScrnBf=T ScrnGd=T RCrit=4.00D+00 DoMicB=T.
 CutRad = 1000.00    CtRdIn =    0.00    XCrit =  15.00   ICut = 0
 IPart= 6 IRanGd=          0 ScrnBf=T ScrnGd=T RCrit=4.00D+00 DoMicB=T.
 CutRad = 1000.00    CtRdIn =    0.00    XCrit =  15.00   ICut = 0
 IPart= 2 IRanGd=          0 ScrnBf=T ScrnGd=T RCrit=4.00D+00 DoMicB=T.
 CutRad = 1000.00    CtRdIn =    0.00    XCrit =  15.00   ICut = 0
 CutRad = 1000.00    CtRdIn =    0.00    XCrit =  15.00   ICut = 0
 IPart= 1 IRanGd=          0 ScrnBf=T ScrnGd=T RCrit=4.00D+00 DoMicB=T.
 IPart= 7 IRanGd=          0 ScrnBf=T ScrnGd=T RCrit=4.00D+00 DoMicB=T.
 CutRad = 1000.00    CtRdIn =    0.00    XCrit =  15.00   ICut = 0
 CutRad = 1000.00    CtRdIn =    0.00    XCrit =  15.00   ICut = 0
 CutRad = 1000.00    CtRdIn =    0.00    XCrit =  15.00   ICut = 0
 CutRad = 1000.00    CtRdIn =    0.00    XCrit =  15.00   ICut = 0
 IPart= 3         8700 of         9562 points in      19 batches and       62 microbatches, Max-NSigAt=      10 Max-NSgAt2=      10
 IPart= 2         8750 of         9782 points in      21 batches and       74 microbatches, Max-NSigAt=      10 Max-NSgAt2=      10
 IPart= 1         9934 of        11250 points in      23 batches and       57 microbatches, Max-NSigAt=      10 Max-NSgAt2=      10
 IPart= 5         8812 of         9532 points in      19 batches and       70 microbatches, Max-NSigAt=      10 Max-NSgAt2=      10
 IPart= 6         8519 of         9542 points in      20 batches and       71 microbatches, Max-NSigAt=      10 Max-NSgAt2=      10
 IPart= 7         8902 of        10018 points in      21 batches and       67 microbatches, Max-NSigAt=      10 Max-NSgAt2=      10
 IPart= 0         9084 of         9734 points in      18 batches and       56 microbatches, Max-NSigAt=      10 Max-NSgAt2=      10
 IPart= 4         9004 of         9996 points in      19 batches and       65 microbatches, Max-NSigAt=      10 Max-NSgAt2=      10
 Polarizability after L703:
                1             2             3
      1  0.335713D+02
      2 -0.140731D+01  0.392112D+02
      3 -0.217476D+01 -0.406569D+01  0.341644D+02
 Dipole Derivatives after L703:
               1            2            3            4            5
      1 0.903185D-01 0.358107D-01 0.362461D-01 0.544525D-01-0.708903D-02
      2 0.234657D-01 0.172209D-01 0.399119D-01-0.114724D-01-0.958617D-01
      3 0.385442D-01 0.905448D-01 0.129850D+00-0.522033D-01-0.731406D-01
               6            7            8            9           10
      1-0.361442D-01 0.485004D-01-0.121935D-01 0.567645D-01-0.177437D+00
      2-0.146220D+00-0.217778D-01-0.997868D-02 0.113812D+00 0.224603D-01
      3-0.806653D-01 0.695671D-01 0.842201D-01-0.931631D-01-0.285011D-01
              11           12           13           14           15
      1-0.352243D-01-0.513473D-02 0.691311D-01-0.819503D-01-0.140635D+00
      2 0.338661D-01 0.127613D-01-0.884039D-01 0.117173D+00-0.181396D+00
      3 0.437214D-02 0.664344D-01-0.156444D+00-0.182273D+00-0.105014D+00
              16           17           18           19           20
      1-0.980464D-01 0.429767D-01 0.812626D-01 0.911558D-01 0.156142D-01
      2 0.548310D-01-0.930189D-02 0.576533D-01 0.231339D-01 0.405332D-01
      3 0.103389D+00 0.582068D-01 0.579668D-01 0.391905D-01 0.544379D-01
              21           22           23           24           25
      1 0.446599D-01 0.410488D-01 0.662641D-01 0.207393D-01 0.570788D-01
      2 0.104523D+00 0.821548D-01-0.150913D+00-0.949968D-02-0.351210D-01
      3 0.107290D+00 0.174314D-01 0.199787D-01 0.552776D-01-0.370931D-01
              26           27           28           29           30
      1-0.257602D-01-0.284414D-01-0.176203D+00 0.155171D-02-0.293174D-01
      2 0.102149D-01-0.526004D-02-0.492705D-01 0.470474D-01 0.137143D-01
      3-0.793210D-01-0.188999D+00 0.611836D-02 0.229746D-01 0.510221D-01
 Hessian after L703:
                1             2             3             4             5
      1  0.521873D+00
      2  0.184678D-01  0.470480D+00
      3 -0.283851D-01 -0.331871D-01  0.519561D+00
      4 -0.504749D-01 -0.286841D-01 -0.346317D-01  0.553473D-01
      5 -0.347625D-01 -0.128791D+00 -0.113100D+00  0.314774D-01  0.147870D+00
      6 -0.387075D-01 -0.102010D+00 -0.177880D+00  0.416095D-01  0.122648D+00
      7 -0.800471D-01 -0.366620D-01  0.755665D-01  0.205951D-02  0.302824D-02
      8 -0.361706D-01 -0.902123D-01  0.928360D-01  0.741413D-02  0.870276D-02
      9  0.752701D-01  0.945160D-01 -0.229993D+00  0.898477D-02  0.957887D-02
     10 -0.291684D+00 -0.210601D-01 -0.137322D-01 -0.833395D-02 -0.219313D-02
     11 -0.177110D-01 -0.446491D-01  0.369017D-02 -0.203169D-01 -0.188823D-02
     12 -0.153513D-01  0.385394D-02 -0.468474D-01 -0.256595D-01 -0.342920D-02
     13 -0.101362D+00  0.613901D-01  0.634769D-02  0.220884D-02  0.212447D-02
     14  0.597341D-01 -0.189919D+00  0.336903D-01  0.105990D-01 -0.255012D-01
     15  0.710312D-02  0.308515D-01 -0.689240D-01  0.109932D-01 -0.173805D-01
     16 -0.513520D-02 -0.437587D-03  0.388439D-02 -0.109858D-02  0.118015D-03
     17  0.250275D-01 -0.143994D-02 -0.821372D-02  0.730659D-04 -0.128669D-02
     18 -0.236253D-02  0.313219D-02  0.456263D-02 -0.107529D-02  0.731235D-04
     19  0.593902D-02  0.586428D-02 -0.105439D-01  0.337403D-03  0.428272D-03
     20 -0.103244D-01 -0.166486D-01  0.233859D-01 -0.520950D-03  0.170713D-02
     21 -0.105765D-02  0.242597D-02  0.173658D-03  0.500761D-03 -0.184338D-03
     22 -0.416074D-03 -0.610795D-03  0.171939D-02 -0.726806D-04  0.217337D-03
     23 -0.303002D-02 -0.597739D-03  0.279626D-02 -0.446446D-04  0.884242D-04
     24  0.262202D-02  0.215267D-02 -0.246730D-02  0.148977D-04  0.409830D-03
     25  0.329284D-03  0.675211D-03 -0.108564D-03  0.481036D-04 -0.264777D-03
     26 -0.273382D-04  0.897822D-03 -0.953233D-03 -0.805206D-04 -0.648535D-03
     27  0.555056D-03 -0.657430D-03  0.110233D-02 -0.432460D-03  0.143415D-02
     28  0.977513D-03  0.105728D-02 -0.116479D-03 -0.210994D-04 -0.173355D-03
     29 -0.120358D-02  0.880017D-03 -0.944909D-03  0.834799D-04 -0.252264D-03
     30  0.313827D-03 -0.107785D-02  0.711495D-03 -0.304112D-03 -0.497719D-04
                6             7             8             9            10
      6  0.194532D+00
      7 -0.643459D-02  0.809334D-01
      8 -0.165618D-01  0.390010D-01  0.101820D+00
      9 -0.216825D-01 -0.834910D-01 -0.102333D+00  0.249017D+00
     10 -0.129649D-02 -0.918111D-02 -0.887437D-03 -0.771058D-03  0.321535D+00
     11 -0.138113D-02 -0.126390D-01 -0.198097D-02 -0.231594D-02  0.177226D-01
     12 -0.251155D-02  0.273384D-01  0.115781D-02  0.296596D-02  0.160499D-01
     13  0.544238D-02  0.546587D-02 -0.130112D-01  0.129569D-02 -0.137269D-01
     14 -0.118048D-02  0.555789D-02 -0.149110D-01  0.309953D-03  0.527620D-02
     15  0.755802D-02 -0.126759D-01  0.249124D-01 -0.204189D-02  0.241395D-02
     16 -0.333673D-03  0.589309D-03 -0.146946D-03 -0.411231D-03 -0.618898D-03
     17 -0.599610D-03 -0.824109D-03  0.120268D-02  0.748461D-04  0.120660D-02
     18 -0.233097D-03 -0.576169D-03 -0.962619D-03  0.650393D-03 -0.252355D-02
     19  0.270474D-03 -0.694272D-03  0.403022D-02 -0.115600D-02  0.100638D-02
     20 -0.367515D-03  0.189354D-02 -0.389958D-02  0.363226D-03 -0.754015D-03
     21  0.175932D-03  0.441270D-03 -0.198238D-03  0.106773D-02  0.797107D-03
     22 -0.463127D-04  0.533370D-03 -0.380155D-03  0.262950D-03  0.442390D-03
     23 -0.222074D-03  0.496412D-03 -0.993374D-03  0.149011D-03 -0.350518D-04
     24  0.744468D-04 -0.240251D-03  0.116693D-02 -0.146683D-03  0.124581D-03
     25 -0.276909D-03 -0.749839D-04  0.367850D-04 -0.125089D-04 -0.139712D-04
     26 -0.406716D-03 -0.155163D-03  0.127307D-04 -0.275548D-03 -0.811043D-04
     27  0.834223D-05  0.142488D-03  0.342363D-03  0.161801D-03 -0.267215D-03
     28 -0.226867D-03  0.415989D-03  0.114207D-03  0.283087D-04  0.575070D-03
     29  0.816257D-04  0.303216D-03  0.259295D-03 -0.676294D-04  0.805489D-03
     30 -0.422162D-04 -0.707713D-04 -0.360086D-03  0.152588D-05 -0.795039D-03
               11            12            13            14            15
     11  0.520063D-01
     12  0.682708D-03  0.455111D-01
     13  0.315414D-01 -0.188738D-02  0.478666D+00
     14 -0.113423D-02 -0.197820D-02 -0.107416D+00  0.432746D+00
     15 -0.131416D-02  0.760936D-03 -0.194894D+00 -0.121914D+00  0.290914D+00
     16  0.213592D-02  0.512341D-04 -0.270528D+00  0.590860D-01  0.119758D+00
     17 -0.413553D-02 -0.860929D-04  0.560084D-01 -0.558476D-01 -0.700956D-02
     18  0.130074D-02  0.254730D-03  0.114091D+00 -0.717480D-02 -0.731059D-01
     19  0.827901D-03 -0.829996D-03 -0.962660D-01 -0.224958D-01  0.498652D-01
     20  0.175081D-02 -0.487606D-03 -0.243037D-01 -0.135612D+00  0.731080D-01
     21 -0.526481D-03 -0.115777D-03  0.514525D-01  0.702099D-01 -0.128216D+00
     22 -0.224938D-03  0.198363D-03  0.545858D-02 -0.120966D-01 -0.206446D-02
     23  0.265379D-03 -0.549435D-04  0.936891D-02 -0.173874D-01 -0.146618D-02
     24 -0.349253D-03 -0.216937D-04 -0.117588D-01  0.231137D-01  0.450773D-03
     25 -0.287971D-03 -0.107060D-03  0.206740D-02  0.342199D-02  0.133970D-01
     26 -0.139204D-03  0.162517D-03  0.341840D-02  0.700906D-02  0.197146D-01
     27  0.310219D-04 -0.166758D-03  0.416662D-02  0.287340D-02 -0.247638D-01
     28 -0.104808D-02  0.197357D-03 -0.119837D-01 -0.166637D-02  0.610390D-02
     29 -0.952826D-04  0.179073D-03 -0.191204D-01  0.556683D-03  0.497792D-03
     30  0.182321D-03  0.170436D-03  0.257448D-01  0.205005D-02 -0.263161D-02
               16            17            18            19            20
     16  0.281662D+00
     17 -0.620433D-01  0.579213D-01
     18 -0.125559D+00  0.516870D-02  0.733425D-01
     19 -0.393366D-02 -0.156518D-01  0.199446D-01  0.524413D+00
     20  0.302921D-02  0.455640D-02 -0.307846D-02 -0.345964D-01  0.532060D+00
     21  0.142814D-02  0.784350D-02 -0.248647D-02 -0.131104D-02  0.891037D-02
     22  0.573939D-03 -0.133113D-03 -0.966726D-03 -0.899933D-01  0.940873D-01
     23 -0.323595D-03  0.118120D-02  0.292021D-04  0.934207D-01 -0.264497D+00
     24 -0.278585D-03 -0.938550D-03  0.647399D-03  0.115343D-01 -0.242755D-01
     25 -0.106951D-02 -0.100179D-02 -0.496060D-03 -0.500190D-01 -0.140979D-01
     26 -0.401025D-03 -0.401567D-03  0.325265D-04 -0.141177D-01 -0.687594D-01
     27 -0.161752D-03  0.723249D-03 -0.127345D-02 -0.483495D-01 -0.769683D-01
     28 -0.441383D-03 -0.266142D-02 -0.475873D-03 -0.290790D+00 -0.144128D-01
     29 -0.101667D-02 -0.175023D-02  0.147939D-02 -0.177097D-01 -0.506582D-01
     30  0.162243D-02  0.303723D-02 -0.235869D-02 -0.194242D-01 -0.590127D-03
               21            22            23            24            25
     21  0.454752D+00
     22  0.110785D-01  0.919640D-01
     23 -0.224512D-01 -0.103245D+00  0.288217D+00
     24 -0.459067D-01 -0.133888D-01  0.229593D-01  0.516611D-01
     25 -0.417998D-01  0.237134D-02  0.430386D-02  0.126335D-01  0.545772D-01
     26 -0.654846D-01 -0.677794D-02 -0.100312D-01 -0.274590D-01  0.186166D-01
     27 -0.238447D+00 -0.790226D-03 -0.219997D-02 -0.318749D-02  0.475147D-01
     28 -0.215298D-01 -0.108616D-01 -0.911245D-03 -0.126286D-02 -0.821593D-02
     29 -0.544943D-03  0.291643D-01  0.375482D-02  0.321985D-02 -0.114020D-01
     30 -0.409968D-01  0.399736D-02  0.460521D-03 -0.110385D-02 -0.307443D-01
               26            27            28            29            30
     26  0.728797D-01
     27  0.767773D-01  0.270338D+00
     28 -0.394155D-03 -0.237774D-02  0.320345D+00
     29 -0.819404D-03 -0.235576D-02  0.200959D-01  0.481245D-01
     30 -0.210779D-02 -0.377190D-02  0.196600D-01 -0.154449D-02  0.500216D-01
 FrcOut:
 IF    =   559 IFX   =   589 IFXYZ =   619
 IFFX  =   649 IFFFX =  1114 IFLen =    30
 IFFLen=   465 IFFFLn=     0 IEDerv=  1114
 LEDerv=  1493 IFroze=  2611 ICStrt= 21344
 DipoleDeriv   = 9.03184745D-02 2.34656576D-02 3.85442349D-02
                 3.58107113D-02 1.72208859D-02 9.05447520D-02
                 3.62460685D-02 3.99118982D-02 1.29850452D-01
                 5.44525316D-02-1.14724003D-02-5.22032556D-02
                -7.08902874D-03-9.58617108D-02-7.31406412D-02
                -3.61442274D-02-1.46219987D-01-8.06652768D-02
                 4.85004165D-02-2.17777968D-02 6.95671496D-02
                -1.21935282D-02-9.97868194D-03 8.42201235D-02
                 5.67644577D-02 1.13812147D-01-9.31630717D-02
                -1.77436904D-01 2.24602617D-02-2.85011198D-02
                -3.52243300D-02 3.38660930D-02 4.37213774D-03
                -5.13472870D-03 1.27612642D-02 6.64343987D-02
                 6.91310685D-02-8.84039065D-02-1.56443566D-01
                -8.19503202D-02 1.17172990D-01-1.82273392D-01
                -1.40634575D-01-1.81396346D-01-1.05013713D-01
                -9.80464286D-02 5.48309893D-02 1.03389378D-01
                 4.29767190D-02-9.30188758D-03 5.82068355D-02
                 8.12626181D-02 5.76532710D-02 5.79668026D-02
                 9.11558265D-02 2.31338790D-02 3.91904898D-02
                 1.56141572D-02 4.05331627D-02 5.44379427D-02
                 4.46598702D-02 1.04523191D-01 1.07289514D-01
                 4.10487754D-02 8.21548437D-02 1.74314490D-02
                 6.62641339D-02-1.50913180D-01 1.99786780D-02
                 2.07393288D-02-9.49968367D-03 5.52775945D-02
                 5.70788062D-02-3.51209826D-02-3.70931161D-02
                -2.57602198D-02 1.02149044D-02-7.93210280D-02
                -2.84413643D-02-5.26004473D-03-1.88998834D-01
                -1.76202566D-01-4.92705450D-02 6.11835647D-03
                 1.55170573D-03 4.70474241D-02 2.29745921D-02
                -2.93174481D-02 1.37142903D-02 5.10221346D-02
 Full mass-weighted force constant matrix:
 Low frequencies ---   -4.5760    0.0004    0.0006    0.0007   19.6840   24.8877
 Low frequencies ---  105.8646  120.2548  355.4489
 Dipole derivatives wrt mode   1: -3.98684D-02 -1.65220D-02 -2.83695D-01
 Vibrational polarizability contributions from mode   1       0.0038240       0.0006567       0.1936264
 Vibrational hyperpolarizability contributions from mode   1       0.0000000       0.0000000       0.0000000
 Dipole derivatives wrt mode   2: -5.34789D-02 -3.74874D-01 -5.80852D-01
 Vibrational polarizability contributions from mode   2       0.0053265       0.2617276       0.6283632
 Vibrational hyperpolarizability contributions from mode   2       0.0000000       0.0000000       0.0000000
 Dipole derivatives wrt mode   3:  1.10005D+00  1.67474D+00  2.99339D+00
 Vibrational polarizability contributions from mode   3       0.2577556       0.5974170       1.9085781
 Vibrational hyperpolarizability contributions from mode   3       0.0000000       0.0000000       0.0000000
 Dipole derivatives wrt mode   4:  1.35149D+00  1.66965D+00  2.96936D+00
 Vibrational polarizability contributions from mode   4       0.3134870       0.4784608       1.5132929
 Vibrational hyperpolarizability contributions from mode   4       0.0000000       0.0000000       0.0000000
 Dipole derivatives wrt mode   5: -9.62537D-01  4.67718D-01  9.44430D-01
 Vibrational polarizability contributions from mode   5       0.0319679       0.0075483       0.0307765
 Vibrational hyperpolarizability contributions from mode   5       0.0000000       0.0000000       0.0000000
 Dipole derivatives wrt mode   6: -1.12982D-03 -9.63076D-02  5.00873D-02
 Vibrational polarizability contributions from mode   6       0.0000000       0.0002830       0.0000766
 Vibrational hyperpolarizability contributions from mode   6       0.0000000       0.0000000       0.0000000
 Dipole derivatives wrt mode   7:  3.97852D-02 -9.72658D-01  5.27958D-01
 Vibrational polarizability contributions from mode   7       0.0000477       0.0285116       0.0084004
 Vibrational hyperpolarizability contributions from mode   7       0.0000000       0.0000000       0.0000000
 Dipole derivatives wrt mode   8:  3.09956D-01  7.38659D-02  5.70929D-02
 Vibrational polarizability contributions from mode   8       0.0024417       0.0001387       0.0000828
 Vibrational hyperpolarizability contributions from mode   8       0.0000000       0.0000000       0.0000000
 Dipole derivatives wrt mode   9:  4.41702D-03  4.38614D-01 -2.49720D-01
 Vibrational polarizability contributions from mode   9       0.0000004       0.0039380       0.0012765
 Vibrational hyperpolarizability contributions from mode   9       0.0000000       0.0000000       0.0000000
 Dipole derivatives wrt mode  10: -1.42292D+00  3.49753D-01  7.45631D-01
 Vibrational polarizability contributions from mode  10       0.0392954       0.0023741       0.0107902
 Vibrational hyperpolarizability contributions from mode  10       0.0000000       0.0000000       0.0000000
 Dipole derivatives wrt mode  11: -4.96791D-02  1.43194D+00 -7.75527D-01
 Vibrational polarizability contributions from mode  11       0.0000355       0.0294702       0.0086442
 Vibrational hyperpolarizability contributions from mode  11       0.0000000       0.0000000       0.0000000
 Dipole derivatives wrt mode  12: -2.33351D-02  2.43675D+00 -1.40735D+00
 Vibrational polarizability contributions from mode  12       0.0000074       0.0804767       0.0268444
 Vibrational hyperpolarizability contributions from mode  12       0.0000000       0.0000000       0.0000000
 Dipole derivatives wrt mode  13:  1.37473D+00 -8.45252D-01 -1.43367D+00
 Vibrational polarizability contributions from mode  13       0.0254485       0.0096205       0.0276775
 Vibrational hyperpolarizability contributions from mode  13       0.0000000       0.0000000       0.0000000
 Dipole derivatives wrt mode  14:  7.61596D-03  9.51194D-01 -4.66255D-01
 Vibrational polarizability contributions from mode  14       0.0000007       0.0112771       0.0027096
 Vibrational hyperpolarizability contributions from mode  14       0.0000000       0.0000000       0.0000000
 Dipole derivatives wrt mode  15:  7.51298D-01 -6.87248D-01  1.01388D+00
 Vibrational polarizability contributions from mode  15       0.0069483       0.0058141       0.0126539
 Vibrational hyperpolarizability contributions from mode  15       0.0000000       0.0000000       0.0000000
 Dipole derivatives wrt mode  16:  2.92967D+00  1.45651D+00  1.97850D+00
 Vibrational polarizability contributions from mode  16       0.1054173       0.0260556       0.0480782
 Vibrational hyperpolarizability contributions from mode  16       0.0000000       0.0000000       0.0000000
 Dipole derivatives wrt mode  17:  1.50393D+00 -6.69529D-01 -1.32577D+00
 Vibrational polarizability contributions from mode  17       0.0273411       0.0054188       0.0212472
 Vibrational hyperpolarizability contributions from mode  17       0.0000000       0.0000000       0.0000000
 Dipole derivatives wrt mode  18:  5.49026D-02 -4.72191D+00  2.01112D+00
 Vibrational polarizability contributions from mode  18       0.0000094       0.0698322       0.0126676
 Vibrational hyperpolarizability contributions from mode  18       0.0000000       0.0000000       0.0000000
 Dipole derivatives wrt mode  19: -3.80461D-01 -3.54017D+00 -7.08651D+00
 Vibrational polarizability contributions from mode  19       0.0004520       0.0391343       0.1568104
 Vibrational hyperpolarizability contributions from mode  19       0.0000000       0.0000000       0.0000000
 Dipole derivatives wrt mode  20:  2.61861D+00  2.97719D+00 -3.02275D-01
 Vibrational polarizability contributions from mode  20       0.0203570       0.0263140       0.0002713
 Vibrational hyperpolarizability contributions from mode  20       0.0000000       0.0000000       0.0000000
 Dipole derivatives wrt mode  21: -6.45836D+00 -4.60421D-01 -2.84737D+00
 Vibrational polarizability contributions from mode  21       0.1236396       0.0006284       0.0240326
 Vibrational hyperpolarizability contributions from mode  21       0.0000000       0.0000000       0.0000000
 Dipole derivatives wrt mode  22:  3.44384D+00 -7.36226D-01 -2.96741D+00
 Vibrational polarizability contributions from mode  22       0.0336164       0.0015363       0.0249586
 Vibrational hyperpolarizability contributions from mode  22       0.0000000       0.0000000       0.0000000
 Dipole derivatives wrt mode  23: -5.77495D-01  5.04993D+00 -2.36933D+00
 Vibrational polarizability contributions from mode  23       0.0009447       0.0722409       0.0159025
 Vibrational hyperpolarizability contributions from mode  23       0.0000000       0.0000000       0.0000000
 Dipole derivatives wrt mode  24: -4.94570D+00  1.10671D+00  2.29401D+00
 Vibrational polarizability contributions from mode  24       0.0658167       0.0032957       0.0141603
 Vibrational hyperpolarizability contributions from mode  24       0.0000000       0.0000000       0.0000000
 Diagonal vibrational polarizability:
        1.0641808       1.7621708       4.6919218
 Harmonic frequencies (cm**-1), IR intensities (KM/Mole), Raman scattering
 activities (A**4/AMU), depolarization ratios for plane and unpolarized
 incident light, reduced masses (AMU), force constants (mDyne/A),
 and normal coordinates:
                           1         2         3         4         5
                           A         A         A         A         A
       Frequencies ---   105.7634  120.2062  355.4476  395.9755  883.1343
    Reduced masses ---     1.0324    1.1341    1.6540    1.5548    2.6416
   Force constants ---     0.0068    0.0097    0.1231    0.1436    1.2139
    IR Intensities ---     0.0823    0.4808   12.9753   13.4314    2.0372
 Coord Atom Element:
   1     1     6          0.02041   0.01755  -0.02167   0.03502  -0.04228
   2     1     6          0.01167   0.00481  -0.08096   0.08037   0.22095
   3     1     6          0.02941   0.03065   0.08139  -0.04791  -0.07523
   1     2     1          0.29150  -0.32662   0.03606   0.13661  -0.15632
   2     2     1          0.06525  -0.21281  -0.24598   0.01691   0.10847
   3     2     1         -0.08619   0.30066   0.21158  -0.01678   0.03357
   1     3     1         -0.18526   0.34392  -0.14491   0.24945  -0.33531
   2     3     1         -0.08657   0.24052   0.13454   0.01305   0.50106
   3     3     1         -0.10484   0.28735   0.14326   0.00079  -0.05095
   1     4     1          0.00044   0.03669  -0.01942   0.03435  -0.03499
   2     4     1          0.08238   0.00377  -0.14276   0.33305  -0.04619
   3     4     1          0.32174  -0.39669   0.19815  -0.16697   0.06077
   1     5     6         -0.01222  -0.04137   0.03864  -0.16440   0.14435
   2     5     6         -0.01140  -0.03751  -0.08238  -0.02894  -0.05637
   3     5     6         -0.01996  -0.06636  -0.15243  -0.04385  -0.11082
   1     6     1         -0.06157  -0.19045   0.40839   0.20717   0.17422
   2     6     1         -0.05262  -0.18573   0.28202   0.33259  -0.04229
   3     6     1         -0.10874  -0.32307   0.49177   0.59364  -0.07779
   1     7     6         -0.00694   0.02627  -0.02745   0.03974  -0.03126
   2     7     6         -0.00226   0.03146   0.11088  -0.08215  -0.18392
   3     7     6         -0.00907   0.03188  -0.02400   0.04079   0.14582
   1     8     1          0.33957   0.16422  -0.13951   0.25339  -0.30610
   2     8     1          0.11837   0.07599   0.04286   0.00936  -0.32723
   3     8     1          0.29965   0.20514   0.19585   0.00633   0.40348
   1     9     1         -0.43665  -0.09509   0.01667   0.13062  -0.14334
   2     9     1          0.26831   0.22467   0.31583  -0.01773  -0.03180
   3     9     1         -0.01264  -0.00949  -0.09606   0.00409   0.10577
   1    10     1          0.03709   0.03811  -0.03240   0.05580  -0.04130
   2    10     1         -0.37153  -0.13173   0.23815  -0.32143   0.06831
   3    10     1         -0.31351  -0.01833  -0.01290   0.18582   0.00410
                           6         7         8         9        10
                           A         A         A         A         A
       Frequencies ---   939.1088  944.9654 1029.0083 1146.5908 1177.5388
    Reduced masses ---     1.2109    1.1880    1.4429    2.0545    1.8808
   Force constants ---     0.6292    0.6250    0.9002    1.5914    1.5365
    IR Intensities ---     0.0118    1.2264    0.1048    0.2548    2.7030
 Coord Atom Element:
   1     1     6         -0.03672   0.07369  -0.06193   0.08601   0.11334
   2     1     6          0.02214   0.03803  -0.03526  -0.11790  -0.01419
   3     1     6          0.08298   0.03515  -0.07904   0.01538  -0.08325
   1     2     1         -0.06359  -0.30150   0.29724   0.01714  -0.14468
   2     2     1          0.36161   0.26971  -0.37963  -0.07365  -0.21729
   3     2     1         -0.20489  -0.07038   0.13565   0.01080   0.16854
   1     3     1          0.21307  -0.20735   0.07568   0.08651  -0.22689
   2     3     1         -0.40969   0.00062   0.23536  -0.15465   0.30205
   3     3     1         -0.04740  -0.09698   0.11897  -0.00201  -0.04140
   1     4     1         -0.02466   0.09760  -0.08765   0.08983   0.10107
   2     4     1          0.14603  -0.47287   0.36341  -0.22409  -0.34886
   3     4     1         -0.22758   0.01447   0.12077   0.03617   0.25547
   1     5     6          0.00104  -0.00071   0.07689  -0.00395  -0.16473
   2     5     6         -0.02757   0.00605   0.05252   0.19842   0.05259
   3     5     6          0.01530  -0.00238   0.09168  -0.11022   0.09958
   1     6     1         -0.00594   0.00627  -0.01995  -0.02026  -0.16912
   2     6     1          0.19199  -0.22799  -0.03671   0.73766   0.06342
   3     6     1         -0.10556   0.12574  -0.06780  -0.40624   0.10959
   1     7     6          0.03765  -0.07432  -0.06096  -0.08289   0.11338
   2     7     6         -0.05678  -0.01155  -0.05028  -0.07936  -0.05894
   3     7     6         -0.06416  -0.05078  -0.07023   0.09476  -0.05737
   1     8     1         -0.19385   0.20891   0.08456  -0.07399  -0.21229
   2     8     1         -0.18919   0.09994  -0.01639  -0.08043  -0.21127
   3     8     1          0.37559   0.04028   0.25427   0.12811   0.24279
   1     9     1          0.04429   0.28819   0.27492  -0.00932  -0.15823
   2     9     1          0.37319   0.21752   0.32756  -0.05594   0.25277
   3     9     1         -0.20138  -0.19483  -0.25031   0.05988  -0.09465
   1    10     1          0.00718  -0.07622  -0.07703  -0.07993   0.07205
   2    10     1          0.26680  -0.27424  -0.10049  -0.16260   0.40378
   3    10     1          0.00496   0.39603   0.37412   0.17426  -0.15173
                          11        12        13        14        15
                           A         A         A         A         A
       Frequencies ---  1368.3615 1409.1002 1413.6856 1469.3876 1478.5626
    Reduced masses ---     1.3357    1.4574    1.2027    1.0761    1.0432
   Force constants ---     1.4736    1.7050    1.4161    1.3689    1.3437
    IR Intensities ---     2.6544    7.9189    4.6597    1.1222    2.0647
 Coord Atom Element:
   1     1     6         -0.04760   0.01114  -0.03810   0.02815   0.01530
   2     1     6          0.00867  -0.10852   0.08958  -0.01274   0.00548
   3     1     6          0.02409   0.02109  -0.00623   0.04023  -0.02250
   1     2     1          0.26588  -0.11052   0.27360   0.06397  -0.37269
   2     2     1         -0.14724   0.28630  -0.31025  -0.14001  -0.07604
   3     2     1          0.05776  -0.24101   0.21617   0.11314   0.15896
   1     3     1          0.21683  -0.02738   0.15037  -0.43696   0.12350
   2     3     1         -0.26086   0.24713  -0.31532  -0.07209  -0.25492
   3     3     1         -0.00316   0.17710  -0.12910  -0.18479  -0.09550
   1     4     1         -0.01318  -0.02073   0.00503   0.03249  -0.02869
   2     4     1         -0.22964   0.31307  -0.40071   0.18208   0.19096
   3     4     1         -0.06992   0.02533  -0.06585  -0.42414   0.33180
   1     5     6         -0.00402  -0.00312   0.00406  -0.00101  -0.00396
   2     5     6          0.13561   0.10645   0.00069   0.02721   0.02990
   3     5     6         -0.07438  -0.05803   0.00667  -0.01515  -0.02001
   1     6     1          0.01726   0.01200  -0.00237   0.00158   0.00201
   2     6     1         -0.56993  -0.40098  -0.00087  -0.06085  -0.13826
   3     6     1          0.31250   0.21913  -0.02002   0.03287   0.07427
   1     7     6          0.04812  -0.00858  -0.03282  -0.02715  -0.03156
   2     7     6         -0.01227  -0.08024  -0.05027  -0.04255   0.01185
   3     7     6         -0.02245   0.08564   0.06741  -0.01083   0.00127
   1     8     1         -0.20706   0.03627   0.13764   0.44363   0.06828
   2     8     1         -0.14979  -0.01099   0.06648   0.14736   0.00076
   3     8     1          0.23224  -0.32609  -0.31423   0.16530   0.39400
   1     9     1         -0.25792   0.10996   0.24168  -0.04542   0.43511
   2     9     1         -0.14793   0.38776   0.33682  -0.18505  -0.27806
   3     9     1          0.09882  -0.12747  -0.14217   0.06089   0.00005
   1    10     1          0.02000   0.00707  -0.00985  -0.05914   0.01309
   2    10     1         -0.06647   0.15786   0.14757   0.46289  -0.00684
   3    10     1          0.23789  -0.30688  -0.35262   0.06710  -0.37244
                          16        17        18        19        20
                           A         A         A         A         A
       Frequencies ---  1480.2301 1492.0566 2931.2714 2935.6981 3010.7824
    Reduced masses ---     1.0505    1.0490    1.0604    1.0625    1.0747
   Force constants ---     1.3561    1.3760    5.3684    5.3951    5.7400
    IR Intensities ---    14.6189    4.4677   26.3440   62.8961   15.8121
 Coord Atom Element:
   1     1     6         -0.03846  -0.00832  -0.00570  -0.00655  -0.02646
   2     1     6         -0.00049  -0.02056  -0.03710  -0.03292  -0.00208
   3     1     6         -0.02159   0.02800  -0.03602  -0.03238  -0.01433
   1     2     1          0.14989   0.40624   0.15241   0.13199   0.00917
   2     2     1          0.21707   0.08889   0.44989   0.40235   0.05123
   3     2     1         -0.23411  -0.18310   0.55350   0.48790   0.06155
   1     3     1          0.41518  -0.15757   0.03176   0.02430  -0.04646
   2     3     1          0.21437   0.29602   0.03384   0.02797  -0.04968
   3     3     1          0.26880   0.11231  -0.10174  -0.08232   0.09248
   1     4     1         -0.02159   0.03734  -0.12570  -0.08613   0.35116
   2     4     1         -0.30287  -0.20317  -0.02029  -0.01550   0.02641
   3     4     1          0.25243  -0.37707  -0.02322  -0.01954   0.01635
   1     5     6         -0.00946  -0.02758   0.00014   0.00057  -0.00051
   2     5     6         -0.01592   0.00836  -0.00250  -0.00040  -0.00037
   3     5     6         -0.00905   0.01979   0.00127  -0.00111   0.00062
   1     6     1         -0.00620  -0.04079   0.00051   0.00889   0.01028
   2     6     1          0.02991   0.00619  -0.00261  -0.00436   0.00045
   3     6     1         -0.02462   0.00230   0.00090  -0.00873  -0.00183
   1     7     6         -0.02525  -0.00907   0.00476  -0.00726   0.06261
   2     7     6         -0.02628   0.03409   0.00954  -0.01148   0.02994
   3     7     6         -0.01357  -0.00285   0.04425  -0.05111   0.01901
   1     8     1          0.40948  -0.15324  -0.03404   0.03419   0.12485
   2     8     1          0.14701  -0.07194   0.09192  -0.09688  -0.25121
   3     8     1          0.15927   0.29620   0.02324  -0.02381  -0.01944
   1     9     1         -0.02146   0.39969  -0.13076   0.14680  -0.01411
   2     9     1         -0.19811  -0.16629  -0.20924   0.23526  -0.04968
   3     9     1          0.06084  -0.02886  -0.59059   0.67964  -0.15278
   1    10     1         -0.05412   0.04365   0.11540  -0.10239  -0.85920
   2    10     1          0.40097  -0.21025   0.01448  -0.01536  -0.05487
   3    10     1          0.04381  -0.35696   0.02481  -0.02577  -0.05941
                          21        22        23        24
                           A         A         A         A
       Frequencies ---  3013.0774 3081.2979 3082.1963 3162.4705
    Reduced masses ---     1.0725    1.0945    1.0953    1.0887
   Force constants ---     5.7365    6.1226    6.1308    6.4150
    IR Intensities ---    50.0300   21.2076   31.4490   30.9473
 Coord Atom Element:
   1     1     6         -0.06295   0.03913   0.03085  -0.00587
   2     1     6         -0.00127   0.02452   0.01915  -0.00476
   3     1     6         -0.03293  -0.05229  -0.04107   0.00648
   1     2     1          0.01188   0.02436   0.01932  -0.00451
   2     2     1          0.09385   0.04197   0.03366  -0.00979
   3     2     1          0.10984   0.03064   0.02531  -0.00756
   1     3     1         -0.11437  -0.24900  -0.19533   0.02908
   2     3     1         -0.12998  -0.31132  -0.24457   0.04141
   3     3     1          0.24243   0.61790   0.48592  -0.07432
   1     4     1          0.85699  -0.24965  -0.19170   0.05230
   2     4     1          0.05593  -0.01417  -0.01302   0.00232
   3     4     1          0.04297  -0.02643  -0.01971   0.00453
   1     5     6          0.00134  -0.00996   0.00133  -0.07500
   2     5     6         -0.00069   0.00198  -0.00092   0.01703
   3     5     6         -0.00072   0.00429  -0.00020   0.03522
   1     6     1         -0.02527   0.13455  -0.01772   0.87965
   2     6     1          0.00170  -0.02647   0.00523  -0.19240
   3     6     1          0.00364  -0.05626   0.00657  -0.39950
   1     7     6         -0.02517   0.03212  -0.04212  -0.00625
   2     7     6         -0.01249  -0.04276   0.05578   0.00782
   3     7     6         -0.00617  -0.00616   0.00815  -0.00043
   1     8     1         -0.05244  -0.22344   0.29169   0.03452
   2     8     1          0.11153   0.52203  -0.68291  -0.08470
   3     8     1          0.00864   0.05424  -0.07122  -0.00514
   1     9     1          0.00184   0.01947  -0.02561  -0.00473
   2     9     1          0.01335   0.00441  -0.00669  -0.00163
   3     9     1          0.04435   0.04139  -0.05569  -0.01298
   1    10     1          0.35458  -0.18604   0.23776   0.05091
   2    10     1          0.02569  -0.02288   0.02703   0.00559
   3    10     1          0.02225  -0.01659   0.02315   0.00354
 Harmonic frequencies (cm**-1), IR intensities (KM/Mole), Raman scattering
 activities (A**4/AMU), depolarization ratios for plane and unpolarized
 incident light, reduced masses (AMU), force constants (mDyne/A),
 and normal coordinates:
                     1                      2                      3
                     A                      A                      A
 Frequencies --   105.7634               120.2062               355.4476
 Red. masses --     1.0324                 1.1341                 1.6540
 Frc consts  --     0.0068                 0.0097                 0.1231
 IR Inten    --     0.0823                 0.4808                12.9753
 Atom AN      X      Y      Z        X      Y      Z        X      Y      Z
   1   6     0.02   0.01   0.03     0.02   0.00   0.03    -0.02  -0.08   0.08
   2   1     0.29   0.07  -0.09    -0.33  -0.21   0.30     0.04  -0.25   0.21
   3   1    -0.19  -0.09  -0.10     0.34   0.24   0.29    -0.14   0.13   0.14
   4   1     0.00   0.08   0.32     0.04   0.00  -0.40    -0.02  -0.14   0.20
   5   6    -0.01  -0.01  -0.02    -0.04  -0.04  -0.07     0.04  -0.08  -0.15
   6   1    -0.06  -0.05  -0.11    -0.19  -0.19  -0.32     0.41   0.28   0.49
   7   6    -0.01   0.00  -0.01     0.03   0.03   0.03    -0.03   0.11  -0.02
   8   1     0.34   0.12   0.30     0.16   0.08   0.21    -0.14   0.04   0.20
   9   1    -0.44   0.27  -0.01    -0.10   0.22  -0.01     0.02   0.32  -0.10
  10   1     0.04  -0.37  -0.31     0.04  -0.13  -0.02    -0.03   0.24  -0.01
                     4                      5                      6
                     A                      A                      A
 Frequencies --   395.9755               883.1343               939.1088
 Red. masses --     1.5548                 2.6416                 1.2109
 Frc consts  --     0.1436                 1.2139                 0.6292
 IR Inten    --    13.4314                 2.0372                 0.0118
 Atom AN      X      Y      Z        X      Y      Z        X      Y      Z
   1   6     0.04   0.08  -0.05    -0.04   0.22  -0.08    -0.04   0.02   0.08
   2   1     0.14   0.02  -0.02    -0.16   0.11   0.03    -0.06   0.36  -0.20
   3   1     0.25   0.01   0.00    -0.34   0.50  -0.05     0.21  -0.41  -0.05
   4   1     0.03   0.33  -0.17    -0.03  -0.05   0.06    -0.02   0.15  -0.23
   5   6    -0.16  -0.03  -0.04     0.14  -0.06  -0.11     0.00  -0.03   0.02
   6   1     0.21   0.33   0.59     0.17  -0.04  -0.08    -0.01   0.19  -0.11
   7   6     0.04  -0.08   0.04    -0.03  -0.18   0.15     0.04  -0.06  -0.06
   8   1     0.25   0.01   0.01    -0.31  -0.33   0.40    -0.19  -0.19   0.38
   9   1     0.13  -0.02   0.00    -0.14  -0.03   0.11     0.04   0.37  -0.20
  10   1     0.06  -0.32   0.19    -0.04   0.07   0.00     0.01   0.27   0.00
                     7                      8                      9
                     A                      A                      A
 Frequencies --   944.9654              1029.0083              1146.5908
 Red. masses --     1.1880                 1.4429                 2.0545
 Frc consts  --     0.6250                 0.9002                 1.5914
 IR Inten    --     1.2264                 0.1048                 0.2548
 Atom AN      X      Y      Z        X      Y      Z        X      Y      Z
   1   6     0.07   0.04   0.04    -0.06  -0.04  -0.08     0.09  -0.12   0.02
   2   1    -0.30   0.27  -0.07     0.30  -0.38   0.14     0.02  -0.07   0.01
   3   1    -0.21   0.00  -0.10     0.08   0.24   0.12     0.09  -0.15   0.00
   4   1     0.10  -0.47   0.01    -0.09   0.36   0.12     0.09  -0.22   0.04
   5   6     0.00   0.01   0.00     0.08   0.05   0.09     0.00   0.20  -0.11
   6   1     0.01  -0.23   0.13    -0.02  -0.04  -0.07    -0.02   0.74  -0.41
   7   6    -0.07  -0.01  -0.05    -0.06  -0.05  -0.07    -0.08  -0.08   0.09
   8   1     0.21   0.10   0.04     0.08  -0.02   0.25    -0.07  -0.08   0.13
   9   1     0.29   0.22  -0.19     0.27   0.33  -0.25    -0.01  -0.06   0.06
  10   1    -0.08  -0.27   0.40    -0.08  -0.10   0.37    -0.08  -0.16   0.17
                    10                     11                     12
                     A                      A                      A
 Frequencies --  1177.5388              1368.3615              1409.1002
 Red. masses --     1.8808                 1.3357                 1.4574
 Frc consts  --     1.5365                 1.4736                 1.7050
 IR Inten    --     2.7030                 2.6544                 7.9189
 Atom AN      X      Y      Z        X      Y      Z        X      Y      Z
   1   6     0.11  -0.01  -0.08    -0.05   0.01   0.02     0.01  -0.11   0.02
   2   1    -0.14  -0.22   0.17     0.27  -0.15   0.06    -0.11   0.29  -0.24
   3   1    -0.23   0.30  -0.04     0.22  -0.26   0.00    -0.03   0.25   0.18
   4   1     0.10  -0.35   0.26    -0.01  -0.23  -0.07    -0.02   0.31   0.03
   5   6    -0.16   0.05   0.10     0.00   0.14  -0.07     0.00   0.11  -0.06
   6   1    -0.17   0.06   0.11     0.02  -0.57   0.31     0.01  -0.40   0.22
   7   6     0.11  -0.06  -0.06     0.05  -0.01  -0.02    -0.01  -0.08   0.09
   8   1    -0.21  -0.21   0.24    -0.21  -0.15   0.23     0.04  -0.01  -0.33
   9   1    -0.16   0.25  -0.09    -0.26  -0.15   0.10     0.11   0.39  -0.13
  10   1     0.07   0.40  -0.15     0.02  -0.07   0.24     0.01   0.16  -0.31
                    13                     14                     15
                     A                      A                      A
 Frequencies --  1413.6856              1469.3876              1478.5626
 Red. masses --     1.2027                 1.0761                 1.0432
 Frc consts  --     1.4161                 1.3689                 1.3437
 IR Inten    --     4.6597                 1.1222                 2.0647
 Atom AN      X      Y      Z        X      Y      Z        X      Y      Z
   1   6    -0.04   0.09  -0.01     0.03  -0.01   0.04     0.02   0.01  -0.02
   2   1     0.27  -0.31   0.22     0.06  -0.14   0.11    -0.37  -0.08   0.16
   3   1     0.15  -0.32  -0.13    -0.44  -0.07  -0.18     0.12  -0.25  -0.10
   4   1     0.01  -0.40  -0.07     0.03   0.18  -0.42    -0.03   0.19   0.33
   5   6     0.00   0.00   0.01     0.00   0.03  -0.02     0.00   0.03  -0.02
   6   1     0.00   0.00  -0.02     0.00  -0.06   0.03     0.00  -0.14   0.07
   7   6    -0.03  -0.05   0.07    -0.03  -0.04  -0.01    -0.03   0.01   0.00
   8   1     0.14   0.07  -0.31     0.44   0.15   0.17     0.07   0.00   0.39
   9   1     0.24   0.34  -0.14    -0.05  -0.19   0.06     0.44  -0.28   0.00
  10   1    -0.01   0.15  -0.35    -0.06   0.46   0.07     0.01  -0.01  -0.37
                    16                     17                     18
                     A                      A                      A
 Frequencies --  1480.2301              1492.0566              2931.2714
 Red. masses --     1.0505                 1.0490                 1.0604
 Frc consts  --     1.3561                 1.3760                 5.3684
 IR Inten    --    14.6189                 4.4677                26.3440
 Atom AN      X      Y      Z        X      Y      Z        X      Y      Z
   1   6    -0.04   0.00  -0.02    -0.01  -0.02   0.03    -0.01  -0.04  -0.04
   2   1     0.15   0.22  -0.23     0.41   0.09  -0.18     0.15   0.45   0.55
   3   1     0.42   0.21   0.27    -0.16   0.30   0.11     0.03   0.03  -0.10
   4   1    -0.02  -0.30   0.25     0.04  -0.20  -0.38    -0.13  -0.02  -0.02
   5   6    -0.01  -0.02  -0.01    -0.03   0.01   0.02     0.00   0.00   0.00
   6   1    -0.01   0.03  -0.02    -0.04   0.01   0.00     0.00   0.00   0.00
   7   6    -0.03  -0.03  -0.01    -0.01   0.03   0.00     0.00   0.01   0.04
   8   1     0.41   0.15   0.16    -0.15  -0.07   0.30    -0.03   0.09   0.02
   9   1    -0.02  -0.20   0.06     0.40  -0.17  -0.03    -0.13  -0.21  -0.59
  10   1    -0.05   0.40   0.04     0.04  -0.21  -0.36     0.12   0.01   0.02
                    19                     20                     21
                     A                      A                      A
 Frequencies --  2935.6981              3010.7824              3013.0774
 Red. masses --     1.0625                 1.0747                 1.0725
 Frc consts  --     5.3951                 5.7400                 5.7365
 IR Inten    --    62.8961                15.8121                50.0300
 Atom AN      X      Y      Z        X      Y      Z        X      Y      Z
   1   6    -0.01  -0.03  -0.03    -0.03   0.00  -0.01    -0.06   0.00  -0.03
   2   1     0.13   0.40   0.49     0.01   0.05   0.06     0.01   0.09   0.11
   3   1     0.02   0.03  -0.08    -0.05  -0.05   0.09    -0.11  -0.13   0.24
   4   1    -0.09  -0.02  -0.02     0.35   0.03   0.02     0.86   0.06   0.04
   5   6     0.00   0.00   0.00     0.00   0.00   0.00     0.00   0.00   0.00
   6   1     0.01   0.00  -0.01     0.01   0.00   0.00    -0.03   0.00   0.00
[...]
     13 -0.361706D-01  0.741413D-02  0.390010D-01 -0.887437D-03 -0.130112D-01
     14 -0.177110D-01 -0.203169D-01 -0.126390D-01  0.177226D-01  0.315414D-01
     15  0.597341D-01  0.105990D-01  0.555789D-02  0.527620D-02 -0.107416D+00
     16  0.250275D-01  0.730659D-04 -0.824109D-03  0.120660D-02  0.560084D-01
     17 -0.103244D-01 -0.520950D-03  0.189354D-02 -0.754015D-03 -0.243037D-01
     18 -0.303002D-02 -0.446446D-04  0.496412D-03 -0.350518D-04  0.936891D-02
     19 -0.273382D-04 -0.805206D-04 -0.155163D-03 -0.811043D-04  0.341840D-02
     20 -0.120358D-02  0.834799D-04  0.303216D-03  0.805489D-03 -0.191204D-01
     21 -0.283851D-01 -0.346317D-01  0.755665D-01 -0.137322D-01  0.634769D-02
     22 -0.387075D-01  0.416095D-01 -0.643459D-02 -0.129649D-02  0.544238D-02
     23  0.752701D-01  0.898477D-02 -0.834910D-01 -0.771058D-03  0.129569D-02
     24 -0.153513D-01 -0.256595D-01  0.273384D-01  0.160499D-01 -0.188738D-02
     25  0.710312D-02  0.109932D-01 -0.126759D-01  0.241395D-02 -0.194894D+00
     26 -0.236253D-02 -0.107529D-02 -0.576169D-03 -0.252355D-02  0.114091D+00
     27 -0.105765D-02  0.500761D-03  0.441270D-03  0.797107D-03  0.514525D-01
     28  0.262202D-02  0.148977D-04 -0.240251D-03  0.124581D-03 -0.117588D-01
     29  0.555056D-03 -0.432460D-03  0.142488D-03 -0.267215D-03  0.416662D-02
     30  0.313827D-03 -0.304112D-03 -0.707713D-04 -0.795039D-03  0.257448D-01
                6             7             8             9            10
      6  0.281662D+00
      7 -0.393366D-02  0.524413D+00
      8  0.573939D-03 -0.899933D-01  0.919640D-01
      9 -0.106951D-02 -0.500190D-01  0.237134D-02  0.545772D-01
     10 -0.441383D-03 -0.290790D+00 -0.108616D-01 -0.821593D-02  0.320345D+00
     11 -0.437587D-03  0.586428D-02 -0.610795D-03  0.675211D-03  0.105728D-02
     12  0.118015D-03  0.428272D-03  0.217337D-03 -0.264777D-03 -0.173355D-03
     13 -0.146946D-03  0.403022D-02 -0.380155D-03  0.367850D-04  0.114207D-03
     14  0.213592D-02  0.827901D-03 -0.224938D-03 -0.287971D-03 -0.104808D-02
     15  0.590860D-01 -0.224958D-01 -0.120966D-01  0.342199D-02 -0.166637D-02
     16 -0.620433D-01 -0.156518D-01 -0.133113D-03 -0.100179D-02 -0.266142D-02
     17  0.302921D-02 -0.345964D-01  0.940873D-01 -0.140979D-01 -0.144128D-01
     18 -0.323595D-03  0.934207D-01 -0.103245D+00  0.430386D-02 -0.911245D-03
     19 -0.401025D-03 -0.141177D-01 -0.677794D-02  0.186166D-01 -0.394155D-03
     20 -0.101667D-02 -0.177097D-01  0.291643D-01 -0.114020D-01  0.200959D-01
     21  0.388439D-02 -0.105439D-01  0.171939D-02 -0.108564D-03 -0.116479D-03
     22 -0.333673D-03  0.270474D-03 -0.463127D-04 -0.276909D-03 -0.226867D-03
     23 -0.411231D-03 -0.115600D-02  0.262950D-03 -0.125089D-04  0.283087D-04
     24  0.512341D-04 -0.829996D-03  0.198363D-03 -0.107060D-03  0.197357D-03
     25  0.119758D+00  0.498652D-01 -0.206446D-02  0.133970D-01  0.610390D-02
     26 -0.125559D+00  0.199446D-01 -0.966726D-03 -0.496060D-03 -0.475873D-03
     27  0.142814D-02 -0.131104D-02  0.110785D-01 -0.417998D-01 -0.215298D-01
     28 -0.278585D-03  0.115343D-01 -0.133888D-01  0.126335D-01 -0.126286D-02
     29 -0.161752D-03 -0.483495D-01 -0.790226D-03  0.475147D-01 -0.237774D-02
     30  0.162243D-02 -0.194242D-01  0.399736D-02 -0.307443D-01  0.196600D-01
               11            12            13            14            15
     11  0.470480D+00
     12 -0.128791D+00  0.147870D+00
     13 -0.902123D-01  0.870276D-02  0.101820D+00
     14 -0.446491D-01 -0.188823D-02 -0.198097D-02  0.520063D-01
     15 -0.189919D+00 -0.255012D-01 -0.149110D-01 -0.113423D-02  0.432746D+00
     16 -0.143994D-02 -0.128669D-02  0.120268D-02 -0.413553D-02 -0.558476D-01
     17 -0.166486D-01  0.170713D-02 -0.389958D-02  0.175081D-02 -0.135612D+00
     18 -0.597739D-03  0.884242D-04 -0.993374D-03  0.265379D-03 -0.173874D-01
     19  0.897822D-03 -0.648535D-03  0.127307D-04 -0.139204D-03  0.700906D-02
     20  0.880017D-03 -0.252264D-03  0.259295D-03 -0.952826D-04  0.556683D-03
     21 -0.331871D-01 -0.113100D+00  0.928360D-01  0.369017D-02  0.336903D-01
     22 -0.102010D+00  0.122648D+00 -0.165618D-01 -0.138113D-02 -0.118048D-02
     23  0.945160D-01  0.957887D-02 -0.102333D+00 -0.231594D-02  0.309953D-03
     24  0.385394D-02 -0.342920D-02  0.115781D-02  0.682708D-03 -0.197820D-02
     25  0.308515D-01 -0.173805D-01  0.249124D-01 -0.131416D-02 -0.121914D+00
     26  0.313219D-02  0.731235D-04 -0.962619D-03  0.130074D-02 -0.717480D-02
     27  0.242597D-02 -0.184338D-03 -0.198238D-03 -0.526481D-03  0.702099D-01
     28  0.215267D-02  0.409830D-03  0.116693D-02 -0.349253D-03  0.231137D-01
     29 -0.657430D-03  0.143415D-02  0.342363D-03  0.310219D-04  0.287340D-02
     30 -0.107785D-02 -0.497719D-04 -0.360086D-03  0.182321D-03  0.205005D-02
               16            17            18            19            20
     16  0.579213D-01
     17  0.455640D-02  0.532060D+00
     18  0.118120D-02 -0.264497D+00  0.288217D+00
     19 -0.401567D-03 -0.687594D-01 -0.100312D-01  0.728797D-01
     20 -0.175023D-02 -0.506582D-01  0.375482D-02 -0.819404D-03  0.481245D-01
     21 -0.821372D-02  0.233859D-01  0.279626D-02 -0.953233D-03 -0.944909D-03
     22 -0.599610D-03 -0.367515D-03 -0.222074D-03 -0.406716D-03  0.816257D-04
     23  0.748461D-04  0.363226D-03  0.149011D-03 -0.275548D-03 -0.676294D-04
     24 -0.860929D-04 -0.487606D-03 -0.549435D-04  0.162517D-03  0.179073D-03
     25 -0.700956D-02  0.731080D-01 -0.146618D-02  0.197146D-01  0.497792D-03
     26  0.516870D-02 -0.307846D-02  0.292021D-04  0.325265D-04  0.147939D-02
     27  0.784350D-02  0.891037D-02 -0.224512D-01 -0.654846D-01 -0.544943D-03
     28 -0.938550D-03 -0.242755D-01  0.229593D-01 -0.274590D-01  0.321985D-02
     29  0.723249D-03 -0.769683D-01 -0.219997D-02  0.767773D-01 -0.235576D-02
     30  0.303723D-02 -0.590127D-03  0.460521D-03 -0.210779D-02 -0.154449D-02
               21            22            23            24            25
     21  0.519561D+00
     22 -0.177880D+00  0.194532D+00
     23 -0.229993D+00 -0.216825D-01  0.249017D+00
     24 -0.468474D-01 -0.251155D-02  0.296596D-02  0.455111D-01
     25 -0.689240D-01  0.755802D-02 -0.204189D-02  0.760936D-03  0.290914D+00
     26  0.456263D-02 -0.233097D-03  0.650393D-03  0.254730D-03 -0.731059D-01
     27  0.173658D-03  0.175932D-03  0.106773D-02 -0.115777D-03 -0.128216D+00
     28 -0.246730D-02  0.744468D-04 -0.146683D-03 -0.216937D-04  0.450773D-03
     29  0.110233D-02  0.834223D-05  0.161801D-03 -0.166758D-03 -0.247638D-01
     30  0.711495D-03 -0.422162D-04  0.152588D-05  0.170436D-03 -0.263161D-02
               26            27            28            29            30
     26  0.733425D-01
     27 -0.248647D-02  0.454752D+00
     28  0.647399D-03 -0.459067D-01  0.516611D-01
     29 -0.127345D-02 -0.238447D+00 -0.318749D-02  0.270338D+00
     30 -0.235869D-02 -0.409968D-01 -0.110385D-02 -0.377190D-02  0.500216D-01
 Final forces over variables, Energy=-1.18514166D+02:
 -4.70609351D-05 2.62847799D-06 1.66264651D-06 4.25930985D-05
 -1.19077360D-06 6.01373932D-06-5.18105115D-05 4.73651024D-06
  1.73197551D-06 4.06957722D-05 2.41500412D-05-1.50486236D-05
 -1.25973333D-05-6.70656765D-06-2.19702860D-06-1.92624455D-06
 -1.94681451D-05 2.19518505D-05-2.32692644D-06 1.41689777D-05
 -3.72655476D-06-2.20224515D-05 8.97677591D-06-4.96085161D-06
  1.16985169D-05-2.15522738D-06 2.03568545D-05 1.21837657D-05
 -1.97369184D-05-6.13909396D-07

 GradGradGradGradGradGradGradGradGradGradGradGradGradGradGradGradGradGrad
 Berny optimization.
 Search for a local minimum.
 Step number   1 out of a maximum of   2
 All quantities printed in internal units (Hartrees-Bohrs-Radians)
 Second derivative matrix not updated -- analytic derivatives used.
     Eigenvalues ---    0.00045   0.00065   0.00974   0.01152   0.04437
     Eigenvalues ---    0.05271   0.05862   0.06972   0.09609   0.09863
     Eigenvalues ---    0.10369   0.10553   0.13581   0.15179   0.15555
     Eigenvalues ---    0.23938   0.37592   0.52751   0.64403   0.65534
     Eigenvalues ---    0.69780   0.76135   0.80327   0.91701
 Angle between quadratic step and forces=  73.18 degrees.
 Linear search not attempted -- first point.
 TrRot= -0.000025 -0.000005  0.000010 -0.000001  0.000000 -0.000001
 Variable       Old X    -DE/DX   Delta X   Delta X   Delta X     New X
                                 (Linear)    (Quad)   (Total)
    X1       -3.42013  -0.00005   0.00000  -0.00003  -0.00005  -3.42018
    Y1        5.53278   0.00002   0.00000   0.00003   0.00003   5.53282
    Z1        0.03669   0.00000   0.00000   0.00008   0.00009   0.03678
    X2       -3.01236   0.00000   0.00000   0.00013   0.00012  -3.01224
    Y2        6.84964  -0.00002   0.00000  -0.00010  -0.00009   6.84954
    Z2        1.60194  -0.00002   0.00000   0.00004   0.00005   1.60199
    X3       -2.72714   0.00000   0.00000   0.00006   0.00005  -2.72710
    Y3        6.42431  -0.00001   0.00000  -0.00003  -0.00003   6.42427
    Z3       -1.69266   0.00001   0.00000   0.00013   0.00014  -1.69252
    X4       -5.48693   0.00004   0.00000   0.00011   0.00009  -5.48684
    Y4        5.41411  -0.00001   0.00000  -0.00002  -0.00001   5.41409
    Z4       -0.08539   0.00000   0.00000   0.00005   0.00006  -0.08533
    X5       -2.26131   0.00000   0.00000  -0.00003  -0.00005  -2.26136
    Y5        3.00030   0.00000   0.00000  -0.00001  -0.00001   3.00029
    Z5        0.45658   0.00001   0.00000   0.00001   0.00002   0.45660
    X6       -0.42221   0.00001   0.00000  -0.00019  -0.00021  -0.42241
    Y6        2.60921   0.00000   0.00000  -0.00014  -0.00014   2.60906
    Z6       -0.35990   0.00000   0.00000  -0.00032  -0.00031  -0.36021
    X7       -3.28975  -0.00005   0.00000  -0.00007  -0.00009  -3.28983
    Y7        1.23171  -0.00002   0.00000  -0.00002  -0.00001   1.23169
    Z7        2.39227   0.00002   0.00000   0.00000   0.00001   2.39228
    X8       -2.48795   0.00000   0.00000   0.00032   0.00029  -2.48766
    Y8       -0.66315   0.00002   0.00000   0.00018   0.00018  -0.66298
    Z8        2.21378   0.00001   0.00000   0.00028   0.00029   2.21407
    X9       -2.89080   0.00000   0.00000  -0.00021  -0.00023  -2.89104
    Y9        1.87890   0.00000   0.00000   0.00020   0.00020   1.87910
    Z9        4.33440  -0.00002   0.00000  -0.00012  -0.00011   4.33429
   X10       -5.35320   0.00004   0.00000   0.00009   0.00007  -5.35313
   Y10        1.07050   0.00001   0.00000  -0.00011  -0.00011   1.07039
   Z10        2.25787   0.00000   0.00000  -0.00025  -0.00023   2.25764
         Item               Value     Threshold  Converged?
 Maximum Force            0.000052     0.000450     YES
 RMS     Force            0.000020     0.000300     YES
 Maximum Displacement     0.000311     0.001800     YES
 RMS     Displacement     0.000144     0.001200     YES
 Predicted change in Energy=-1.268515D-08
 Optimization completed.
    -- Stationary point found.
 GradGradGradGradGradGradGradGradGradGradGradGradGradGradGradGradGradGrad


 Test job not archived.
 1\1\GINC-NODE36\Freq\UB3LYP\CBSB7\C3H7(2)\NYEE\15-Jul-2014\0\\# freq n
 osymm b3lyp/cbsb7 iop(7/33=1)\\Title Card Required\\0,2\C,-1.809856,2.
 927823,0.019417\H,-1.59407,3.624671,0.847709\H,-1.443141,3.399596,-0.8
 95719\H,-2.903559,2.865022,-0.045187\C,-1.196634,1.587693,0.241614\H,-
 0.223422,1.380732,-0.190451\C,-1.740859,0.651791,1.265936\H,-1.316566,
 -0.350926,1.17148\H,-1.529748,0.994271,2.293667\H,-2.83279,0.566482,1.
 194813\\Version=AM64L-G03RevD.01\HF=-118.5141664\S2=0.754017\S2-1=0.\S
 2A=0.750012\RMSD=7.698e-09\RMSF=2.019e-05\ZeroPoint=0.0875407\Thermal=
 0.0927278\Dipole=0.0048395,0.0367027,0.0663475\DipoleDeriv=0.0903185,0
 .0234657,0.0385442,0.0358107,0.0172209,0.0905448,0.0362461,0.0399119,0
 .1298505,0.0544525,-0.0114724,-0.0522033,-0.007089,-0.0958617,-0.07314
 06,-0.0361442,-0.14622,-0.0806653,0.0485004,-0.0217778,0.0695671,-0.01
 21935,-0.0099787,0.0842201,0.0567645,0.1138121,-0.0931631,-0.1774369,0
 .0224603,-0.0285011,-0.0352243,0.0338661,0.0043721,-0.0051347,0.012761
 3,0.0664344,0.0691311,-0.0884039,-0.1564436,-0.0819503,0.117173,-0.182
 2734,-0.1406346,-0.1813963,-0.1050137,-0.0980464,0.054831,0.1033894,0.
 0429767,-0.0093019,0.0582068,0.0812626,0.0576533,0.0579668,0.0911558,0
 .0231339,0.0391905,0.0156142,0.0405332,0.0544379,0.0446599,0.1045232,0
 .1072895,0.0410488,0.0821548,0.0174314,0.0662641,-0.1509132,0.0199787,
 0.0207393,-0.0094997,0.0552776,0.0570788,-0.035121,-0.0370931,-0.02576
 02,0.0102149,-0.079321,-0.0284414,-0.00526,-0.1889988,-0.1762026,-0.04
 92705,0.0061184,0.0015517,0.0470474,0.0229746,-0.0293174,0.0137143,0.0
 510221\Polar=33.5712883,-1.4073071,39.211218,-2.1747557,-4.0656854,34.
 164354\PG=C01 [X(C3H7)]\NImag=0\\0.52187350,0.01846776,0.47048013,-0.0
 2838512,-0.03318705,0.51956144,-0.05047488,-0.02868411,-0.03463173,0.0
 5534732,-0.03476250,-0.12879124,-0.11309979,0.03147743,0.14786987,-0.0
 3870747,-0.10200992,-0.17787958,0.04160946,0.12264761,0.19453224,-0.08
 004709,-0.03666201,0.07556653,0.00205951,0.00302824,-0.00643459,0.0809
 3340,-0.03617059,-0.09021226,0.09283601,0.00741413,0.00870276,-0.01656
 180,0.03900095,0.10181969,0.07527009,0.09451598,-0.22999329,0.00898477
 ,0.00957887,-0.02168254,-0.08349101,-0.10233277,0.24901700,-0.29168392
 ,-0.02106014,-0.01373222,-0.00833395,-0.00219313,-0.00129649,-0.009181
 11,-0.00088744,-0.00077106,0.32153496,-0.01771100,-0.04464907,0.003690
 17,-0.02031691,-0.00188823,-0.00138113,-0.01263896,-0.00198097,-0.0023
 1594,0.01772260,0.05200633,-0.01535135,0.00385394,-0.04684741,-0.02565
 953,-0.00342920,-0.00251155,0.02733842,0.00115781,0.00296596,0.0160499
 4,0.00068271,0.04551113,-0.10136216,0.06139011,0.00634769,0.00220884,0
 .00212447,0.00544238,0.00546587,-0.01301117,0.00129569,-0.01372695,0.0
 3154144,-0.00188738,0.47866612,0.05973414,-0.18991907,0.03369034,0.010
 59902,-0.02550123,-0.00118048,0.00555789,-0.01491097,0.00030995,0.0052
 7620,-0.00113423,-0.00197820,-0.10741642,0.43274634,0.00710312,0.03085
 151,-0.06892398,0.01099324,-0.01738049,0.00755802,-0.01267591,0.024912
 40,-0.00204189,0.00241395,-0.00131416,0.00076094,-0.19489447,-0.121913
 89,0.29091367,-0.00513520,-0.00043759,0.00388439,-0.00109858,0.0001180
 2,-0.00033367,0.00058931,-0.00014695,-0.00041123,-0.00061890,0.0021359
 2,0.00005123,-0.27052804,0.05908598,0.11975845,0.28166202,0.02502747,-
 0.00143994,-0.00821372,0.00007307,-0.00128669,-0.00059961,-0.00082411,
 0.00120268,0.00007485,0.00120660,-0.00413553,-0.00008609,0.05600835,-0
 .05584761,-0.00700956,-0.06204329,0.05792128,-0.00236253,0.00313219,0.
 00456263,-0.00107529,0.00007312,-0.00023310,-0.00057617,-0.00096262,0.
 00065039,-0.00252355,0.00130074,0.00025473,0.11409097,-0.00717480,-0.0
 7310591,-0.12555941,0.00516870,0.07334247,0.00593902,0.00586428,-0.010
 54388,0.00033740,0.00042827,0.00027047,-0.00069427,0.00403022,-0.00115
 600,0.00100638,0.00082790,-0.00083000,-0.09626596,-0.02249580,0.049865
 20,-0.00393366,-0.01565176,0.01994463,0.52441312,-0.01032436,-0.016648
 65,0.02338592,-0.00052095,0.00170713,-0.00036752,0.00189354,-0.0038995
 8,0.00036323,-0.00075402,0.00175081,-0.00048761,-0.02430367,-0.1356115
 7,0.07310803,0.00302921,0.00455640,-0.00307846,-0.03459640,0.53205966,
 -0.00105765,0.00242597,0.00017366,0.00050076,-0.00018434,0.00017593,0.
 00044127,-0.00019824,0.00106773,0.00079711,-0.00052648,-0.00011578,0.0
 5145248,0.07020994,-0.12821616,0.00142814,0.00784350,-0.00248647,-0.00
 131104,0.00891037,0.45475200,-0.00041607,-0.00061079,0.00171939,-0.000
 07268,0.00021734,-0.00004631,0.00053337,-0.00038016,0.00026295,0.00044
 239,-0.00022494,0.00019836,0.00545858,-0.01209663,-0.00206446,0.000573
 94,-0.00013311,-0.00096673,-0.08999329,0.09408731,0.01107847,0.0919640
 2,-0.00303002,-0.00059774,0.00279626,-0.00004464,0.00008842,-0.0002220
 7,0.00049641,-0.00099337,0.00014901,-0.00003505,0.00026538,-0.00005494
 ,0.00936891,-0.01738739,-0.00146618,-0.00032359,0.00118120,0.00002920,
 0.09342070,-0.26449668,-0.02245116,-0.10324533,0.28821658,0.00262202,0
 .00215267,-0.00246730,0.00001490,0.00040983,0.00007445,-0.00024025,0.0
 0116693,-0.00014668,0.00012458,-0.00034925,-0.00002169,-0.01175880,0.0
 2311370,0.00045077,-0.00027859,-0.00093855,0.00064740,0.01153433,-0.02
 427555,-0.04590673,-0.01338880,0.02295933,0.05166113,0.00032928,0.0006
 7521,-0.00010856,0.00004810,-0.00026478,-0.00027691,-0.00007498,0.0000
 3678,-0.00001251,-0.00001397,-0.00028797,-0.00010706,0.00206740,0.0034
 2199,0.01339698,-0.00106951,-0.00100179,-0.00049606,-0.05001897,-0.014
 09789,-0.04179978,0.00237134,0.00430386,0.01263347,0.05457724,-0.00002
 734,0.00089782,-0.00095323,-0.00008052,-0.00064853,-0.00040672,-0.0001
 5516,0.00001273,-0.00027555,-0.00008110,-0.00013920,0.00016252,0.00341
 840,0.00700906,0.01971455,-0.00040103,-0.00040157,0.00003253,-0.014117
 73,-0.06875938,-0.06548462,-0.00677794,-0.01003122,-0.02745895,0.01861
 658,0.07287969,0.00055506,-0.00065743,0.00110233,-0.00043246,0.0014341
 5,0.00000834,0.00014249,0.00034236,0.00016180,-0.00026721,0.00003102,-
 0.00016676,0.00416662,0.00287340,-0.02476384,-0.00016175,0.00072325,-0
 .00127345,-0.04834951,-0.07696829,-0.23844740,-0.00079023,-0.00219997,
 -0.00318749,0.04751474,0.07677726,0.27033836,0.00097751,0.00105728,-0.
 00011648,-0.00002110,-0.00017335,-0.00022687,0.00041599,0.00011421,0.0
 0002831,0.00057507,-0.00104808,0.00019736,-0.01198370,-0.00166637,0.00
 610390,-0.00044138,-0.00266142,-0.00047587,-0.29078978,-0.01441277,-0.
 02152977,-0.01086160,-0.00091124,-0.00126286,-0.00821593,-0.00039415,-
 0.00237774,0.32034493,-0.00120358,0.00088002,-0.00094491,0.00008348,-0
 .00025226,0.00008163,0.00030322,0.00025929,-0.00006763,0.00080549,-0.0
 0009528,0.00017907,-0.01912043,0.00055668,0.00049779,-0.00101667,-0.00
 175023,0.00147939,-0.01770968,-0.05065816,-0.00054494,0.02916426,0.003
 75482,0.00321985,-0.01140199,-0.00081940,-0.00235576,0.02009591,0.0481
 2453,0.00031383,-0.00107785,0.00071149,-0.00030411,-0.00004977,-0.0000
 4222,-0.00007077,-0.00036009,0.00000153,-0.00079504,0.00018232,0.00017
 044,0.02574482,0.00205005,-0.00263161,0.00162243,0.00303723,-0.0023586
 9,-0.01942422,-0.00059013,-0.04099678,0.00399736,0.00046052,-0.0011038
 5,-0.03074430,-0.00210779,-0.00377190,0.01966002,-0.00154449,0.0500216
 0\\0.00004706,-0.00002415,0.00000373,-0.00000263,0.00001505,0.00002202
 ,-0.00000166,0.00001260,-0.00000898,-0.00004259,0.00000671,0.00000496,
 0.00000119,0.00000220,-0.00001170,-0.00000601,0.00000193,0.00000216,0.
 00005181,0.00001947,-0.00002036,-0.00000474,-0.00002195,-0.00001218,-0
 .00000173,0.00000233,0.00001974,-0.00004070,-0.00001417,0.00000061\\\@


 EXPERIMENTALISTS THINK SILICON IS REALLY FUN TO USE
     ITS PLACE IN NOVEL COMPOUNDS IS CERTAIN TO AMUSE
 THEY SIT ALL DAY IN LABORATORIES MAKING ALL THIS SLUDGE
     "LOADED WITH THE SILICON THEY SAY", TO ME IT LOOKS LIKE FUDGE.
 FOR HAPPY THOUGH THEY BE WITH CRUD, I'D LIKE TO KNOW A LITTLE
      ABOUT THE PI BONDS ON THE EDGE AND SIGMAS IN THE MIDDLE.

 SO LETS DERIVE A WAVEFUNCTION.....6-31G*
     USE AN OPTIMAL GEOMETRY AND SEE WHERE ELECTRONS ARE.
 BUT WHAT OF CORRELATION?  ASKS THE WIRY LITTLE SKEPTIC.
     WE'LL THROW IN PERTURBATION AS AN ELECTRON ANTISEPTIC.
 AND WHEN THE PROGRAM GIVES US ANSWERS IN THEM WE CAN TRUST
     SINCE NOBODY CAN MAKE THE STUFF, WE HAVE NO CHOICE, WE MUST.

 SO THEORY GUYS HAVE GOT IT MADE, IN ROOMS FREE OF POLLUTION.
     INSTEAD OF PROBLEMS WITH THE REFLUX, THEY HAVE ONLY SOLUTIONS.
 AND WHEN THE FEDS ANNOUNCE THE LIST OF CARCINOGENIC TERRORS,
     THE THEORISTS SIT SAFELY AT THEIR TERMINALS FIXING ERRORS.
 IN OTHER WORDS, EXPERIMENTALISTS WILL LIKELY DIE OF CANCER
     FROM WORKING HARD YET FRUITLESSLY...TILL THEORY GIVES THE ANSWER.
          -- THOMAS A. HOLME, 1983
 Job cpu time:  0 days  0 hours 11 minutes 54.4 seconds.
 File lengths (MBytes):  RWF=     28 Int=      0 D2E=      0 Chk=      6 Scr=      1
 Normal termination of Gaussian 03 at Tue Jul 15 17:47:27 2014.
