 Entering Gaussian System, Link 0=g03
 Input=ts8-freq.gjf
 Output=ts8-freq.log
 Initial command:
 /opt/g03/l1.exe /scratch/shamel/Gau-10860.inp -scrdir=/scratch/shamel/
 Entering Link 1 = /opt/g03/l1.exe PID=     10862.
  
 Copyright (c) 1988,1990,1992,1993,1995,1998,2003,2004, Gaussian, Inc.
                  All Rights Reserved.
  
 This is the Gaussian(R) 03 program.  It is based on the
 the Gaussian(R) 98 system (copyright 1998, Gaussian, Inc.),
 the Gaussian(R) 94 system (copyright 1995, Gaussian, Inc.),
 the Gaussian 92(TM) system (copyright 1992, Gaussian, Inc.),
 the Gaussian 90(TM) system (copyright 1990, Gaussian, Inc.),
 the Gaussian 88(TM) system (copyright 1988, Gaussian, Inc.),
 the Gaussian 86(TM) system (copyright 1986, Carnegie Mellon
 University), and the Gaussian 82(TM) system (copyright 1983,
 Carnegie Mellon University). Gaussian is a federally registered
 trademark of Gaussian, Inc.
  
 This software contains proprietary and confidential information,
 including trade secrets, belonging to Gaussian, Inc.
  
 This software is provided under written license and may be
 used, copied, transmitted, or stored only in accord with that
 written license.
  
 The following legend is applicable only to US Government
 contracts under FAR:
  
                    RESTRICTED RIGHTS LEGEND
  
 Use, reproduction and disclosure by the US Government is
 subject to restrictions as set forth in subparagraphs (a)
 and (c) of the Commercial Computer Software - Restricted
 Rights clause in FAR 52.227-19.
  
 Gaussian, Inc.
 340 Quinnipiac St., Bldg. 40, Wallingford CT 06492
  
  
 ---------------------------------------------------------------
 Warning -- This program may not be used in any manner that
 competes with the business of Gaussian, Inc. or will provide
 assistance to any competitor of Gaussian, Inc.  The licensee
 of this program is prohibited from giving any competitor of
 Gaussian, Inc. access to this program.  By using this program,
 the user acknowledges that Gaussian, Inc. is engaged in the
 business of creating and licensing software in the field of
 computational chemistry and represents and warrants to the
 licensee that it is not a competitor of Gaussian, Inc. and that
 it will not use this program in any manner prohibited above.
 ---------------------------------------------------------------
  

 Cite this work as:
 Gaussian 03, Revision D.01,
 M. J. Frisch, G. W. Trucks, H. B. Schlegel, G. E. Scuseria, 
 M. A. Robb, J. R. Cheeseman, J. A. Montgomery, Jr., T. Vreven, 
 K. N. Kudin, J. C. Burant, J. M. Millam, S. S. Iyengar, J. Tomasi, 
 V. Barone, B. Mennucci, M. Cossi, G. Scalmani, N. Rega, 
 G. A. Petersson, H. Nakatsuji, M. Hada, M. Ehara, K. Toyota, 
 R. Fukuda, J. Hasegawa, M. Ishida, T. Nakajima, Y. Honda, O. Kitao, 
 H. Nakai, M. Klene, X. Li, J. E. Knox, H. P. Hratchian, J. B. Cross, 
 V. Bakken, C. Adamo, J. Jaramillo, R. Gomperts, R. E. Stratmann, 
 O. Yazyev, A. J. Austin, R. Cammi, C. Pomelli, J. W. Ochterski, 
 P. Y. Ayala, K. Morokuma, G. A. Voth, P. Salvador, J. J. Dannenberg, 
 V. G. Zakrzewski, S. Dapprich, A. D. Daniels, M. C. Strain, 
 O. Farkas, D. K. Malick, A. D. Rabuck, K. Raghavachari, 
 J. B. Foresman, J. V. Ortiz, Q. Cui, A. G. Baboul, S. Clifford, 
 J. Cioslowski, B. B. Stefanov, G. Liu, A. Liashenko, P. Piskorz, 
 I. Komaromi, R. L. Martin, D. J. Fox, T. Keith, M. A. Al-Laham, 
 C. Y. Peng, A. Nanayakkara, M. Challacombe, P. M. W. Gill, 
 B. Johnson, W. Chen, M. W. Wong, C. Gonzalez, and J. A. Pople, 
 Gaussian, Inc., Wallingford CT, 2004.
 
 ******************************************
 Gaussian 03:  AM64L-G03RevD.01 13-Oct-2005
                18-Jun-2013 
 ******************************************
 %chk=ts8-freq.chk
 %mem=1000mb
 %nproc=8
 Will use up to    8 processors via shared memory.
 -------------------------------------
 # freq nosymm b3lyp/cbsb7 iop(7/33=1)
 -------------------------------------
 1/10=4,30=1,38=1/1,3;
 2/15=1,17=6,18=5,40=1/2;
 3/5=4,6=6,7=700,11=2,16=1,25=1,30=1,74=-5/1,2,3;
 4//1;
 5/5=2,38=5/2;
 8/6=4,10=90,11=11/1;
 11/6=1,8=1,9=11,15=111,16=1,31=1/1,2,10;
 10/6=1,31=1/2;
 6/7=2,8=2,9=2,10=2,18=1,28=1/1;
 7/8=1,10=1,25=1,30=1,33=1/1,2,3,16;
 1/10=4,30=1/3;
 99//99;
 -------------------
 Title Card Required
 -------------------
 Symbolic Z-matrix:
 Charge =  0 Multiplicity = 2
 O                     0.15797   1.20357  -0.41468 
 H                    -0.19379   0.46142   0.09692 
 O                     1.82042   0.70722  -0.17127 
 C                     2.48509   0.83439  -1.40682 
 C                     3.71476   0.43719  -0.69014 
 H                     2.1333    0.12366  -2.16025 
 H                     2.47762   1.85753  -1.78974 
 C                     4.16859  -0.97969  -0.6653 
 H                     4.92714  -1.14923  -1.44415 
 H                     4.62344  -1.24785   0.2923 
 H                     3.34063  -1.66203  -0.86591 
 C                     4.45943   1.47578   0.09571 
 H                     5.39972   1.71141  -0.42583 
 H                     4.74999   1.04428   1.06792 
 O                     3.76463   2.69149   0.24814 
 H                     2.86695   2.45516   0.52591 
 

 GradGradGradGradGradGradGradGradGradGradGradGradGradGradGradGradGradGrad
 Berny optimization.
 Initialization pass.
 Trust Radius=3.00D-01 FncErr=1.00D-07 GrdErr=1.00D-07
 Number of steps in this run=   2 maximum allowed number of steps=   2.
 GradGradGradGradGradGradGradGradGradGradGradGradGradGradGradGradGradGrad

                          Input orientation:                          
 ---------------------------------------------------------------------
 Center     Atomic     Atomic              Coordinates (Angstroms)
 Number     Number      Type              X           Y           Z
 ---------------------------------------------------------------------
    1          8             0        0.157965    1.203566   -0.414676
    2          1             0       -0.193790    0.461422    0.096922
    3          8             0        1.820421    0.707221   -0.171270
    4          6             0        2.485092    0.834394   -1.406823
    5          6             0        3.714755    0.437189   -0.690143
    6          1             0        2.133296    0.123655   -2.160246
    7          1             0        2.477615    1.857529   -1.789741
    8          6             0        4.168592   -0.979690   -0.665298
    9          1             0        4.927138   -1.149230   -1.444151
   10          1             0        4.623437   -1.247849    0.292295
   11          1             0        3.340630   -1.662027   -0.865914
   12          6             0        4.459430    1.475777    0.095708
   13          1             0        5.399720    1.711413   -0.425825
   14          1             0        4.749988    1.044275    1.067921
   15          8             0        3.764627    2.691494    0.248135
   16          1             0        2.866950    2.455156    0.525907
 ---------------------------------------------------------------------
                    Distance matrix (angstroms):
                    1          2          3          4          5
     1  O    0.000000
     2  H    0.967596   0.000000
     3  O    1.751960   2.046800   0.000000
     4  C    2.556592   3.094635   1.408741   0.000000
     5  C    3.648831   3.987077   1.982586   1.477658   0.000000
     6  H    2.848711   3.259482   2.096298   1.093872   2.181861
     7  H    2.774752   3.555983   2.091545   1.092468   2.181054
     8  C    4.573243   4.657055   2.933196   2.583589   1.487996
     9  H    5.416685   5.585070   3.836447   3.146386   2.134274
    10  H    5.142926   5.115218   3.448781   3.434422   2.151799
    11  H    4.306344   4.234172   2.899466   2.693816   2.139526
    12  C    4.340183   4.762497   2.761580   2.562612   1.500256
    13  H    5.266311   5.755267   3.726202   3.197902   2.128995
    14  H    4.828058   5.071834   3.198681   3.361274   2.128626
    15  O    3.957431   4.545894   2.809480   2.797305   2.442283
    16  H    3.128861   3.677925   2.153266   2.551104   2.503945
                    6          7          8          9         10
     6  H    0.000000
     7  H    1.806142   0.000000
     8  C    2.755843   3.489067   0.000000
     9  H    3.152552   3.893610   1.100340   0.000000
    10  H    3.754568   4.310777   1.093516   1.765561   0.000000
    11  H    2.514281   3.739723   1.091491   1.764745   1.777241
    12  C    3.511191   2.761927   2.587090   3.079055   2.735632
    13  H    4.024763   3.228051   2.969016   3.073044   3.142538
    14  H    4.256252   3.740494   2.727362   3.339663   2.423106
    15  O    3.880121   2.550458   3.804621   4.355046   4.032112
    16  H    3.631744   2.423008   3.861529   4.595335   4.105127
                   11         12         13         14         15
    11  H    0.000000
    12  C    3.467311   0.000000
    13  H    3.976635   1.100757   0.000000
    14  H    3.612489   1.102640   1.760256   0.000000
    15  O    4.513759   1.408529   2.021957   2.087179   0.000000
    16  H    4.371811   1.918397   2.806042   2.414580   0.968936
                   16
    16  H    0.000000
 Symmetry turned off by external request.
 Stoichiometry    C4H9O3(2)
 Framework group  C1[X(C4H9O3)]
 Deg. of freedom    42
 Full point group                 C1
 Rotational constants (GHZ):      3.2542222      1.9372422      1.3592479
 Standard basis: CBSB7 (5D, 7F)
 Integral buffers will be    131072 words long.
 Raffenetti 2 integral format.
 Two-electron integral symmetry is turned off.
   180 basis functions,   296 primitive gaussians,   187 cartesian basis functions
    29 alpha electrons       28 beta electrons
       nuclear repulsion energy       323.5309600329 Hartrees.
 NAtoms=   16 NActive=   16 NUniq=   16 SFac= 7.50D-01 NAtFMM=   80 NAOKFM=F Big=F
 One-electron integrals computed using PRISM.
 NBasis=   180 RedAO= T  NBF=   180
 NBsUse=   180 1.00D-06 NBFU=   180
 Harris functional with IExCor=  402 diagonalized for initial guess.
 ExpMin= 1.03D-01 ExpMax= 8.59D+03 ExpMxC= 1.30D+03 IAcc=1 IRadAn=         1 AccDes= 1.00D-06
 HarFok:  IExCor= 402 AccDes= 1.00D-06 IRadAn=         1 IDoV=1
 ScaDFX=  1.000000  1.000000  1.000000  1.000000
 <S**2> of initial guess= 0.7500
 Requested convergence on RMS density matrix=1.00D-08 within 128 cycles.
 Requested convergence on MAX density matrix=1.00D-06.
 Requested convergence on             energy=1.00D-06.
 No special actions if energy rises.
 Integral accuracy reduced to 1.0D-05 until final iterations.
 Initial convergence to 1.0D-05 achieved.  Increase integral accuracy.
 SCF Done:  E(UB+HF-LYP) =  -383.448701133     A.U. after   23 cycles
             Convg  =    0.6715D-08             -V/T =  2.0032
             S**2   =   0.7998
 Annihilation of the first spin contaminant:
 S**2 before annihilation     0.7998,   after     0.7503
 Range of M.O.s used for correlation:     1   180
 NBasis=   180 NAE=    29 NBE=    28 NFC=     0 NFV=     0
 NROrb=    180 NOA=    29 NOB=    28 NVA=   151 NVB=   152
 Symmetrizing basis deriv contribution to polar:
 IMax=3 JMax=2 DiffMx= 0.00D+00
 G2DrvN: will do   17 centers at a time, making    1 passes doing MaxLOS=2.
 FoFDir/FoFCou used for L=0 through L=2.
 DoAtom=TTTTTTTTTTTTTTTT
          Differentiating once with respect to electric field.
                with respect to dipole field.
          Differentiating once with respect to nuclear coordinates.
 Symmetry not used in FoFDir.
 MinBra= 0 MaxBra= 2 Meth= 1.
 IRaf=       0 NMat=  51 IRICut=      51 DoRegI=T DoRafI=T ISym2E= 0 JSym2E=0.
          There are  51 degrees of freedom in the 1st order CPHF.
    48 vectors were produced by pass  0.
 AX will form  48 AO Fock derivatives at one time.
    48 vectors were produced by pass  1.
    48 vectors were produced by pass  2.
    48 vectors were produced by pass  3.
    48 vectors were produced by pass  4.
    48 vectors were produced by pass  5.
    30 vectors were produced by pass  6.
     3 vectors were produced by pass  7.
     3 vectors were produced by pass  8.
     1 vectors were produced by pass  9.
 Inv2:  IOpt= 1 Iter= 1 AM= 3.36D-15 Conv= 1.00D-12.
 Inverted reduced A of dimension  325 with in-core refinement.
 Isotropic polarizability for W=    0.000000       72.21 Bohr**3.
 End of Minotr Frequency-dependent properties file   721 does not exist.

 **********************************************************************

            Population analysis using the SCF density.

 **********************************************************************

 Alpha  occ. eigenvalues --  -19.15578 -19.12339 -19.11541 -10.23658 -10.23577
 Alpha  occ. eigenvalues --  -10.22711 -10.19417  -1.04244  -1.02184  -0.94065
 Alpha  occ. eigenvalues --   -0.81317  -0.70824  -0.68130  -0.58291  -0.52167
 Alpha  occ. eigenvalues --   -0.49758  -0.48856  -0.44622  -0.44128  -0.43607
 Alpha  occ. eigenvalues --   -0.42938  -0.41258  -0.38825  -0.35516  -0.34599
 Alpha  occ. eigenvalues --   -0.30270  -0.28654  -0.26249  -0.21917
 Alpha virt. eigenvalues --   -0.05527   0.03067   0.05668   0.06580   0.08030
 Alpha virt. eigenvalues --    0.09089   0.09433   0.10743   0.11464   0.14003
 Alpha virt. eigenvalues --    0.15658   0.17131   0.19410   0.25277   0.27708
 Alpha virt. eigenvalues --    0.28854   0.31046   0.36002   0.37743   0.38766
 Alpha virt. eigenvalues --    0.40241   0.42093   0.42970   0.48316   0.48939
 Alpha virt. eigenvalues --    0.51829   0.52352   0.52619   0.53128   0.56075
 Alpha virt. eigenvalues --    0.56604   0.57467   0.58687   0.59333   0.61427
 Alpha virt. eigenvalues --    0.65280   0.65606   0.75708   0.79617   0.81240
 Alpha virt. eigenvalues --    0.83522   0.85446   0.87501   0.89536   0.91139
 Alpha virt. eigenvalues --    0.93222   0.97529   0.98944   1.02339   1.08363
 Alpha virt. eigenvalues --    1.16102   1.17517   1.26982   1.30398   1.30832
 Alpha virt. eigenvalues --    1.34350   1.36092   1.37253   1.39847   1.41650
 Alpha virt. eigenvalues --    1.42160   1.43865   1.46996   1.47939   1.49968
 Alpha virt. eigenvalues --    1.51551   1.53816   1.54426   1.59587   1.60797
 Alpha virt. eigenvalues --    1.61705   1.64307   1.65352   1.68996   1.70723
 Alpha virt. eigenvalues --    1.72086   1.75558   1.80136   1.81247   1.85775
 Alpha virt. eigenvalues --    1.88523   1.96684   1.98563   2.00460   2.01778
 Alpha virt. eigenvalues --    2.07333   2.11640   2.13931   2.17275   2.22640
 Alpha virt. eigenvalues --    2.31166   2.32819   2.34700   2.37033   2.38299
 Alpha virt. eigenvalues --    2.41351   2.44520   2.47049   2.48271   2.49881
 Alpha virt. eigenvalues --    2.51647   2.55812   2.57851   2.64560   2.68807
 Alpha virt. eigenvalues --    2.69717   2.73103   2.78086   2.81483   2.85297
 Alpha virt. eigenvalues --    2.90448   2.92312   2.94024   2.97137   3.04123
 Alpha virt. eigenvalues --    3.09932   3.11572   3.14419   3.14899   3.18060
 Alpha virt. eigenvalues --    3.24702   3.26491   3.33636   3.38314   3.56481
 Alpha virt. eigenvalues --    3.65218   3.75698   3.76041   3.77264   3.79456
 Alpha virt. eigenvalues --    3.86208   3.93983   3.94060   4.21735   4.29765
 Alpha virt. eigenvalues --    4.79451   4.85282   4.90407   4.96060   5.11643
 Alpha virt. eigenvalues --    5.29067   5.41152   5.48004   5.65328  23.68896
 Alpha virt. eigenvalues --   23.79061  23.84275  23.91289  49.79158  49.84313
 Alpha virt. eigenvalues --   49.90966
  Beta  occ. eigenvalues --  -19.15761 -19.11535 -19.10924 -10.23633 -10.22778
  Beta  occ. eigenvalues --  -10.22741 -10.19470  -1.04006  -1.01930  -0.91271
  Beta  occ. eigenvalues --   -0.80198  -0.70581  -0.67955  -0.57485  -0.51917
  Beta  occ. eigenvalues --   -0.49490  -0.47727  -0.44004  -0.43798  -0.42892
  Beta  occ. eigenvalues --   -0.42519  -0.41084  -0.38382  -0.34437  -0.32967
  Beta  occ. eigenvalues --   -0.29633  -0.28317  -0.25447
  Beta virt. eigenvalues --   -0.10457  -0.01364   0.03166   0.05945   0.06648
  Beta virt. eigenvalues --    0.08130   0.09351   0.09661   0.10836   0.11571
  Beta virt. eigenvalues --    0.14205   0.16211   0.17553   0.19929   0.25580
  Beta virt. eigenvalues --    0.28043   0.29116   0.31268   0.36198   0.38198
  Beta virt. eigenvalues --    0.38948   0.41190   0.42899   0.43389   0.48406
  Beta virt. eigenvalues --    0.49365   0.52112   0.52696   0.53164   0.54541
  Beta virt. eigenvalues --    0.56175   0.56795   0.57655   0.58880   0.59478
  Beta virt. eigenvalues --    0.61694   0.65558   0.65913   0.76417   0.80403
  Beta virt. eigenvalues --    0.81580   0.85176   0.85791   0.87923   0.90159
  Beta virt. eigenvalues --    0.91942   0.94157   0.98154   0.98996   1.02742
  Beta virt. eigenvalues --    1.08761   1.16470   1.18666   1.27456   1.30709
  Beta virt. eigenvalues --    1.31283   1.34637   1.36229   1.38177   1.40049
  Beta virt. eigenvalues --    1.41992   1.42604   1.44225   1.47277   1.48555
  Beta virt. eigenvalues --    1.50221   1.51832   1.54168   1.54677   1.59743
  Beta virt. eigenvalues --    1.61366   1.62317   1.64611   1.66019   1.69391
  Beta virt. eigenvalues --    1.71194   1.72341   1.75921   1.80410   1.82545
  Beta virt. eigenvalues --    1.86954   1.88947   1.97270   1.98874   2.00739
  Beta virt. eigenvalues --    2.02047   2.07555   2.12147   2.14616   2.17776
  Beta virt. eigenvalues --    2.23012   2.31547   2.33049   2.35097   2.37435
  Beta virt. eigenvalues --    2.38678   2.41564   2.44769   2.47341   2.48698
  Beta virt. eigenvalues --    2.50319   2.51961   2.56235   2.58252   2.64763
  Beta virt. eigenvalues --    2.69272   2.69923   2.73488   2.79137   2.82663
  Beta virt. eigenvalues --    2.87309   2.91308   2.92758   2.95106   2.98109
  Beta virt. eigenvalues --    3.05044   3.10244   3.12830   3.15551   3.15861
  Beta virt. eigenvalues --    3.19025   3.25234   3.26606   3.34642   3.38827
  Beta virt. eigenvalues --    3.56588   3.65372   3.76121   3.76192   3.78344
  Beta virt. eigenvalues --    3.79628   3.86375   3.94027   3.94150   4.22589
  Beta virt. eigenvalues --    4.30588   4.81056   4.90093   4.91042   4.95864
  Beta virt. eigenvalues --    5.10535   5.29053   5.42142   5.47895   5.65327
  Beta virt. eigenvalues --   23.69412  23.79448  23.84311  23.91239  49.80505
  Beta virt. eigenvalues --   49.84276  49.90954
          Condensed to atoms (all electrons):
              1          2          3          4          5          6
     1  O    8.054373   0.264895   0.012656  -0.018138   0.014608   0.005827
     2  H    0.264895   0.493146  -0.001552  -0.000523  -0.002471  -0.000067
     3  O    0.012656  -0.001552   8.232603   0.174543  -0.019588  -0.033885
     4  C   -0.018138  -0.000523   0.174543   4.734421   0.289932   0.393204
     5  C    0.014608  -0.002471  -0.019588   0.289932   5.679075  -0.032536
     6  H    0.005827  -0.000067  -0.033885   0.393204  -0.032536   0.620047
     7  H    0.003082  -0.000108  -0.040345   0.398512  -0.033279  -0.052579
     8  C   -0.000167   0.000181   0.003360  -0.049643   0.305649  -0.006363
     9  H    0.000023  -0.000011   0.001066  -0.003142  -0.043756   0.000243
    10  H   -0.000013   0.000005  -0.001812   0.007251  -0.042297   0.000487
    11  H   -0.000309   0.000113   0.005077  -0.003349  -0.028530  -0.002796
    12  C   -0.000591   0.000086   0.004188  -0.049935   0.298619   0.006268
    13  H    0.000027  -0.000006   0.001448  -0.006506  -0.044585   0.000119
    14  H   -0.000080   0.000021  -0.002887   0.011662  -0.067968  -0.000246
    15  O   -0.000032   0.000014  -0.012519   0.009243  -0.046762   0.000229
    16  H    0.003704  -0.000392   0.028954  -0.008228  -0.002980   0.001180
              7          8          9         10         11         12
     1  O    0.003082  -0.000167   0.000023  -0.000013  -0.000309  -0.000591
     2  H   -0.000108   0.000181  -0.000011   0.000005   0.000113   0.000086
     3  O   -0.040345   0.003360   0.001066  -0.001812   0.005077   0.004188
     4  C    0.398512  -0.049643  -0.003142   0.007251  -0.003349  -0.049935
     5  C   -0.033279   0.305649  -0.043756  -0.042297  -0.028530   0.298619
     6  H   -0.052579  -0.006363   0.000243   0.000487  -0.002796   0.006268
     7  H    0.593494   0.006295   0.000504  -0.000399   0.000678  -0.009887
     8  C    0.006295   4.827030   0.394859   0.402492   0.401384  -0.040156
     9  H    0.000504   0.394859   0.575347  -0.032729  -0.023908  -0.001630
    10  H   -0.000399   0.402492  -0.032729   0.564829  -0.024372  -0.001262
    11  H    0.000678   0.401384  -0.023908  -0.024372   0.539594   0.003550
    12  C   -0.009887  -0.040156  -0.001630  -0.001262   0.003550   4.629503
    13  H   -0.000222   0.004247   0.002133  -0.001448  -0.000420   0.386747
    14  H    0.001486  -0.005694  -0.000956   0.008546  -0.000119   0.407918
    15  O    0.017275   0.004280  -0.000102  -0.000014  -0.000140   0.312519
    16  H   -0.007267  -0.000905   0.000032  -0.000072  -0.000031  -0.044955
             13         14         15         16
     1  O    0.000027  -0.000080  -0.000032   0.003704
     2  H   -0.000006   0.000021   0.000014  -0.000392
     3  O    0.001448  -0.002887  -0.012519   0.028954
     4  C   -0.006506   0.011662   0.009243  -0.008228
     5  C   -0.044585  -0.067968  -0.046762  -0.002980
     6  H    0.000119  -0.000246   0.000229   0.001180
     7  H   -0.000222   0.001486   0.017275  -0.007267
     8  C    0.004247  -0.005694   0.004280  -0.000905
     9  H    0.002133  -0.000956  -0.000102   0.000032
    10  H   -0.001448   0.008546  -0.000014  -0.000072
    11  H   -0.000420  -0.000119  -0.000140  -0.000031
    12  C    0.386747   0.407918   0.312519  -0.044955
    13  H    0.604821  -0.048315  -0.030541   0.010318
    14  H   -0.048315   0.628491  -0.031769  -0.008379
    15  O   -0.030541  -0.031769   7.857959   0.318246
    16  H    0.010318  -0.008379   0.318246   0.458632
 Mulliken atomic charges:
              1
     1  O   -0.339864
     2  H    0.246667
     3  O   -0.351307
     4  C    0.120696
     5  C   -0.223129
     6  H    0.100868
     7  H    0.122758
     8  C   -0.246849
     9  H    0.132028
    10  H    0.120808
    11  H    0.133578
    12  C    0.099019
    13  H    0.122183
    14  H    0.108287
    15  O   -0.397888
    16  H    0.252143
 Sum of Mulliken charges=   0.00000
 Atomic charges with hydrogens summed into heavy atoms:
              1
     1  O   -0.093197
     2  H    0.000000
     3  O   -0.351307
     4  C    0.344323
     5  C   -0.223129
     6  H    0.000000
     7  H    0.000000
     8  C    0.139566
     9  H    0.000000
    10  H    0.000000
    11  H    0.000000
    12  C    0.329489
    13  H    0.000000
    14  H    0.000000
    15  O   -0.145745
    16  H    0.000000
 Sum of Mulliken charges=   0.00000
          Atomic-Atomic Spin Densities.
              1          2          3          4          5          6
     1  O    0.591304  -0.000620  -0.085735  -0.002431   0.009233   0.000368
     2  H   -0.000620  -0.013232   0.005818   0.000126  -0.001205  -0.000133
     3  O   -0.085735   0.005818  -0.057442   0.018688  -0.004440  -0.002179
     4  C   -0.002431   0.000126   0.018688  -0.026875  -0.026972   0.000418
     5  C    0.009233  -0.001205  -0.004440  -0.026972   0.771331   0.001047
     6  H    0.000368  -0.000133  -0.002179   0.000418   0.001047   0.002097
     7  H    0.001510  -0.000146  -0.005418  -0.002080   0.002631   0.000267
     8  C   -0.000089   0.000034  -0.001393   0.000442  -0.027082   0.000035
     9  H    0.000033  -0.000015  -0.000056  -0.002751  -0.021531   0.000405
    10  H   -0.000044   0.000024   0.000101   0.001159  -0.008254  -0.000089
    11  H   -0.000181   0.000073  -0.000061   0.002025  -0.004787  -0.000570
    12  C   -0.000361   0.000063  -0.000575   0.004790  -0.033746  -0.000159
    13  H    0.000045  -0.000010  -0.000136  -0.002778  -0.015002   0.000097
    14  H   -0.000119   0.000034   0.000086   0.001960  -0.016862  -0.000056
    15  O   -0.000053   0.000011   0.000267   0.001906  -0.004387  -0.000026
    16  H    0.000673  -0.000088  -0.001368  -0.000991   0.004501   0.000087
              7          8          9         10         11         12
     1  O    0.001510  -0.000089   0.000033  -0.000044  -0.000181  -0.000361
     2  H   -0.000146   0.000034  -0.000015   0.000024   0.000073   0.000063
     3  O   -0.005418  -0.001393  -0.000056   0.000101  -0.000061  -0.000575
     4  C   -0.002080   0.000442  -0.002751   0.001159   0.002025   0.004790
     5  C    0.002631  -0.027082  -0.021531  -0.008254  -0.004787  -0.033746
     6  H    0.000267   0.000035   0.000405  -0.000089  -0.000570  -0.000159
     7  H    0.012740  -0.000052   0.000325  -0.000087  -0.000180  -0.000732
     8  C   -0.000052  -0.040701   0.014203   0.001160   0.002982   0.001073
     9  H    0.000325   0.014203   0.063902  -0.010450  -0.006791  -0.000991
    10  H   -0.000087   0.001160  -0.010450   0.022016   0.003850   0.001886
    11  H   -0.000180   0.002982  -0.006791   0.003850   0.011205   0.000319
    12  C   -0.000732   0.001073  -0.000991   0.001886   0.000319  -0.035599
    13  H    0.000834   0.001589   0.002999  -0.001711  -0.000284   0.004484
    14  H   -0.000312  -0.000312  -0.001720   0.003592   0.000445   0.009709
    15  O   -0.000799  -0.000005  -0.000058   0.000056   0.000015   0.005885
    16  H    0.000628   0.000011   0.000064  -0.000095  -0.000038  -0.000960
             13         14         15         16
     1  O    0.000045  -0.000119  -0.000053   0.000673
     2  H   -0.000010   0.000034   0.000011  -0.000088
     3  O   -0.000136   0.000086   0.000267  -0.001368
     4  C   -0.002778   0.001960   0.001906  -0.000991
     5  C   -0.015002  -0.016862  -0.004387   0.004501
     6  H    0.000097  -0.000056  -0.000026   0.000087
     7  H    0.000834  -0.000312  -0.000799   0.000628
     8  C    0.001589  -0.000312  -0.000005   0.000011
     9  H    0.002999  -0.001720  -0.000058   0.000064
    10  H   -0.001711   0.003592   0.000056  -0.000095
    11  H   -0.000284   0.000445   0.000015  -0.000038
    12  C    0.004484   0.009709   0.005885  -0.000960
    13  H    0.060674  -0.013152  -0.002518   0.001107
    14  H   -0.013152   0.039093   0.001181  -0.001443
    15  O   -0.002518   0.001181   0.001714  -0.001531
    16  H    0.001107  -0.001443  -0.001531   0.001470
 Mulliken atomic spin densities:
              1
     1  O    0.513532
     2  H   -0.009267
     3  O   -0.133841
     4  C   -0.033366
     5  C    0.624475
     6  H    0.001610
     7  H    0.009128
     8  C   -0.048105
     9  H    0.037568
    10  H    0.013114
    11  H    0.008021
    12  C   -0.044914
    13  H    0.036236
    14  H    0.022124
    15  O    0.001659
    16  H    0.002027
 Sum of Mulliken spin densities=   1.00000
 APT atomic charges:
              1
     1  O   -0.713118
     2  H    0.244213
     3  O    0.148873
     4  C    0.325100
     5  C    0.034873
     6  H   -0.034052
     7  H   -0.003318
     8  C   -0.024637
     9  H   -0.010223
    10  H    0.000787
    11  H    0.016714
    12  C    0.363124
    13  H   -0.016410
    14  H   -0.062764
    15  O   -0.548198
    16  H    0.279035
 Sum of APT charges=   0.00000
 APT Atomic charges with hydrogens summed into heavy atoms:
              1
     1  O   -0.468905
     2  H    0.000000
     3  O    0.148873
     4  C    0.287730
     5  C    0.034873
     6  H    0.000000
     7  H    0.000000
     8  C   -0.017359
     9  H    0.000000
    10  H    0.000000
    11  H    0.000000
    12  C    0.283950
    13  H    0.000000
    14  H    0.000000
    15  O   -0.269163
    16  H    0.000000
 Sum of APT charges=   0.00000
 Electronic spatial extent (au):  <R**2>=  2804.3750
 Charge=     0.0000 electrons
 Dipole moment (field-independent basis, Debye):
    X=     2.1049    Y=    -3.3047    Z=    -0.4426  Tot=     3.9430
 Quadrupole moment (field-independent basis, Debye-Ang):
   XX=   -29.7937   YY=   -51.0473   ZZ=   -40.6773
   XY=    -7.5479   XZ=    -4.5414   YZ=     0.3993
 Traceless Quadrupole moment (field-independent basis, Debye-Ang):
   XX=    10.7124   YY=   -10.5411   ZZ=    -0.1712
   XY=    -7.5479   XZ=    -4.5414   YZ=     0.3993
 Octapole moment (field-independent basis, Debye-Ang**2):
  XXX=  -320.6068  YYY=  -136.2068  ZZZ=    54.3351  XYY=  -155.4204
  XXY=   -65.8237  XXZ=     3.2378  XZZ=  -120.5646  YZZ=   -35.2329
  YYZ=    17.4527  XYZ=    -2.8320
 Hexadecapole moment (field-independent basis, Debye-Ang**3):
 XXXX= -2571.5903 YYYY=  -631.5436 ZZZZ=  -187.0687 XXXY=  -405.9726
 XXXZ=    84.4070 YYYX=  -407.8975 YYYZ=     4.1773 ZZZX=   141.6680
 ZZZY=     6.8693 XXYY=  -690.6174 XXZZ=  -492.2359 YYZZ=  -119.5687
 XXYZ=   -11.6250 YYXZ=    37.3521 ZZXY=   -97.8592
 N-N= 3.235309600329D+02 E-N=-1.547179944617D+03  KE= 3.822090895026D+02
  Exact polarizability: 107.152 -10.314  59.280  -0.183   2.440  50.205
 Approx polarizability: 167.711 -19.506  80.140  -6.613   1.495  71.853
                          Isotropic Fermi Contact Couplings
        Atom                 a.u.       MegaHertz       Gauss      10(-4) cm-1
     1  O(17)              0.04160     -25.22001      -8.99913      -8.41249
     2  H(1)              -0.00789     -35.24885     -12.57766     -11.75775
     3  O(17)              0.43398    -263.07737     -93.87254     -87.75316
     4  C(13)             -0.01165     -13.09175      -4.67146      -4.36694
     5  C(13)              0.02926      32.89401      11.73740      10.97226
     6  H(1)               0.00096       4.30812       1.53725       1.43704
     7  H(1)               0.00423      18.91541       6.74949       6.30950
     8  C(13)             -0.01879     -21.12231      -7.53697      -7.04564
     9  H(1)               0.01944      86.87507      30.99918      28.97840
    10  H(1)               0.00554      24.76305       8.83607       8.26006
    11  H(1)               0.00446      19.91988       7.10791       6.64456
    12  C(13)             -0.01959     -22.01743      -7.85637      -7.34422
    13  H(1)               0.01784      79.75874      28.45990      26.60465
    14  H(1)               0.01099      49.14213      17.53513      16.39205
    15  O(17)              0.00524      -3.17406      -1.13258      -1.05875
    16  H(1)              -0.00004      -0.16489      -0.05884      -0.05500
 --------------------------------------------------------
       Center         ----  Spin Dipole Couplings  ----
                      3XX-RR        3YY-RR        3ZZ-RR
 --------------------------------------------------------
     1   Atom        1.749559     -0.773753     -0.975806
     2   Atom       -0.006997      0.029459     -0.022462
     3   Atom       -0.591424      0.241813      0.349612
     4   Atom       -0.002846     -0.001512      0.004358
     5   Atom       -0.034259     -0.331979      0.366237
     6   Atom        0.007107     -0.006232     -0.000875
     7   Atom        0.005911     -0.002536     -0.003374
     8   Atom       -0.001679      0.006562     -0.004883
     9   Atom       -0.001057      0.004665     -0.003608
    10   Atom       -0.001317      0.004413     -0.003097
    11   Atom       -0.004529      0.009402     -0.004872
    12   Atom       -0.003844      0.004502     -0.000658
    13   Atom        0.004766     -0.000372     -0.004393
    14   Atom       -0.000819     -0.003920      0.004739
    15   Atom       -0.007632      0.014795     -0.007163
    16   Atom       -0.000003      0.002718     -0.002715
 --------------------------------------------------------
                        XY            XZ            YZ
 --------------------------------------------------------
     1   Atom       -0.896582      0.496888     -0.165973
     2   Atom        0.033936     -0.025411     -0.066965
     3   Atom        0.252247     -0.150331      0.010548
     4   Atom       -0.003614      0.005538     -0.002253
     5   Atom        0.122257     -0.522091     -0.162721
     6   Atom       -0.000692      0.003986      0.001544
     7   Atom       -0.004517      0.001228     -0.004005
     8   Atom       -0.003865     -0.006976     -0.002764
     9   Atom       -0.006801     -0.003343      0.002933
    10   Atom       -0.005135      0.002941     -0.004501
    11   Atom        0.001753      0.000495      0.001462
    12   Atom        0.009081     -0.001744      0.000309
    13   Atom        0.006405      0.001378      0.003654
    14   Atom        0.002338      0.006677      0.004135
    15   Atom       -0.001097      0.000062      0.017392
    16   Atom       -0.002640     -0.000981      0.004644
 --------------------------------------------------------


 ---------------------------------------------------------------------------------
              Anisotropic Spin Dipole Couplings in Principal Axis System
 ---------------------------------------------------------------------------------

       Atom             a.u.   MegaHertz   Gauss  10(-4) cm-1        Axes

              Baa    -1.0694    77.381    27.611    25.811  0.0514  0.6028  0.7963
     1 O(17)  Bbb    -1.0548    76.325    27.235    25.459  0.3394  0.7393 -0.5815
              Bcc     2.1242  -153.706   -54.846   -51.271  0.9392 -0.3001  0.1666
 
              Baa    -0.0684   -36.489   -13.020   -12.171  0.0366  0.5557  0.8306
     2 H(1)   Bbb    -0.0248   -13.252    -4.729    -4.420  0.9204 -0.3426  0.1887
              Bcc     0.0932    49.741    17.749    16.592  0.3894  0.7575 -0.5240
 
              Baa    -0.6830    49.419    17.634    16.484  0.9546 -0.2620  0.1417
     3 O(17)  Bbb     0.2996   -21.681    -7.736    -7.232  0.1910  0.9035  0.3838
              Bcc     0.3833   -27.738    -9.898    -9.252 -0.2285 -0.3393  0.9125
 
              Baa    -0.0069    -0.920    -0.328    -0.307  0.8409  0.4298 -0.3288
     4 C(13)  Bbb    -0.0019    -0.253    -0.090    -0.084 -0.2288  0.8330  0.5038
              Bcc     0.0087     1.173     0.419     0.391  0.4904 -0.3484  0.7988
 
              Baa    -0.3959   -53.126   -18.957   -17.721  0.8154 -0.3015  0.4942
     5 C(13)  Bbb    -0.3670   -49.253   -17.575   -16.429  0.1538  0.9358  0.3172
              Bcc     0.7629   102.379    36.531    34.150 -0.5581 -0.1826  0.8094
 
              Baa    -0.0069    -3.675    -1.311    -1.226  0.1409  0.9324 -0.3329
     6 H(1)   Bbb    -0.0019    -0.997    -0.356    -0.333 -0.3550  0.3615  0.8622
              Bcc     0.0088     4.672     1.667     1.558  0.9242 -0.0033  0.3819
 
              Baa    -0.0074    -3.937    -1.405    -1.313  0.1841  0.7227  0.6663
     7 H(1)   Bbb    -0.0012    -0.617    -0.220    -0.206 -0.4639 -0.5337  0.7071
              Bcc     0.0085     4.554     1.625     1.519  0.8666 -0.4392  0.2370
 
              Baa    -0.0116    -1.556    -0.555    -0.519  0.6199  0.2454  0.7453
     8 C(13)  Bbb     0.0035     0.470     0.168     0.157  0.6932  0.2736 -0.6668
              Bcc     0.0081     1.086     0.387     0.362 -0.3675  0.9300 -0.0005
 
              Baa    -0.0064    -3.419    -1.220    -1.141  0.7558  0.3117  0.5758
     9 H(1)   Bbb    -0.0041    -2.181    -0.778    -0.727 -0.3605 -0.5360  0.7634
              Bcc     0.0105     5.600     1.998     1.868 -0.5466  0.7846  0.2927
 
              Baa    -0.0054    -2.884    -1.029    -0.962 -0.3771  0.2156  0.9007
    10 H(1)   Bbb    -0.0043    -2.284    -0.815    -0.762  0.7963  0.5721  0.1965
              Bcc     0.0097     5.168     1.844     1.724 -0.4729  0.7913 -0.3875
 
              Baa    -0.0052    -2.789    -0.995    -0.930 -0.5477 -0.0180  0.8365
    11 H(1)   Bbb    -0.0045    -2.426    -0.866    -0.809  0.8273 -0.1604  0.5383
              Bcc     0.0098     5.215     1.861     1.740  0.1245  0.9869  0.1027
 
              Baa    -0.0100    -1.336    -0.477    -0.446  0.8322 -0.5265  0.1737
    12 C(13)  Bbb    -0.0004    -0.055    -0.020    -0.018 -0.1126  0.1462  0.9828
              Bcc     0.0104     1.391     0.496     0.464  0.5429  0.8375 -0.0624
 
              Baa    -0.0071    -3.800    -1.356    -1.268  0.2603 -0.6389  0.7239
    13 H(1)   Bbb    -0.0027    -1.445    -0.516    -0.482 -0.5589  0.5117  0.6526
              Bcc     0.0098     5.245     1.872     1.750  0.7873  0.5744  0.2238
 
              Baa    -0.0057    -3.045    -1.086    -1.016  0.3721  0.7568 -0.5374
    14 H(1)   Bbb    -0.0050    -2.678    -0.956    -0.893  0.7673 -0.5766 -0.2807
              Bcc     0.0107     5.723     2.042     1.909  0.5223  0.3079  0.7952
 
              Baa    -0.0168     1.215     0.433     0.405 -0.0638 -0.4831  0.8733
    15 O(17)  Bbb    -0.0076     0.551     0.197     0.184  0.9975 -0.0054  0.0699
              Bcc     0.0244    -1.766    -0.630    -0.589 -0.0291  0.8756  0.4822
 
              Baa    -0.0054    -2.894    -1.033    -0.965 -0.0978 -0.5168  0.8505
    16 H(1)   Bbb    -0.0011    -0.606    -0.216    -0.202  0.9153  0.2887  0.2807
              Bcc     0.0066     3.500     1.249     1.168 -0.3906  0.8059  0.4449
 

 ---------------------------------------------------------------------------------

 Use density number 0.
 Entering OneElI...
 Calculate overlap and kinetic energy integrals
    NBasis = 187  MinDer = 2  MaxDer = 2
 Requested accuracy = 0.1000D-12
 PrsmSu:  NPrtUS=   1 ThrOK=F
 PRISM was handed   130760880 working-precision words and  2539 shell-pairs
 Entering OneElI...
 Calculate potential energy integrals
    NBasis = 187  MinDer = 2  MaxDer = 2
 Requested accuracy = 0.1000D-12
 PrsmSu:  NPrtUS=   8 ThrOK=T
 PRISM was handed    16302660 working-precision words and  2343 shell-pairs
 PRISM was handed    16302660 working-precision words and  2343 shell-pairs
 PRISM was handed    16302660 working-precision words and  2343 shell-pairs
 PRISM was handed    16302660 working-precision words and  2343 shell-pairs
 PRISM was handed    16302660 working-precision words and  2343 shell-pairs
 PRISM was handed    16302660 working-precision words and  2343 shell-pairs
 PRISM was handed    16302660 working-precision words and  2343 shell-pairs
 PRISM was handed    16302660 working-precision words and  2343 shell-pairs
 Polarizability after L701:
                1             2             3
      1  0.107152D+03
      2 -0.103138D+02  0.592801D+02
      3 -0.183025D+00  0.243995D+01  0.502051D+02
 Dipole Derivatives after L701:
               1            2            3            4            5
      1-0.153403D+01 0.261304D+00-0.102808D+00 0.332916D+00 0.709537D-01
      2 0.276762D+00-0.273513D+00-0.902799D-01-0.337853D-01 0.142105D+00
      3 0.674304D-01-0.130651D+00-0.331807D+00 0.765652D-02 0.941856D-01
               6            7            8            9           10
      1-0.546604D-01 0.130987D+01-0.466268D+00 0.552227D-01 0.100163D+00
      2 0.113604D+00-0.388186D+00-0.318525D+00-0.127461D-01 0.679145D-01
      3 0.257620D+00 0.481712D-02 0.256689D-01-0.544726D+00-0.522775D-01
              11           12           13           14           15
      1 0.652517D-01-0.202484D-01-0.187549D+00 0.180313D-01 0.238217D+00
      2 0.294476D+00 0.719474D-02 0.294357D-01 0.334511D+00 0.357820D-01
      3-0.331646D-01 0.580659D+00 0.713739D-01 0.916227D-01-0.423439D-01
              16           17           18           19           20
      1 0.335303D-01-0.563500D-01-0.280318D-01 0.674750D-01 0.196233D-01
      2-0.481903D-01-0.494542D-01-0.720774D-01 0.195654D-01-0.916542D-01
      3-0.579214D-01-0.129669D+00-0.862310D-01 0.389240D-02 0.101062D+00
              21           22           23           24           25
      1 0.190602D-01-0.254258D-01-0.783431D-03 0.828641D-01-0.409303D-01
      2 0.317065D-01 0.412515D-01-0.129014D+00-0.110060D+00 0.477049D-01
      3 0.142265D-01-0.296514D-01-0.476227D-01 0.805296D-01 0.951074D-01
              26           27           28           29           30
      1 0.105156D+00 0.823655D-01 0.461980D-01 0.535644D-01-0.116653D+00
      2 0.204250D-01-0.610642D-02 0.234834D-01 0.337149D-01 0.747429D-01
      3-0.235950D-02-0.101633D-01-0.688969D-01 0.261333D-02-0.775529D-01
              31           32           33           34           35
      1-0.172125D-01 0.302843D-02-0.565618D-01 0.187265D+00-0.977154D-02
      2-0.942551D-01-0.127896D-01 0.464650D-02-0.213163D+00 0.559437D+00
      3-0.291059D-01-0.278958D-01 0.801438D-01-0.501524D-01 0.367107D-02
              36           37           38           39           40
      1 0.335742D-01-0.902686D-01-0.129191D+00 0.464899D-01 0.278589D-02
      2-0.273377D-02 0.770457D-03 0.254824D-01 0.904149D-02 0.425931D-01
      3 0.342669D+00 0.718451D-01-0.567707D-02 0.155559D-01-0.381397D-01
              41           42           43           44           45
      1 0.472056D-01-0.130465D+00-0.390194D+00 0.340389D-01-0.843375D-01
      2-0.629972D-01 0.827237D-01 0.198066D+00-0.774294D+00-0.163036D+00
      3 0.821242D-01-0.128080D+00-0.474669D-01-0.131128D+00-0.480106D+00
              46           47           48
      1 0.205409D+00-0.157930D-01 0.359731D-01
      2 0.300329D-01 0.302090D+00 0.975989D-01
      3 0.514893D-01 0.107220D+00 0.329607D+00
 Hessian after L701:
                1             2             3             4             5
      1  0.289610D+01
      2 -0.375817D-01  0.588154D+01
      3  0.664510D+00  0.168056D+01  0.769462D+01
      4 -0.506589D+01  0.136145D+01 -0.937293D+00  0.489390D+01
      5  0.116663D+01 -0.333414D+01 -0.180469D+01 -0.143504D+01  0.338916D+01
      6 -0.816716D+00 -0.182758D+01 -0.477973D+01  0.101450D+01  0.186973D+01
      7  0.775935D+00 -0.100987D+01  0.540224D+00  0.639311D-01  0.144509D+00
      8 -0.904049D+00 -0.172551D+01 -0.332537D-01  0.418306D-01 -0.331512D-01
      9  0.431341D+00 -0.210898D-01 -0.209055D+01 -0.255436D-01 -0.331761D-01
     10  0.792005D-01 -0.124478D+00 -0.284913D+00  0.555186D-01  0.369276D-01
     11 -0.112854D+00 -0.292225D+00  0.804847D-01  0.147334D-01 -0.149779D-01
     12 -0.197699D+00  0.628213D-01 -0.194336D+00 -0.331018D-01 -0.110004D-01
     13  0.667429D+00 -0.220530D+00 -0.207718D-01 -0.231584D-01  0.200667D-01
     14 -0.210216D+00 -0.183919D+00  0.108134D-01  0.442257D-02 -0.925090D-03
     15 -0.157552D-01  0.102668D-01 -0.239647D+00  0.471795D-02 -0.566770D-02
     16  0.318502D-01 -0.284481D-01 -0.563567D-01  0.249110D-02  0.797076D-03
     17 -0.722631D-01 -0.329967D-01  0.468706D-01 -0.546748D-02 -0.756687D-02
     18 -0.106261D+00  0.429138D-01 -0.158645D-02 -0.113941D-01 -0.816065D-02
     19  0.703623D-01  0.115066D-01 -0.756375D-01  0.681290D-04  0.230760D-02
     20  0.724216D-01 -0.542134D-01 -0.413291D-01  0.766614D-02  0.777016D-02
     21 -0.905427D-01 -0.527996D-02 -0.602096D-02 -0.454611D-02 -0.499838D-02
     22  0.800004D-01 -0.115399D+00  0.771648D-03  0.225367D-01  0.678413D-02
     23 -0.786912D-01 -0.405382D-01  0.355299D-02 -0.639751D-02 -0.570028D-02
     24 -0.198957D-02  0.697205D-02 -0.828883D-01 -0.626408D-02 -0.177254D-02
     25  0.147541D-01 -0.169587D-01 -0.386881D-02  0.344304D-02  0.349867D-02
     26 -0.441410D-02 -0.173990D-02  0.210995D-02 -0.108816D-02 -0.151799D-02
     27 -0.122540D-01  0.101786D-01 -0.574560D-02 -0.272339D-02 -0.287828D-02
     28  0.136457D-01 -0.173242D-01  0.677517D-02  0.371840D-02  0.264893D-02
     29 -0.121711D-01  0.145150D-02 -0.353484D-02 -0.204603D-02 -0.225481D-02
     30  0.137844D-01 -0.135757D-01 -0.206402D-02  0.359842D-02  0.355711D-02
     31 -0.101661D-01  0.134013D-02 -0.113026D-02 -0.403454D-03 -0.323805D-02
     32 -0.218541D-01  0.190560D-01  0.821334D-03 -0.645769D-02 -0.447596D-02
     33 -0.648895D-02  0.878267D-02 -0.129867D-01 -0.236702D-02 -0.981169D-03
     34  0.101620D+00  0.564882D-02  0.333616D-01  0.161683D-01  0.130861D-01
     35  0.169860D-01 -0.953172D-01  0.476429D-02  0.650552D-02 -0.236787D-02
     36  0.240967D-01  0.237391D-02 -0.875513D-01 -0.228771D-02 -0.287569D-02
     37  0.277598D-01  0.307272D-03  0.321643D-02  0.435623D-02  0.550503D-02
     38  0.533879D-03 -0.629748D-02  0.141629D-03  0.111505D-02  0.837409D-03
     39 -0.102012D-01  0.158079D-02 -0.904204D-02 -0.169672D-02 -0.220949D-02
     40  0.155623D-01 -0.358601D-02  0.110045D-01  0.366653D-02  0.327690D-02
     41 -0.757138D-02 -0.767502D-02 -0.314306D-02 -0.955923D-03 -0.211080D-02
     42  0.208932D-01 -0.403435D-02  0.213302D-02  0.416227D-02  0.459783D-02
     43  0.276113D+00  0.170844D+00  0.107387D+00  0.267434D-01  0.388819D-01
     44  0.167127D+00 -0.985940D-01  0.448073D-01  0.214509D-01  0.124930D-01
     45  0.591447D-01  0.286865D-01 -0.157242D+00 -0.940739D-03 -0.204221D-02
     46  0.257157D-01  0.230859D-01  0.127203D-01 -0.709684D-02 -0.664089D-02
     47  0.379692D-01 -0.288800D-01  0.110217D-01 -0.172144D-02 -0.106918D-02
     48  0.441377D-01  0.164191D-01 -0.273612D-01  0.117881D-02  0.257023D-02
                6             7             8             9            10
      6  0.484415D+01
      7 -0.942242D-01  0.246745D+01
      8 -0.256636D-01  0.307706D+00  0.997173D+01
      9 -0.481226D-01  0.333959D+01  0.868526D-01  0.599540D+01
     10 -0.495540D-01 -0.545776D+01  0.240336D+00 -0.354962D+01  0.169332D+02
     11 -0.826456D-02  0.232687D+00 -0.807595D+01 -0.745152D+00  0.457899D+00
     12 -0.418632D-02 -0.366780D+01 -0.762117D+00 -0.128017D+01  0.253789D+00
     13 -0.582428D-02  0.891814D+00 -0.107423D+00 -0.648668D+00 -0.241634D+01
     14 -0.215922D-02 -0.114114D+00 -0.742975D+00  0.155486D+00 -0.143538D+01
     15 -0.620268D-03 -0.558280D+00  0.135976D+00 -0.982462D+00  0.240377D+01
     16 -0.509926D-02  0.462483D-01  0.300891D-01  0.208741D+00 -0.440412D+01
     17  0.610545D-02  0.616356D-02  0.311147D+00  0.312145D+00  0.598171D+00
     18  0.968526D-02  0.192981D+00  0.315880D+00 -0.326321D-01  0.772539D+00
     19 -0.221298D-02  0.990180D-01  0.245395D-01  0.144676D+00 -0.490363D+01
     20 -0.817929D-02  0.549276D-01  0.511379D+00 -0.100049D+00  0.801997D-01
     21  0.278196D-02  0.163943D+00 -0.710024D-01 -0.253338D+00 -0.762313D-01
     22 -0.137561D-01  0.383262D+00 -0.406224D+00 -0.113077D+00  0.769763D-01
     23  0.837960D-03 -0.378014D+00 -0.109134D+00  0.594272D-01 -0.167789D+00
     24 -0.506340D-02 -0.131298D+00  0.801676D-01 -0.304271D+00  0.276749D-01
     25 -0.340642D-02  0.606020D-01 -0.402722D-01 -0.393020D-01  0.253946D-01
     26  0.912990D-03 -0.466484D-01 -0.327423D-02  0.185205D-01 -0.127892D-01
     27  0.202194D-02 -0.502133D-01  0.250187D-01 -0.665475D-03 -0.157463D-01
     28 -0.234565D-02  0.201540D-01 -0.303295D-01  0.522965D-02  0.348318D-01
     29  0.117277D-02 -0.258085D-01  0.249739D-02 -0.378842D-02 -0.881212D-01
     30 -0.339616D-02  0.367810D-01 -0.239244D-01 -0.115247D-01  0.863426D-01
     31  0.891097D-03 -0.166074D-01 -0.428682D-01 -0.142822D-01 -0.235608D-01
     32  0.445273D-02 -0.128295D+00  0.705008D-01  0.410438D-01 -0.345044D-01
     33  0.977160D-04 -0.373800D-01  0.414732D-01 -0.518187D-01  0.275316D-02
     34 -0.582631D-02  0.568066D+00  0.178241D+00  0.997990D-01  0.157499D+00
     35 -0.209712D-02  0.220749D+00 -0.328858D+00  0.118017D-01  0.112114D+00
     36 -0.475071D-02  0.679884D-01  0.656830D-02 -0.366064D+00  0.111163D+00
     37 -0.344514D-02  0.110672D+00  0.396683D-01 -0.195053D-01 -0.193435D-01
     38 -0.940156D-03  0.413910D-01 -0.180578D-01 -0.718918D-02 -0.174048D-01
     39  0.814664D-03 -0.283210D-01 -0.110828D-01 -0.245641D-01 -0.221325D-01
     40 -0.136499D-02  0.117615D-01  0.387132D-02  0.825169D-02  0.693581D-01
     41  0.768347D-03 -0.150877D-01 -0.171292D-01 -0.387319D-02  0.153259D-02
     42 -0.322893D-02  0.435098D-01  0.565510D-02 -0.139177D-03  0.180589D+00
     43 -0.139168D-01  0.135970D+00  0.510214D+00  0.131526D+00 -0.201314D+00
     44 -0.897828D-02  0.439243D+00  0.510615D-01  0.116381D+00  0.357919D+00
     45 -0.916183D-02  0.653781D-01  0.619651D-01 -0.338619D+00  0.156933D+00
     46  0.230053D-02 -0.160515D+00  0.154670D+00  0.408409D-01 -0.593338D-02
     47 -0.116940D-03  0.270466D+00  0.135723D+00  0.112661D+00 -0.463409D-02
     48 -0.129168D-02  0.117121D+00  0.167487D+00 -0.210464D+00  0.264314D-02
               11            12            13            14            15
     11  0.198444D+02
     12  0.967385D+00  0.143774D+02
     13 -0.140590D+01  0.266260D+01  0.116332D+02
     14 -0.646623D+01 -0.712689D+00  0.983667D+00  0.112280D+02
     15 -0.641923D+00 -0.556462D+01 -0.337619D+01 -0.219667D+01  0.169083D+02
     16  0.627146D+00  0.731368D+00 -0.583366D-01 -0.123893D+00 -0.460200D-01
     17 -0.354003D+01  0.146294D+01 -0.753052D-01  0.581105D-01 -0.363251D-01
     18  0.160356D+01 -0.278069D+01 -0.600591D-01 -0.961923D-01  0.117507D+00
     19  0.373940D-02 -0.393522D-01 -0.298745D-01  0.141241D+00  0.196968D-01
     20 -0.192088D+01 -0.124865D+01  0.855076D-01 -0.851257D-02 -0.721142D-01
     21 -0.154466D+01 -0.427615D+01 -0.580127D-03  0.243692D-02  0.191541D+00
     22 -0.199291D+00 -0.404565D-01 -0.561747D+01 -0.182998D+01  0.130268D+00
     23  0.173750D+00  0.324948D-01 -0.173459D+01 -0.113864D+01 -0.111634D+00
     24 -0.503578D-01 -0.731767D-01  0.108218D+00 -0.658893D-01 -0.627507D+01
     25 -0.235599D-01 -0.861257D-02  0.112358D+00  0.386586D-02 -0.567668D-01
     26 -0.104577D-01  0.812077D-03  0.361041D-01  0.323639D-01  0.136748D-01
     27  0.861110D-02 -0.662843D-02 -0.599735D-01  0.408527D-01  0.157694D+00
     28 -0.787365D-01  0.661145D-01  0.622281D-01  0.460479D-01  0.691180D-02
     29  0.310842D-01 -0.723350D-01  0.741387D-01 -0.319241D-02  0.232399D-01
     30 -0.826366D-01  0.192555D-01  0.169742D-01 -0.326917D-01  0.172015D+00
     31  0.178309D-01  0.407602D-02  0.875213D-01  0.107095D+00  0.174032D-01
     32  0.316353D-01 -0.220109D-02  0.233035D-01  0.858484D-01  0.121267D-01
     33 -0.112837D-02 -0.214115D-01  0.129333D-01  0.271935D-01  0.388561D-01
     34  0.922194D-01 -0.428307D-02 -0.531806D+01  0.217533D+01  0.157433D+01
     35  0.201460D-01  0.430256D-01  0.199216D+01 -0.314397D+01  0.246296D+01
     36  0.620204D-01  0.286778D-01  0.145044D+01  0.245020D+01 -0.492145D+01
     37 -0.787811D-02 -0.203122D-01  0.151343D+00 -0.599876D-01  0.405941D-02
     38 -0.387702D-02 -0.814118D-02 -0.658011D-01  0.147197D-01 -0.426864D-02
     39 -0.909480D-02 -0.162633D-02 -0.345202D-01 -0.236336D-01  0.129295D+00
     40  0.136968D-01  0.155332D+00  0.101483D+00 -0.496540D-01 -0.226356D+00
     41 -0.761394D-01  0.365060D-02 -0.537944D-01  0.230603D+00 -0.102712D+00
     42  0.187475D-01  0.130692D+00 -0.192794D+00 -0.728566D-01 -0.967013D-01
     43  0.412936D+00  0.169826D+00 -0.197041D+00  0.345833D+00  0.131599D+00
     44  0.325602D+00  0.280847D+00  0.367440D+00  0.117268D+00  0.500449D+00
     45  0.346760D+00 -0.337877D+00  0.123055D+00  0.486559D+00  0.324960D+00
     46 -0.446716D-01 -0.314842D-01 -0.470592D-01  0.157230D-01 -0.133887D-01
     47 -0.258469D-01 -0.368388D-01  0.809526D-01 -0.785605D-01  0.126250D-01
     48 -0.434435D-02 -0.151239D-01  0.251566D-01  0.292391D-01  0.404444D-01
               16            17            18            19            20
     16  0.413076D+01
     17 -0.468749D+00  0.349160D+01
     18 -0.931419D+00 -0.184321D+01  0.241996D+01
     19  0.192616D+00 -0.980157D-01 -0.207207D-01  0.462212D+01
     20 -0.105824D+00 -0.299285D+00 -0.135081D+00 -0.765386D-01  0.173106D+01
     21 -0.122796D-01 -0.844261D-01  0.201371D+00 -0.137769D+00  0.168249D+01
     22 -0.416211D-02  0.686551D-02 -0.109576D-01 -0.231243D-02 -0.957805D-01
     23 -0.880085D-02 -0.246293D-02  0.543678D-02 -0.774146D-01  0.107769D+00
     24 -0.217070D-01  0.180761D-01 -0.364205D-01  0.290622D-01 -0.634114D-01
     25  0.154532D-01  0.808037D-04  0.126748D-01  0.486672D-02 -0.177779D-01
     26 -0.768058D-02 -0.378677D-02 -0.438637D-02 -0.843379D-02  0.113131D-01
     27 -0.255334D-02 -0.316440D-02 -0.856047D-02 -0.126969D-02  0.602640D-02
     28  0.755629D-02 -0.355001D-03  0.138532D-01 -0.237597D-02 -0.200412D-02
     29 -0.669819D-02 -0.349115D-02 -0.815479D-02  0.388423D-02 -0.124179D-03
     30  0.131462D-01  0.110973D-02  0.134378D-01 -0.676630D-03 -0.628074D-02
     31 -0.543291D-02  0.169805D-02 -0.921899D-02 -0.404433D-02  0.350015D-02
     32 -0.613176D-02 -0.420649D-02 -0.989775D-02 -0.557009D-02  0.266045D-01
     33 -0.358391D-03  0.174804D-02 -0.821418D-03  0.828848D-03 -0.273722D-02
     34  0.465522D-01  0.624491D-01  0.109163D+00 -0.246026D-01  0.121117D-01
     35  0.612363D-01 -0.828832D-02  0.673179D-01  0.205690D-01  0.428334D-02
     36  0.921697D-01  0.609415D-01  0.639834D-01 -0.410527D-01  0.763776D-02
     37  0.825321D-02  0.953039D-02  0.112202D-01  0.106528D-01 -0.132624D-01
     38  0.387699D-02  0.124728D-02  0.346565D-02 -0.578462D-04 -0.443129D-02
     39  0.354220D-03 -0.618702D-03 -0.309041D-02  0.216421D-02  0.181168D-02
     40 -0.793108D-03  0.244156D-02  0.195432D-02  0.846992D-02 -0.101156D-01
     41 -0.251594D-02 -0.169460D-02 -0.287498D-02 -0.606205D-02 -0.162751D-02
     42  0.228588D-02  0.548879D-02  0.594485D-02  0.202822D-01 -0.170435D-01
     43  0.154738D-03  0.360718D-01  0.389921D-01 -0.554017D-01 -0.182710D-02
     44  0.309275D-01  0.327091D-01  0.503201D-01  0.685486D-01 -0.125424D+00
     45  0.202912D-01  0.315969D-01  0.136498D-01  0.110594D+00  0.137260D-01
     46 -0.908268D-02 -0.331576D-02 -0.334675D-02  0.140723D-01  0.679567D-02
     47  0.466842D-02  0.899610D-02  0.190692D-01 -0.424299D-02  0.143250D-01
     48  0.743686D-02  0.207241D-01  0.182698D-01 -0.861329D-02 -0.168070D-01
               21            22            23            24            25
     21  0.414420D+01
     22  0.481267D-01  0.143924D+02
     23 -0.762354D-01  0.177154D+01  0.113775D+02
     24 -0.133284D-01 -0.846281D-01 -0.186266D+00  0.158671D+02
     25  0.475342D-02 -0.268424D+01 -0.325543D+00 -0.135001D+01  0.242370D+01
     26 -0.339678D-02 -0.414373D+00 -0.390464D+01  0.434669D+00  0.521061D+00
     27 -0.573185D-02 -0.130298D+01  0.328960D+00 -0.264742D+01  0.139451D+01
     28  0.572326D-03 -0.367236D+01 -0.303395D+00  0.108603D+01  0.989334D-01
     29  0.145466D-02 -0.366548D+00 -0.398523D+01 -0.802452D+00 -0.987733D-02
     30  0.250789D-02  0.988024D+00 -0.603010D+00 -0.206020D+01  0.253992D-01
     31 -0.138424D-02 -0.271132D+01  0.126310D+01  0.351114D+00 -0.442344D-01
     32 -0.105758D-01  0.154977D+01 -0.306604D+01  0.350911D+00 -0.341479D-01
     33 -0.376023D-02  0.391271D+00  0.319879D+00 -0.415596D+01  0.592696D-01
     34 -0.475202D-01 -0.736420D-01  0.367376D-01  0.687804D-02 -0.109354D-01
     35  0.243358D-01  0.121509D+00  0.164487D+00  0.140108D+00 -0.294737D-01
     36 -0.337036D-01  0.284300D-01  0.890435D-01 -0.484004D-01 -0.168290D-01
     37  0.125000D-01 -0.372163D-03  0.956470D-01  0.698412D-03 -0.142805D-01
     38  0.290442D-03  0.655409D-01  0.855008D-01 -0.488557D-02 -0.150352D-02
     39 -0.298690D-02 -0.942388D-02 -0.189134D-01 -0.500073D-01  0.240096D-02
     40  0.212384D-01 -0.168908D-01 -0.558802D-02  0.621505D-02 -0.161000D-02
     41 -0.928468D-02 -0.607761D-02 -0.413652D-01  0.570696D-03  0.392488D-03
     42  0.231768D-01  0.985758D-02  0.204304D-01  0.330557D-01 -0.679755D-02
     43  0.141988D+00 -0.171001D+00 -0.510879D-01 -0.739251D-02 -0.101402D-01
     44  0.119453D+00 -0.805708D-01  0.374205D+00  0.136345D+00 -0.281335D-01
     45  0.634849D-01 -0.169845D-01  0.122806D+00 -0.143646D+00 -0.101935D-01
     46 -0.222688D-01 -0.137389D-02 -0.297135D-01 -0.125932D-01  0.593093D-02
     47 -0.205937D-01 -0.776120D-02  0.104975D-01  0.721536D-02 -0.165099D-02
     48 -0.340409D-01 -0.448619D-02  0.131904D-01 -0.434842D-02 -0.321635D-02
               26            27            28            29            30
     26  0.366577D+01
     27 -0.548906D+00  0.255833D+01
     28 -0.824124D-02  0.504759D-01  0.350977D+01
     29  0.953555D-01  0.194991D-01  0.450097D+00  0.366519D+01
     30  0.270384D-02 -0.111484D+00 -0.115508D+01  0.838196D+00  0.203694D+01
     31 -0.390236D-01  0.212586D-01  0.378221D-03 -0.190902D-01 -0.386731D-01
     32  0.587028D-01  0.141090D-01 -0.149724D-01  0.651159D-01 -0.165737D-01
     33  0.278387D-01  0.547469D-01 -0.794161D-01 -0.336801D-01  0.139959D-01
     34 -0.173915D-01 -0.199527D-01 -0.274359D-01  0.415512D-04  0.101785D-01
     35  0.178832D-01  0.514013D-01 -0.103787D-01  0.331209D-01 -0.444844D-01
     36  0.293922D-01  0.989593D-02  0.273917D-02 -0.493241D-02 -0.248425D-01
     37  0.138193D-01  0.112550D-01 -0.292103D-02  0.367542D-02 -0.872674D-02
     38  0.248608D-01  0.180339D-01 -0.342845D-02 -0.386381D-02 -0.483440D-02
     39  0.722729D-02 -0.788359D-02  0.192023D-02 -0.246427D-02  0.537011D-02
     40  0.868090D-03  0.166377D-02 -0.344285D-01  0.144029D-01  0.504308D-03
     41 -0.285248D-02 -0.202332D-02 -0.737772D-03  0.578412D-01  0.207025D-01
     42  0.309264D-02  0.921397D-02 -0.465369D-02  0.520068D-01 -0.318978D-01
     43 -0.710895D-02 -0.398000D-02 -0.160452D-01 -0.917001D-02  0.103678D-02
     44  0.207396D-01  0.328687D-01 -0.275561D-01  0.455586D-01 -0.371125D-01
     45  0.132001D-01  0.126715D-03  0.258815D-02 -0.615109D-02 -0.146912D-01
     46 -0.466019D-02 -0.751630D-02  0.435158D-02 -0.670988D-02  0.738294D-02
     47  0.127995D-02  0.141326D-02 -0.133517D-02  0.937161D-03 -0.114523D-02
     48  0.253598D-02  0.208255D-02 -0.171468D-02  0.192349D-02 -0.342218D-02
               31            32            33            34            35
     31  0.274619D+01
     32 -0.138924D+01  0.256325D+01
     33 -0.359765D+00 -0.445123D+00  0.417054D+01
     34 -0.175418D-01  0.533703D-01  0.130548D-01  0.167600D+02
     35  0.676553D-01  0.115439D+00  0.395509D-01  0.160587D+01  0.126977D+02
     36  0.154835D-01  0.401768D-01 -0.256377D-01 -0.832452D+00 -0.228780D+01
     37  0.661017D-02  0.637515D-02  0.146131D-02 -0.201179D+01  0.452031D+00
     38  0.239046D-02  0.598535D-03  0.466151D-03  0.438282D+00 -0.436177D+01
     39 -0.330804D-02 -0.341593D-02 -0.157635D-02 -0.118514D+01 -0.224971D+00
     40  0.214920D-02  0.510252D-02  0.283179D-02 -0.424938D+01 -0.488178D+00
     41  0.120797D-02 -0.182547D-03  0.149620D-02 -0.384748D+00 -0.407107D+01
     42  0.956311D-02  0.109376D-01  0.367856D-02  0.837736D+00 -0.121894D+01
     43 -0.321120D-02  0.118762D-01  0.411470D-02 -0.595290D+01 -0.408175D+01
     44  0.269457D-01  0.368529D-01  0.144575D-01 -0.437468D+01 -0.123606D+01
     45  0.586532D-02  0.961015D-02 -0.809721D-02 -0.647123D+00  0.928218D+00
     46 -0.632562D-02 -0.862231D-02 -0.274307D-02  0.363438D-01 -0.676078D-01
     47  0.693539D-03  0.129424D-02  0.763605D-03  0.103427D+00  0.194672D+00
     48  0.210741D-02  0.359745D-02  0.154519D-03  0.577986D-01  0.481275D-02
               36            37            38            39            40
     36  0.196479D+02
     37 -0.131049D+01  0.136124D+01
     38 -0.239046D+00 -0.611137D+00  0.438740D+01
     39 -0.380479D+01  0.136453D+01  0.124121D+00  0.377587D+01
     40  0.975784D+00  0.132638D+00 -0.593485D-01  0.132461D+00  0.396728D+01
     41 -0.110408D+01 -0.687881D-01  0.115900D+00  0.142333D+00  0.397850D+00
     42 -0.209507D+01  0.164385D+00  0.157431D+00 -0.148890D+00 -0.118094D+01
     43 -0.586206D+00  0.664896D-01  0.250125D+00 -0.126377D+00  0.218425D-01
     44  0.924822D+00  0.192024D+00 -0.197352D+00 -0.509231D-03  0.118081D+00
     45 -0.847235D+01 -0.129379D+00 -0.500764D-01  0.156214D+00  0.108063D+00
     46  0.210214D-01  0.168693D+00 -0.445739D-01 -0.827120D-01 -0.311058D-01
     47 -0.344378D-01 -0.575288D-01 -0.354152D-01  0.198397D-01  0.568793D-01
     48  0.134154D+00 -0.814671D-01  0.154314D-01 -0.131102D-01 -0.166421D-01
               41            42            43            44            45
     41  0.392744D+01
     42  0.120947D+01  0.179253D+01
     43  0.107131D+00  0.976849D-01  0.787949D+01
     44 -0.957822D-01 -0.194086D+00  0.163540D+01  0.757715D+01
     45 -0.163251D+00  0.355195D+00  0.164309D+01 -0.161359D+01  0.151778D+02
     46  0.382256D-01 -0.576393D-02 -0.179975D+01  0.108583D+01 -0.149038D+01
     47 -0.141565D-01  0.190958D-01  0.631633D+00 -0.684043D+01 -0.208019D+00
     48  0.122502D-01  0.203030D-01 -0.172937D+01 -0.366477D+00 -0.660973D+01
               46            47            48
     46  0.181313D+01
     47 -0.110781D+01  0.665663D+01
     48  0.158793D+01  0.974475D-01  0.670349D+01
 ReadGW:  IGet=0 IStart=         114 Next=        7248 LGW=        7134.
 ICntrl=12127.
 Symmetry not used in FoFDir.
 MinBra= 0 MaxBra= 2 Meth= 1.
 IRaf=       0 NMat=   1 IRICut=       1 DoRegI=T DoRafI=F ISym2E= 0 JSym2E=0.
 PrsmSu:  NPrtUS=   8 ThrOK=T
 PRISM was handed    16288672 working-precision words and  2428 shell-pairs
 PRISM was handed    16288672 working-precision words and  2428 shell-pairs
 PRISM was handed    16288672 working-precision words and  2428 shell-pairs
 PRISM was handed    16288672 working-precision words and  2428 shell-pairs
 PRISM was handed    16288672 working-precision words and  2428 shell-pairs
 PRISM was handed    16288672 working-precision words and  2428 shell-pairs
 PRISM was handed    16288672 working-precision words and  2428 shell-pairs
 PRISM was handed    16288672 working-precision words and  2428 shell-pairs
 Pruned (  75, 302) grid will be used in CalDFT.
 CkSvGd:  ISavGI=        -1 IRadAn=       4 IRASav=       4 ISavGd=        -1.
 CalDSu:  NPrtUS=   8 ThrOK=T
 IPart= 0 IRanGd=          0 ScrnBf=T ScrnGd=T RCrit=4.00D+00 DoMicB=T.
 IPart= 1 IRanGd=          0 ScrnBf=T ScrnGd=T RCrit=4.00D+00 DoMicB=T.
 IPart= 2 IRanGd=          0 ScrnBf=T ScrnGd=T RCrit=4.00D+00 DoMicB=T.
 CutRad = 1000.00    CtRdIn =    0.00    XCrit =  15.00   ICut = 0
 CutRad = 1000.00    CtRdIn =    0.00    XCrit =  15.00   ICut = 0
 IPart= 5 IRanGd=          0 ScrnBf=T ScrnGd=T RCrit=4.00D+00 DoMicB=T.
 IPart= 6 IRanGd=          0 ScrnBf=T ScrnGd=T RCrit=4.00D+00 DoMicB=T.
 IPart= 3 IRanGd=          0 ScrnBf=T ScrnGd=T RCrit=4.00D+00 DoMicB=T.
 CutRad = 1000.00    CtRdIn =    0.00    XCrit =  15.00   ICut = 0
 CutRad = 1000.00    CtRdIn =    0.00    XCrit =  15.00   ICut = 0
 IPart= 4 IRanGd=          0 ScrnBf=T ScrnGd=T RCrit=4.00D+00 DoMicB=T.
 CutRad = 1000.00    CtRdIn =    0.00    XCrit =  15.00   ICut = 0
 IPart= 7 IRanGd=          0 ScrnBf=T ScrnGd=T RCrit=4.00D+00 DoMicB=T.
 CutRad = 1000.00    CtRdIn =    0.00    XCrit =  15.00   ICut = 0
 CutRad = 1000.00    CtRdIn =    0.00    XCrit =  15.00   ICut = 0
 CutRad = 1000.00    CtRdIn =    0.00    XCrit =  15.00   ICut = 0
 IPart= 1        15260 of        17410 points in      36 batches and      114 microbatches, Max-NSigAt=      16 Max-NSgAt2=      16
 IPart= 2        13784 of        15374 points in      31 batches and       94 microbatches, Max-NSigAt=      16 Max-NSgAt2=      16
 IPart= 5        13600 of        15460 points in      32 batches and       90 microbatches, Max-NSigAt=      16 Max-NSgAt2=      16
 IPart= 7        14310 of        16088 points in      32 batches and       99 microbatches, Max-NSigAt=      16 Max-NSgAt2=      16
 IPart= 6        13851 of        16108 points in      35 batches and      114 microbatches, Max-NSigAt=      16 Max-NSgAt2=      16
 IPart= 4        13789 of        16062 points in      34 batches and      108 microbatches, Max-NSigAt=      16 Max-NSgAt2=      16
 IPart= 3        14727 of        16908 points in      35 batches and       89 microbatches, Max-NSigAt=      16 Max-NSgAt2=      16
 IPart= 0        13362 of        14672 points in      29 batches and       85 microbatches, Max-NSigAt=      16 Max-NSgAt2=      16
 Polarizability after L703:
                1             2             3
      1  0.107152D+03
      2 -0.103138D+02  0.592801D+02
      3 -0.183025D+00  0.243995D+01  0.502051D+02
 Dipole Derivatives after L703:
               1            2            3            4            5
      1-0.153403D+01 0.261304D+00-0.102808D+00 0.332916D+00 0.709537D-01
      2 0.276762D+00-0.273513D+00-0.902799D-01-0.337853D-01 0.142105D+00
      3 0.674304D-01-0.130651D+00-0.331807D+00 0.765652D-02 0.941856D-01
               6            7            8            9           10
      1-0.546604D-01 0.130987D+01-0.466268D+00 0.552227D-01 0.100163D+00
      2 0.113604D+00-0.388186D+00-0.318525D+00-0.127461D-01 0.679145D-01
      3 0.257620D+00 0.481712D-02 0.256689D-01-0.544726D+00-0.522775D-01
              11           12           13           14           15
      1 0.652517D-01-0.202484D-01-0.187549D+00 0.180313D-01 0.238217D+00
      2 0.294476D+00 0.719474D-02 0.294357D-01 0.334511D+00 0.357820D-01
      3-0.331646D-01 0.580659D+00 0.713739D-01 0.916227D-01-0.423439D-01
              16           17           18           19           20
      1 0.335303D-01-0.563500D-01-0.280318D-01 0.674750D-01 0.196233D-01
      2-0.481903D-01-0.494542D-01-0.720774D-01 0.195654D-01-0.916542D-01
      3-0.579214D-01-0.129669D+00-0.862310D-01 0.389240D-02 0.101062D+00
              21           22           23           24           25
      1 0.190602D-01-0.254258D-01-0.783431D-03 0.828641D-01-0.409303D-01
      2 0.317065D-01 0.412515D-01-0.129014D+00-0.110060D+00 0.477049D-01
      3 0.142265D-01-0.296514D-01-0.476227D-01 0.805296D-01 0.951074D-01
              26           27           28           29           30
      1 0.105156D+00 0.823655D-01 0.461980D-01 0.535644D-01-0.116653D+00
      2 0.204250D-01-0.610642D-02 0.234834D-01 0.337149D-01 0.747429D-01
      3-0.235950D-02-0.101633D-01-0.688969D-01 0.261333D-02-0.775529D-01
              31           32           33           34           35
      1-0.172125D-01 0.302843D-02-0.565618D-01 0.187265D+00-0.977154D-02
      2-0.942551D-01-0.127896D-01 0.464650D-02-0.213163D+00 0.559437D+00
      3-0.291059D-01-0.278958D-01 0.801438D-01-0.501524D-01 0.367107D-02
              36           37           38           39           40
      1 0.335742D-01-0.902686D-01-0.129191D+00 0.464899D-01 0.278589D-02
      2-0.273377D-02 0.770457D-03 0.254824D-01 0.904149D-02 0.425931D-01
      3 0.342669D+00 0.718451D-01-0.567707D-02 0.155559D-01-0.381397D-01
              41           42           43           44           45
      1 0.472056D-01-0.130465D+00-0.390194D+00 0.340389D-01-0.843375D-01
      2-0.629972D-01 0.827237D-01 0.198066D+00-0.774294D+00-0.163036D+00
      3 0.821242D-01-0.128080D+00-0.474669D-01-0.131128D+00-0.480106D+00
              46           47           48
      1 0.205409D+00-0.157930D-01 0.359731D-01
      2 0.300329D-01 0.302090D+00 0.975989D-01
      3 0.514893D-01 0.107220D+00 0.329607D+00
 Hessian after L703:
                1             2             3             4             5
      1  0.696219D-01
      2  0.142324D+00  0.321002D+00
      3 -0.101840D+00 -0.221098D+00  0.163395D+00
      4 -0.777062D-01 -0.121107D+00  0.823117D-01  0.942194D-01
      5 -0.142054D+00 -0.312592D+00  0.215677D+00  0.131381D+00  0.308839D+00
      6  0.986390D-01  0.213002D+00 -0.147627D+00 -0.923950D-01 -0.211468D+00
      7  0.930887D-01 -0.389079D-01  0.135411D-01 -0.104853D-01  0.741309D-02
      8 -0.178803D-01 -0.820341D-02  0.855544D-02 -0.120061D-01  0.420655D-02
      9 -0.346765D-02  0.120942D-01 -0.276079D-01  0.108026D-01 -0.362164D-02
     10 -0.208184D-01 -0.717701D-03  0.116494D-01 -0.527122D-02  0.285999D-02
     11  0.114472D-01 -0.202580D-03 -0.432523D-02  0.151336D-02 -0.499087D-03
     12 -0.138152D-01  0.498311D-03  0.646561D-02 -0.893584D-03  0.582467D-03
     13 -0.588183D-01  0.165994D-01 -0.440178D-02 -0.154269D-02  0.108671D-03
     14  0.557139D-02  0.322176D-03  0.726844D-03  0.303429D-03  0.392829D-03
     15  0.217420D-01 -0.485111D-02  0.325251D-02  0.106143D-02 -0.103561D-02
     16  0.255761D-02 -0.149922D-03 -0.881928D-03  0.400429D-03 -0.973300D-04
     17  0.360597D-03 -0.621571D-03  0.563474D-03 -0.245689D-03 -0.330310D-04
     18 -0.289286D-02  0.211763D-02  0.128222D-02 -0.850519D-04 -0.342038D-03
     19  0.195557D-02 -0.501573D-03 -0.869493D-03  0.349046D-03  0.258970D-04
     20 -0.904195D-03  0.159861D-03 -0.332346D-03  0.257629D-03  0.214134D-04
     21 -0.395518D-02 -0.104431D-03  0.266897D-03 -0.704956D-03 -0.156486D-03
     22 -0.285002D-02  0.162053D-03  0.661813D-04 -0.488820D-04  0.127739D-03
     23 -0.350017D-02  0.817793D-03 -0.203430D-03 -0.118893D-03  0.879153D-04
     24  0.738032D-02 -0.226148D-02  0.134205D-02 -0.398666D-03  0.832027D-04
     25 -0.205149D-02  0.409096D-03 -0.243168D-03  0.616224D-04  0.000000D+00
     26  0.528722D-02 -0.123070D-02  0.599130D-03 -0.504196D-04 -0.119188D-03
     27 -0.622981D-03  0.283854D-03 -0.196867D-03  0.522883D-04  0.632984D-05
     28  0.302231D-04 -0.599473D-04  0.156471D-03 -0.570790D-04 -0.228886D-04
     29  0.270307D-03  0.615484D-04 -0.933246D-04  0.186515D-04 -0.102335D-03
     30 -0.847950D-03  0.250855D-03 -0.114807D-03  0.760067D-04  0.542438D-04
     31  0.471119D-03 -0.215285D-03 -0.338408D-04 -0.419617D-04  0.186119D-04
     32  0.261343D-02 -0.572101D-03  0.359870D-03  0.100884D-03 -0.153795D-03
     33 -0.632229D-03  0.293245D-03 -0.206898D-03  0.132287D-03 -0.153866D-04
     34 -0.637963D-02  0.242284D-02  0.166037D-04  0.218389D-03  0.240896D-03
     35  0.858017D-02 -0.263407D-02  0.133721D-03 -0.796748D-04 -0.237332D-03
     36  0.731284D-02 -0.237960D-02  0.678211D-03 -0.126151D-03 -0.119280D-04
     37 -0.138272D-02  0.458351D-03 -0.123085D-03  0.592791D-04  0.768958D-05
     38 -0.418323D-02  0.121414D-02 -0.279961D-03  0.951726D-04  0.122721D-03
     39 -0.278548D-02  0.868594D-03 -0.299550D-03  0.429174D-04  0.444178D-04
     40 -0.364893D-03  0.113100D-03  0.136237D-03 -0.244961D-04 -0.130025D-05
     41 -0.870223D-04  0.540892D-05  0.110671D-03 -0.134668D-04  0.550129D-04
     42 -0.137030D-02  0.365875D-03 -0.105475D-03  0.486984D-04  0.703136D-04
     43  0.722216D-02 -0.224882D-02  0.709641D-03  0.568941D-04 -0.827547D-04
     44 -0.500273D-02  0.159789D-02 -0.842829D-04  0.256816D-03  0.248222D-03
     45 -0.184276D-02  0.714842D-03  0.227421D-03  0.119199D-03 -0.896611D-04
     46 -0.457566D-02  0.141926D-02 -0.193558D-03 -0.187235D-03  0.749010D-04
     47 -0.284297D-02  0.876305D-03 -0.310066D-03 -0.305067D-03 -0.237029D-03
     48 -0.100107D-02  0.205000D-03 -0.751025D-03 -0.436504D-04  0.223141D-03
                6             7             8             9            10
      6  0.146276D+00
      7 -0.625714D-02 -0.850406D-01
      8 -0.162046D-02  0.736072D-01  0.638325D-01
      9  0.210811D-02 -0.963671D-01 -0.392970D-01  0.298679D+00
     10 -0.333346D-04 -0.570430D-01 -0.100681D-01  0.325135D-01  0.388601D+00
     11  0.107740D-02 -0.338533D-01 -0.640574D-01  0.286741D-01  0.221086D-01
     12 -0.959240D-03  0.108402D+00  0.114011D-01 -0.214599D+00  0.120067D+00
     13  0.109397D-03  0.537102D-01 -0.225180D-01  0.281752D-01 -0.159844D+00
     14 -0.609430D-03 -0.292412D-02 -0.633029D-02 -0.388856D-02  0.389740D-01
     15  0.116246D-03 -0.282316D-01  0.763964D-02 -0.669066D-02 -0.920897D-01
     16  0.388747D-03  0.555073D-02  0.139199D-01  0.214171D-01 -0.785062D-01
     17 -0.195637D-04  0.321856D-02  0.969374D-02 -0.473179D-03 -0.604494D-01
     18 -0.159889D-03  0.295534D-02 -0.164877D-01 -0.350712D-01 -0.584955D-01
     19 -0.551298D-04 -0.100332D-02 -0.199025D-01  0.177330D-01 -0.484213D-01
     20 -0.372166D-03 -0.207656D-02  0.502603D-02  0.736566D-02  0.384343D-02
     21  0.103299D-03  0.127117D-01  0.288112D-01 -0.247401D-01 -0.524755D-02
     22  0.445971D-04  0.165225D-02  0.473922D-02 -0.302055D-02 -0.707592D-02
     23  0.163148D-04  0.597817D-02 -0.160091D-02  0.643448D-03  0.483276D-02
     24  0.385184D-04 -0.101391D-01 -0.315544D-02  0.215611D-02 -0.168549D-02
     25 -0.218192D-04  0.366418D-02  0.448213D-03 -0.712555D-03 -0.259307D-03
     26  0.698628D-04 -0.777664D-02  0.644230D-03  0.554074D-03  0.178195D-03
     27 -0.612593D-05  0.521476D-03  0.938000D-04 -0.689362D-04  0.427091D-04
     28 -0.453724D-04  0.627205D-03 -0.395744D-03  0.199093D-03  0.890571D-03
     29  0.346514D-04 -0.115032D-03  0.505155D-03 -0.887705D-03 -0.184968D-02
     30 -0.516259D-04  0.706554D-03 -0.167925D-03  0.668111D-03  0.173269D-02
     31  0.439506D-04 -0.306670D-03  0.142757D-03  0.180793D-03  0.553564D-03
     32 -0.103000D-04 -0.359319D-02  0.250535D-02 -0.235639D-03 -0.171452D-02
     33 -0.310014D-05  0.886048D-03  0.753891D-04 -0.256826D-03  0.143662D-03
     34 -0.357661D-03  0.814126D-03 -0.164822D-02 -0.407617D-02 -0.119524D-01
     35  0.284646D-03 -0.154023D-01 -0.251588D-02 -0.373785D-02 -0.587171D-03
     36  0.246462D-03 -0.860634D-02  0.477335D-02  0.316718D-02 -0.108899D-01
     37 -0.138535D-04  0.245941D-02 -0.130674D-02 -0.101261D-02 -0.438743D-03
     38 -0.162767D-03  0.509453D-02 -0.142982D-02 -0.918794D-03 -0.763545D-03
     39 -0.107728D-03  0.348319D-02 -0.123285D-02 -0.513638D-03 -0.907462D-04
     40 -0.405379D-04  0.142137D-02 -0.431015D-03  0.683299D-03  0.290391D-03
     41 -0.413211D-04  0.167623D-03  0.809232D-03  0.106428D-02 -0.461511D-03
     42 -0.691945D-04  0.191417D-02 -0.752905D-03  0.142544D-02  0.178375D-02
     43  0.730201D-04 -0.127156D-01 -0.710364D-02 -0.516896D-02 -0.334217D-02
     44 -0.405419D-03  0.456196D-02 -0.455967D-02 -0.130862D-02  0.168975D-02
     45 -0.237193D-03  0.241033D-02 -0.139497D-02  0.216233D-02  0.406374D-03
     46 -0.788394D-04  0.360634D-02  0.403011D-03  0.212104D-02  0.263768D-02
     47  0.225224D-03  0.460788D-02  0.147455D-02  0.397329D-02  0.212482D-02
     48  0.332594D-03  0.206941D-02  0.275929D-02 -0.817756D-03  0.193373D-03
               11            12            13            14            15
     11  0.621047D+00
     12  0.126821D-02  0.539412D+00
     13  0.434219D-01 -0.126745D+00  0.395652D+00
     14 -0.976050D-01  0.233308D-01 -0.576890D-01  0.524683D+00
     15  0.125641D-01 -0.907890D-01  0.192335D+00  0.405873D-01  0.281152D+00
     16 -0.580044D-01 -0.619237D-01 -0.105588D-01 -0.214943D-01 -0.177331D-01
     17 -0.172191D+00 -0.109434D+00  0.445854D-02  0.540540D-02  0.664020D-02
     18 -0.108327D+00 -0.153576D+00 -0.480510D-02 -0.557306D-02 -0.480759D-02
     19  0.568662D-02 -0.903891D-02 -0.160002D-02  0.288854D-01 -0.665811D-02
     20 -0.284394D+00  0.747235D-01  0.242177D-02 -0.556843D-02  0.226859D-02
     21  0.699445D-01 -0.722660D-01 -0.229290D-02  0.771458D-02 -0.158329D-02
     22  0.204357D-01  0.452135D-03 -0.878198D-01  0.322088D-01 -0.143597D-01
     23 -0.629432D-02  0.150044D-03  0.412840D-01 -0.213068D+00 -0.177640D-02
     24  0.197961D-01  0.151501D-02 -0.180700D-01  0.630074D-02 -0.702192D-01
     25  0.713003D-03  0.229823D-03 -0.854899D-02  0.664929D-02  0.516821D-02
     26 -0.397152D-03 -0.571108D-03  0.238279D-01 -0.829765D-02 -0.212204D-01
     27 -0.964299D-04 -0.261967D-03 -0.751532D-03 -0.493569D-02  0.216228D-02
     28  0.310442D-02 -0.187890D-02 -0.736580D-02  0.575114D-02 -0.842488D-02
     29 -0.495435D-02 -0.278556D-03  0.167972D-01 -0.770879D-02  0.282877D-01
     30 -0.474537D-03  0.107608D-03 -0.610238D-03  0.115083D-02  0.199675D-02
     31  0.753682D-03 -0.293037D-03  0.920657D-02  0.800935D-02  0.286523D-02
     32  0.661446D-03 -0.137896D-02 -0.223467D-01 -0.233388D-01 -0.867818D-02
     33  0.106024D-02  0.925538D-03  0.116335D-02 -0.305763D-02 -0.186802D-02
     34 -0.160543D-01 -0.949673D-02 -0.105485D+00 -0.258652D-01 -0.393506D-01
     35  0.147116D-01  0.258169D-02 -0.365798D-01 -0.130849D+00 -0.407000D-01
     36 -0.161770D-01 -0.815321D-02 -0.503279D-01 -0.424134D-01 -0.106371D+00
     37 -0.486381D-03  0.798209D-04 -0.174870D-01 -0.102843D-01  0.262796D-02
     38 -0.470729D-03  0.976436D-03 -0.183110D-01 -0.393844D-02  0.762150D-02
     39 -0.244823D-04 -0.256185D-03 -0.156824D-01 -0.365084D-02  0.919311D-02
     40 -0.251953D-02 -0.253679D-02 -0.964914D-02  0.862188D-03 -0.210028D-01
     41 -0.356796D-02 -0.182940D-02 -0.834902D-02  0.741258D-02 -0.192583D-01
     42 -0.241945D-02 -0.172977D-02 -0.876428D-02  0.439942D-02 -0.164002D-01
     43  0.252934D-02  0.336550D-04  0.787035D-02 -0.755668D-02  0.945960D-03
     44 -0.147508D-02  0.303273D-02  0.153377D-01 -0.414679D-01 -0.732601D-02
     45  0.133166D-02 -0.378344D-02  0.853504D-02 -0.214244D-01  0.275927D-04
     46 -0.795979D-03 -0.264266D-02  0.228090D-02 -0.140141D-02  0.110465D-02
     47 -0.311653D-03 -0.505332D-02  0.153633D-02 -0.433525D-04 -0.763117D-03
     48 -0.387193D-02 -0.205146D-02  0.213269D-02  0.134254D-02  0.828931D-03
               16            17            18            19            20
     16  0.791697D-01
     17  0.623369D-01  0.173840D+00
     18  0.608505D-01  0.120880D+00  0.182386D+00
     19  0.257281D-02 -0.109513D-01  0.202404D-02  0.491422D-01
     20  0.127232D-02 -0.164860D-01  0.536601D-02 -0.373841D-02  0.302004D+00
     21 -0.122612D-03 -0.189987D-01  0.911664D-02 -0.276109D-03 -0.878905D-01
     22  0.928477D-03  0.233644D-03 -0.174259D-03 -0.247554D-02 -0.721697D-04
     23 -0.110339D-02  0.609535D-03 -0.690922D-03 -0.321243D-03  0.261820D-03
     24  0.143603D-02  0.660357D-03  0.934762D-03 -0.378827D-02  0.184944D-02
     25 -0.307500D-03 -0.286675D-04 -0.185971D-03 -0.142330D-03 -0.338614D-04
     26  0.145402D-03  0.179501D-03  0.431561D-03  0.130733D-03  0.496910D-04
     27 -0.286831D-04 -0.104806D-03 -0.174137D-03 -0.310765D-04 -0.703375D-04
     28  0.372931D-03 -0.239644D-04  0.356746D-03 -0.869155D-03  0.254674D-03
     29 -0.934687D-04  0.929261D-04  0.160520D-03  0.144848D-02 -0.303268D-03
     30  0.168518D-03 -0.876409D-04  0.446008D-04 -0.172113D-03 -0.934188D-04
     31  0.257717D-03  0.765717D-04 -0.182293D-04  0.991593D-04 -0.100730D-03
     32  0.724499D-03  0.189815D-03  0.874192D-03 -0.229737D-03  0.336193D-03
     33 -0.117291D-03  0.742216D-04 -0.286646D-03 -0.825251D-04 -0.142999D-03
     34 -0.170289D-02  0.222337D-02 -0.961292D-04  0.146266D-04  0.409504D-03
     35  0.365181D-02 -0.169033D-02  0.164280D-02  0.756550D-03 -0.127379D-02
     36 -0.296802D-02  0.551374D-03 -0.108327D-03  0.113892D-02 -0.601391D-03
     37 -0.113155D-03  0.136243D-04 -0.140232D-03 -0.206718D-03  0.222698D-03
     38  0.000000D+00  0.761886D-04 -0.194506D-03 -0.148758D-03  0.769968D-04
     39 -0.627210D-04  0.170842D-03 -0.143138D-03 -0.182737D-03  0.206087D-03
     40 -0.836583D-03  0.226469D-03 -0.193730D-03  0.197630D-03  0.128603D-03
     41 -0.999391D-03  0.397245D-03 -0.222825D-03  0.570899D-04 -0.209100D-04
     42 -0.852436D-03  0.191423D-03 -0.126909D-03  0.164745D-03  0.163360D-05
     43  0.759766D-03 -0.157101D-02  0.334750D-03  0.126544D-03 -0.176265D-02
     44  0.320700D-03  0.388924D-03 -0.451608D-03 -0.815753D-03  0.342834D-03
     45  0.293674D-03 -0.134693D-02  0.924251D-03  0.436489D-03 -0.226616D-02
[...]
    Y8       -1.85135   0.00000   0.00000   0.00003   0.00003  -1.85131
    Z8       -1.25723  -0.00001   0.00000  -0.00003  -0.00004  -1.25727
    X9        9.31094   0.00000   0.00000  -0.00118  -0.00103   9.30991
    Y9       -2.17173   0.00000   0.00000  -0.00035  -0.00032  -2.17205
    Z9       -2.72905   0.00000   0.00000  -0.00094  -0.00090  -2.72995
   X10        8.73703   0.00000   0.00000   0.00089   0.00092   8.73795
   Y10       -2.35809   0.00000   0.00000   0.00014   0.00016  -2.35793
   Z10        0.55236  -0.00001   0.00000  -0.00050  -0.00048   0.55188
   X11        6.31288   0.00000   0.00000  -0.00057  -0.00044   6.31243
   Y11       -3.14078   0.00000   0.00000   0.00019   0.00016  -3.14062
   Z11       -1.63634  -0.00001   0.00000   0.00110   0.00105  -1.63529
   X12        8.42710   0.00000   0.00000   0.00005  -0.00002   8.42708
   Y12        2.78881   0.00000   0.00000   0.00000   0.00001   2.78883
   Z12        0.18086   0.00000   0.00000   0.00020   0.00021   0.18108
   X13       10.20399   0.00000   0.00000   0.00025   0.00021  10.20420
   Y13        3.23410   0.00000   0.00000  -0.00027  -0.00021   3.23389
   Z13       -0.80469   0.00000   0.00000   0.00045   0.00053  -0.80417
   X14        8.97618   0.00000   0.00000  -0.00031  -0.00042   8.97576
   Y14        1.97339  -0.00001   0.00000   0.00001   0.00004   1.97343
   Z14        2.01808   0.00000   0.00000   0.00032   0.00035   2.01843
   X15        7.11411   0.00000   0.00000   0.00026   0.00013   7.11424
   Y15        5.08619   0.00000   0.00000   0.00017   0.00015   5.08634
   Z15        0.46891   0.00000   0.00000  -0.00013  -0.00016   0.46875
   X16        5.41775   0.00000   0.00000   0.00026   0.00012   5.41788
   Y16        4.63957   0.00000   0.00000   0.00040   0.00034   4.63992
   Z16        0.99382   0.00000   0.00000   0.00006  -0.00003   0.99379
         Item               Value     Threshold  Converged?
 Maximum Force            0.000007     0.000450     YES
 RMS     Force            0.000003     0.000300     YES
 Maximum Displacement     0.001047     0.001800     YES
 RMS     Displacement     0.000409     0.001200     YES
 Predicted change in Energy=-4.195327D-09
 Optimization completed.
    -- Stationary point found.
 GradGradGradGradGradGradGradGradGradGradGradGradGradGradGradGradGradGrad


 Test job not archived.
 1\1\GINC-NODE62\Freq\UB3LYP\CBSB7\C4H9O3(2)\SHAMEL\18-Jun-2013\0\\# fr
 eq nosymm b3lyp/cbsb7 iop(7/33=1)\\Title Card Required\\0,2\O,0.157965
 ,1.203566,-0.414676\H,-0.19379,0.461422,0.096922\O,1.820421,0.707221,-
 0.17127\C,2.485092,0.834394,-1.406823\C,3.714755,0.437189,-0.690143\H,
 2.133296,0.123655,-2.160246\H,2.477615,1.857529,-1.789741\C,4.168592,-
 0.97969,-0.665298\H,4.927138,-1.14923,-1.444151\H,4.623437,-1.247849,0
 .292295\H,3.34063,-1.662027,-0.865914\C,4.45943,1.475777,0.095708\H,5.
 39972,1.711413,-0.425825\H,4.749988,1.044275,1.067921\O,3.764627,2.691
 494,0.248135\H,2.86695,2.455156,0.525907\\Version=AM64L-G03RevD.01\HF=
 -383.4487011\S2=0.799813\S2-1=0.\S2A=0.750268\RMSD=6.715e-09\RMSF=3.36
 1e-06\ZeroPoint=0.1281832\Thermal=0.1374252\Dipole=0.8281289,-1.300165
 5,-0.1741208\DipoleDeriv=-1.5340332,0.2767623,0.0674304,0.2613042,-0.2
 735132,-0.1306508,-0.1028084,-0.0902799,-0.3318073,0.3329157,-0.033785
 3,0.0076565,0.0709537,0.1421046,0.0941856,-0.0546604,0.1136038,0.25761
 96,1.3098708,-0.3881865,0.0048171,-0.4662685,-0.3185247,0.0256689,0.05
 52227,-0.0127461,-0.544726,0.1001632,0.0679145,-0.0522775,0.0652517,0.
 2944764,-0.0331646,-0.0202484,0.0071947,0.5806593,-0.1875485,0.0294357
 ,0.0713739,0.0180313,0.3345113,0.0916227,0.238217,0.035782,-0.0423439,
 0.0335303,-0.0481903,-0.0579214,-0.05635,-0.0494542,-0.1296686,-0.0280
 318,-0.0720774,-0.086231,0.067475,0.0195654,0.0038924,0.0196233,-0.091
 6542,0.1010616,0.0190602,0.0317065,0.0142265,-0.0254258,0.0412515,-0.0
 296514,-0.0007834,-0.1290144,-0.0476227,0.0828641,-0.1100603,0.0805296
 ,-0.0409303,0.0477049,0.0951074,0.1051559,0.020425,-0.0023595,0.082365
 5,-0.0061064,-0.0101633,0.046198,0.0234834,-0.0688969,0.0535644,0.0337
 149,0.0026133,-0.1166532,0.0747429,-0.0775529,-0.0172125,-0.0942551,-0
 .0291059,0.0030284,-0.0127896,-0.0278958,-0.0565618,0.0046465,0.080143
 8,0.1872648,-0.2131627,-0.0501524,-0.0097715,0.5594372,0.0036711,0.033
 5742,-0.0027338,0.3426695,-0.0902686,0.0007705,0.0718451,-0.129191,0.0
 254824,-0.0056771,0.0464899,0.0090415,0.0155559,0.0027859,0.0425931,-0
 .0381397,0.0472056,-0.0629972,0.0821242,-0.1304651,0.0827237,-0.128080
 3,-0.390194,0.1980658,-0.0474669,0.0340389,-0.774294,-0.1311281,-0.084
 3375,-0.1630364,-0.4801064,0.2054092,0.0300329,0.0514893,-0.015793,0.3
 020898,0.1072197,0.0359731,0.0975989,0.3296068\Polar=107.1516794,-10.3
 138492,59.2800784,-0.1830254,2.4399469,50.2050547\PG=C01 [X(C4H9O3)]\N
 Imag=1\\0.06962192,0.14232421,0.32100151,-0.10184046,-0.22109752,0.163
 39504,-0.07770622,-0.12110722,0.08231165,0.09421943,-0.14205397,-0.312
 59222,0.21567701,0.13138060,0.30883935,0.09863898,0.21300172,-0.147627
 48,-0.09239500,-0.21146839,0.14627634,0.09308869,-0.03890789,0.0135410
 9,-0.01048530,0.00741309,-0.00625714,-0.08504063,-0.01788028,-0.008203
 41,0.00855544,-0.01200612,0.00420655,-0.00162046,0.07360720,0.06383250
 ,-0.00346765,0.01209422,-0.02760786,0.01080259,-0.00362164,0.00210811,
 -0.09636711,-0.03929705,0.29867903,-0.02081836,-0.00071770,0.01164943,
 -0.00527122,0.00285999,-0.00003333,-0.05704297,-0.01006805,0.03251348,
 0.38860077,0.01144724,-0.00020258,-0.00432523,0.00151336,-0.00049909,0
 .00107740,-0.03385326,-0.06405737,0.02867406,0.02210858,0.62104740,-0.
 01381525,0.00049831,0.00646561,-0.00089358,0.00058247,-0.00095924,0.10
 840193,0.01140111,-0.21459939,0.12006673,0.00126821,0.53941200,-0.0588
 1829,0.01659945,-0.00440178,-0.00154269,0.00010867,0.00010940,0.053710
 21,-0.02251796,0.02817515,-0.15984445,0.04342193,-0.12674451,0.3956520
 2,0.00557139,0.00032218,0.00072684,0.00030343,0.00039283,-0.00060943,-
 0.00292412,-0.00633029,-0.00388856,0.03897404,-0.09760501,0.02333078,-
 0.05768901,0.52468303,0.02174202,-0.00485111,0.00325251,0.00106143,-0.
 00103561,0.00011625,-0.02823162,0.00763964,-0.00669066,-0.09208971,0.0
 1256414,-0.09078898,0.19233495,0.04058732,0.28115164,0.00255761,-0.000
 14992,-0.00088193,0.00040043,-0.00009733,0.00038875,0.00555073,0.01391
 990,0.02141712,-0.07850618,-0.05800441,-0.06192374,-0.01055885,-0.0214
 9429,-0.01773306,0.07916968,0.00036060,-0.00062157,0.00056347,-0.00024
 569,-0.00003303,-0.00001956,0.00321856,0.00969374,-0.00047318,-0.06044
 940,-0.17219095,-0.10943391,0.00445854,0.00540540,0.00664020,0.0623369
 4,0.17383975,-0.00289286,0.00211763,0.00128222,-0.00008505,-0.00034204
 ,-0.00015989,0.00295534,-0.01648767,-0.03507118,-0.05849546,-0.1083271
 6,-0.15357613,-0.00480510,-0.00557306,-0.00480759,0.06085054,0.1208803
 5,0.18238575,0.00195557,-0.00050157,-0.00086949,0.00034905,0.00002590,
 -0.00005513,-0.00100332,-0.01990254,0.01773303,-0.04842129,0.00568662,
 -0.00903891,-0.00160002,0.02888537,-0.00665811,0.00257281,-0.01095135,
 0.00202404,0.04914217,-0.00090420,0.00015986,-0.00033235,0.00025763,0.
 00002141,-0.00037217,-0.00207656,0.00502603,0.00736566,0.00384343,-0.2
 8439422,0.07472348,0.00242177,-0.00556843,0.00226859,0.00127232,-0.016
 48596,0.00536601,-0.00373841,0.30200413,-0.00395518,-0.00010443,0.0002
 6690,-0.00070496,-0.00015649,0.00010330,0.01271172,0.02881125,-0.02474
 006,-0.00524755,0.06994448,-0.07226600,-0.00229290,0.00771458,-0.00158
 329,-0.00012261,-0.01899867,0.00911664,-0.00027611,-0.08789054,0.09010
 582,-0.00285002,0.00016205,0.00006618,-0.00004888,0.00012774,0.0000446
 0,0.00165225,0.00473922,-0.00302055,-0.00707592,0.02043566,0.00045214,
 -0.08781976,0.03220882,-0.01435965,0.00092848,0.00023364,-0.00017426,-
 0.00247554,-0.00007217,-0.00028335,0.53027837,-0.00350017,0.00081779,-
 0.00020343,-0.00011889,0.00008792,0.00001631,0.00597817,-0.00160091,0.
 00064345,0.00483276,-0.00629432,0.00015004,0.04128402,-0.21306793,-0.0
 0177640,-0.00110339,0.00060953,-0.00069092,-0.00032124,0.00026182,-0.0
 0068375,0.03261208,0.49515789,0.00738032,-0.00226148,0.00134205,-0.000
 39867,0.00008320,0.00003852,-0.01013905,-0.00315544,0.00215611,-0.0016
 8549,0.01979607,0.00151501,-0.01806997,0.00630074,-0.07021921,0.001436
 03,0.00066036,0.00093476,-0.00378827,0.00184944,-0.00043659,0.03849153
 ,-0.00312361,0.53037222,-0.00205149,0.00040910,-0.00024317,0.00006162,
 0.00000015,-0.00002182,0.00366418,0.00044821,-0.00071256,-0.00025931,0
 .00071300,0.00022982,-0.00854899,0.00664929,0.00516821,-0.00030750,-0.
 00002867,-0.00018597,-0.00014233,-0.00003386,-0.00012716,-0.15701360,0
 .02076194,0.12151308,0.17304336,0.00528722,-0.00123070,0.00059913,-0.0
 0005042,-0.00011919,0.00006986,-0.00777664,0.00064423,0.00055407,0.000
 17819,-0.00039715,-0.00057111,0.02382787,-0.00829765,-0.02122042,0.000
 14540,0.00017950,0.00043156,0.00013073,0.00004969,0.00015398,0.0278966
 9,-0.04660001,-0.02861479,-0.02944169,0.05276625,-0.00062298,0.0002838
 5,-0.00019687,0.00005229,0.00000633,-0.00000613,0.00052148,0.00009380,
 -0.00006894,0.00004271,-0.00009643,-0.00026197,-0.00075153,-0.00493569
 ,0.00216228,-0.00002868,-0.00010481,-0.00017414,-0.00003108,-0.0000703
 4,-0.00005296,0.11916072,-0.02061404,-0.16604349,-0.13466271,0.0280772
 9,0.18120870,0.00003022,-0.00005995,0.00015647,-0.00005708,-0.00002289
 ,-0.00004537,0.00062720,-0.00039574,0.00019909,0.00089057,0.00310442,-
 0.00187890,-0.00736580,0.00575114,-0.00842488,0.00037293,-0.00002396,0
 .00035675,-0.00086915,0.00025467,0.00015960,-0.08910557,0.02085105,-0.
 09512513,0.00953710,-0.00554916,0.02011001,0.09473661,0.00027031,0.000
 06155,-0.00009332,0.00001865,-0.00010234,0.00003465,-0.00011503,0.0005
 0516,-0.00088770,-0.00184968,-0.00495435,-0.00027856,0.01679723,-0.007
 70879,0.02828769,-0.00009347,0.00009293,0.00016052,0.00144848,-0.00030
 327,0.00043856,0.02168468,-0.06289653,0.05281302,-0.00254179,0.0009912
 3,-0.00365618,-0.02943805,0.06781011,-0.00084795,0.00025086,-0.0001148
 1,0.00007601,0.00005424,-0.00005163,0.00070655,-0.00016793,0.00066811,
 0.00173269,-0.00047454,0.00010761,-0.00061024,0.00115083,0.00199675,0.
 00016852,-0.00008764,0.00004460,-0.00017211,-0.00009342,0.00004519,-0.
 09617998,0.05350342,-0.24724401,-0.00935247,0.00475231,-0.02091849,0.1
 0482835,-0.05850068,0.26843798,0.00047112,-0.00021529,-0.00003384,-0.0
 0004196,0.00001861,0.00004395,-0.00030667,0.00014276,0.00018079,0.0005
 5356,0.00075368,-0.00029304,0.00920657,0.00800935,0.00286523,0.0002577
 2,0.00007657,-0.00001823,0.00009916,-0.00010073,0.00013932,-0.20109819
 ,-0.12785597,-0.04137622,-0.01718343,-0.01325512,-0.00424163,-0.008853
 65,-0.00634751,-0.00076433,0.21784910,0.00261343,-0.00057210,0.0003598
 7,0.00010088,-0.00015379,-0.00001030,-0.00359319,0.00250535,-0.0002356
 4,-0.00171452,0.00066145,-0.00137896,-0.02234673,-0.02333876,-0.008678
 18,0.00072450,0.00018982,0.00087419,-0.00022974,0.00033619,0.00031033,
 -0.12598395,-0.14646713,-0.02722256,0.00366726,0.00323577,0.00159863,0
 .00697567,0.00531777,0.00044485,0.13639742,0.16186602,-0.00063223,0.00
 029324,-0.00020690,0.00013229,-0.00001539,-0.00000310,0.00088605,0.000
 07539,-0.00025683,0.00014366,0.00106024,0.00092554,0.00116335,-0.00305
 763,-0.00186802,-0.00011729,0.00007422,-0.00028665,-0.00008253,-0.0001
 4300,-0.00020901,-0.04135801,-0.02636449,-0.05419102,0.01812260,0.0148
 2734,0.00403265,-0.02098874,-0.01835258,-0.00367949,0.04285942,0.03248
 260,0.05466578,-0.00637963,0.00242284,0.00001660,0.00021839,0.00024090
 ,-0.00035766,0.00081413,-0.00164822,-0.00407617,-0.01195237,-0.0160542
 8,-0.00949673,-0.10548510,-0.02586516,-0.03935060,-0.00170289,0.002223
 37,-0.00009613,0.00001463,0.00040950,-0.00174859,0.01742095,0.00717122
 ,0.00220229,-0.00153656,-0.00081804,0.00059391,-0.00055062,0.00092584,
 -0.00002708,-0.00135051,0.00430207,0.00019768,0.52904427,0.00858017,-0
 .00263407,0.00013372,-0.00007967,-0.00023733,0.00028465,-0.01540233,-0
 .00251588,-0.00373785,-0.00058717,0.01471161,0.00258169,-0.03657975,-0
 .13084949,-0.04069997,0.00365181,-0.00169033,0.00164280,0.00075655,-0.
 00127379,0.00177516,-0.00995344,-0.01911160,-0.01183368,-0.00022150,-0
 .00058870,0.00000233,-0.00118653,0.00045472,-0.00095576,0.00141600,-0.
 00223069,-0.00067632,-0.01111607,0.47181457,0.00731284,-0.00237960,0.0
 0067821,-0.00012615,-0.00001193,0.00024646,-0.00860634,0.00477335,0.00
 316718,-0.01088991,-0.01617704,-0.00815321,-0.05032792,-0.04241341,-0.
 10637112,-0.00296802,0.00055137,-0.00010833,0.00113892,-0.00060139,0.0
 0064311,0.00042458,-0.00084946,0.00236351,0.00015666,0.00058093,-0.000
 02224,-0.00024085,0.00153481,0.00000247,0.00001420,0.00215961,0.000390
 51,-0.01288621,-0.03757488,0.51702528,-0.00138272,0.00045835,-0.000123
 09,0.00005928,0.00000769,-0.00001385,0.00245941,-0.00130674,-0.0010126
 1,-0.00043874,-0.00048638,0.00007982,-0.01748697,-0.01028435,0.0026279
 6,-0.00011316,0.00001362,-0.00014023,-0.00020672,0.00022270,-0.0000207
 8,-0.00041778,0.00026875,0.00001926,0.00023249,-0.00043747,-0.00018920
 ,0.00001858,0.00003900,0.00000699,0.00004921,-0.00030991,-0.00038393,-
 0.21042889,-0.04557647,0.09933333,0.24321977,-0.00418323,0.00121414,-0
 .00027996,0.00009517,0.00012272,-0.00016277,0.00509453,-0.00142982,-0.
 00091879,-0.00076355,-0.00047073,0.00097644,-0.01831104,-0.00393844,0.
 00762150,0.00000074,0.00007619,-0.00019451,-0.00014876,0.00007700,-0.0
 0041796,0.00185603,0.00033239,-0.00068303,-0.00010993,-0.00070301,-0.0
 0024151,-0.00023841,-0.00018861,0.00013958,0.00004729,0.00035400,-0.00
 004228,-0.06221372,-0.06036217,0.03468518,0.04789310,0.07127746,-0.002
 78548,0.00086859,-0.00029955,0.00004292,0.00004442,-0.00010773,0.00348
 319,-0.00123285,-0.00051364,-0.00009075,-0.00002448,-0.00025618,-0.015
 68235,-0.00365084,0.00919311,-0.00006272,0.00017084,-0.00014314,-0.000
 18274,0.00020609,-0.00037721,0.00110548,0.00035715,-0.00017238,0.00001
 875,-0.00030945,0.00011602,0.00014739,-0.00009692,-0.00006362,-0.00006
 388,0.00036748,-0.00009979,0.09319758,0.02585536,-0.09980354,-0.108338
 90,-0.02813572,0.10729757,-0.00036489,0.00011310,0.00013624,-0.0000245
 0,-0.00000130,-0.00004054,0.00142137,-0.00043102,0.00068330,0.00029039
 ,-0.00251953,-0.00253679,-0.00964914,0.00086219,-0.02100278,-0.0008365
 8,0.00022647,-0.00019373,0.00019763,0.00012860,0.00035344,-0.00077749,
 0.00089803,0.00071590,0.00022120,0.00025168,0.00024270,0.00062579,-0.0
 0042663,0.00032093,0.00002464,0.00002493,0.00027405,-0.05712782,0.0188
 4072,-0.04549193,0.00616823,-0.00916636,0.02476685,0.06647897,-0.00008
 702,0.00000541,0.00011067,-0.00001347,0.00005501,-0.00004132,0.0001676
 2,0.00080923,0.00106428,-0.00046151,-0.00356796,-0.00182940,-0.0083490
 2,0.00741258,-0.01925826,-0.00099939,0.00039724,-0.00022283,0.00005709
 ,-0.00002091,-0.00028282,-0.00038100,0.00109286,-0.00119345,-0.0001940
 7,-0.00001165,0.00006526,0.00004157,-0.00009600,0.00018493,0.00001481,
 0.00010327,0.00012936,0.01949656,-0.07371070,0.07222406,0.00042157,-0.
 00081977,0.00979109,-0.02691036,0.09597817,-0.00137030,0.00036588,-0.0
 0010547,0.00004870,0.00007031,-0.00006919,0.00191417,-0.00075291,0.001
 42544,0.00178375,-0.00241945,-0.00172977,-0.00876428,0.00439942,-0.016
 40019,-0.00085244,0.00019142,-0.00012691,0.00016474,0.00000163,0.00009
 234,-0.00087846,0.00089866,0.00027106,0.00016973,0.00012693,0.00017741
 ,0.00050336,-0.00112457,0.00044327,0.00017256,-0.00011279,0.00045125,-
 0.04619660,0.07348795,-0.23959805,-0.00197423,0.00614008,-0.01578331,0
 .05659180,-0.08273615,0.25721883,0.00722216,-0.00224882,0.00070964,0.0
 0005689,-0.00008275,0.00007302,-0.01271562,-0.00710364,-0.00516896,-0.
 00334217,0.00252934,0.00003366,0.00787035,-0.00755668,0.00094596,0.000
 75977,-0.00157101,0.00033475,0.00012654,-0.00176265,0.00111032,-0.0004
 3257,-0.00095494,-0.00098984,0.00041463,-0.00065214,-0.00009306,-0.000
 00254,-0.00066884,0.00025866,0.00017115,-0.00026364,-0.00007227,-0.124
 28040,0.08632733,0.01437181,-0.02169674,0.03728915,0.00587524,-0.00702
 733,0.01907231,-0.00131169,0.56766886,-0.00500273,0.00159789,-0.000084
 28,0.00025682,0.00024822,-0.00040542,0.00456196,-0.00455967,-0.0013086
 2,0.00168975,-0.00147508,0.00303273,0.01533769,-0.04146789,-0.00732601
 ,0.00032070,0.00038892,-0.00045161,-0.00081575,0.00034283,-0.00101588,
 -0.00530927,-0.00219340,-0.00388260,0.00012791,-0.00031826,-0.00046954
 ,-0.00011599,0.00087634,-0.00006598,0.00089754,-0.00181062,-0.00023881
 ,0.03915100,-0.19339278,-0.00262884,0.00558350,-0.00011759,-0.00301180
 ,0.01709094,-0.02706077,0.00120591,0.01094126,0.34698690,-0.00184276,0
 .00071484,0.00022742,0.00011920,-0.00008966,-0.00023719,0.00241033,-0.
 00139497,0.00216233,0.00040637,0.00133166,-0.00378344,0.00853504,-0.02
 142445,0.00002759,0.00029367,-0.00134693,0.00092425,0.00043649,-0.0022
 6616,0.00125848,-0.00367916,-0.00120449,-0.00086172,0.00005408,0.00036
 965,0.00005339,0.00045423,-0.00046295,0.00049519,0.00054516,-0.0010267
 0,0.00030830,0.01390087,-0.01053659,-0.06739074,0.00863303,-0.01621408
 ,0.00092270,-0.01323336,0.02147041,0.01314927,-0.14360385,-0.01254027,
 0.10142215,-0.00457566,0.00141926,-0.00019356,-0.00018723,0.00007490,-
 0.00007884,0.00360634,0.00040301,0.00212104,0.00263768,-0.00079598,-0.
 00264266,0.00228090,-0.00140141,0.00110465,-0.00054499,0.00012176,0.00
 056560,0.00026083,-0.00012206,0.00030478,-0.00116472,-0.00080341,-0.00
 018576,-0.00013140,0.00026291,-0.00010294,-0.00003458,0.00029681,-0.00
 014453,0.00015218,-0.00036449,-0.00014412,-0.02671757,0.00113036,0.008
 78498,-0.00003526,0.00285898,-0.00143058,0.00037954,-0.00187569,-0.000
 00082,-0.41479299,-0.08471533,0.12657065,0.43886691,-0.00284297,0.0008
 7631,-0.00031007,-0.00030507,-0.00023703,0.00022522,0.00460788,0.00147
 455,0.00397329,0.00212482,-0.00031165,-0.00505332,0.00153633,-0.000043
 35,-0.00076312,-0.00043011,0.00014881,0.00081672,-0.00038137,-0.000232
 40,0.00040218,-0.00025678,-0.00012838,0.00046779,-0.00020534,0.0003996
 4,0.00006104,0.00005217,0.00014008,-0.00013508,0.00000059,0.00000346,-
 0.00005190,0.04137218,0.00161661,-0.01387276,0.00349303,-0.00542376,-0
 .00119896,0.00101853,-0.00056603,0.00025766,-0.13329427,-0.07804505,0.
 04462068,0.08351037,0.08032820,-0.00100107,0.00020500,-0.00075102,-0.0
 0004365,0.00022314,0.00033259,0.00206941,0.00275929,-0.00081776,0.0001
 9337,-0.00387193,-0.00205146,0.00213269,0.00134254,0.00082893,0.000135
 87,0.00073246,-0.00023428,-0.00034276,-0.00001155,-0.00196666,0.000188
 19,-0.00005845,0.00017518,-0.00012708,0.00017270,-0.00000525,-0.000211
 39,0.00018420,-0.00016911,-0.00002947,0.00006758,0.00002678,0.00412682
 ,0.00025138,-0.00306952,0.00149640,-0.00227217,0.00009069,-0.00158607,
 0.00052419,0.00058404,0.12752662,0.02919102,-0.04867798,-0.13452788,-0
 .02943940,0.05570483\\-0.00000233,-0.00000479,-0.00000350,-0.00000017,
 -0.00000463,-0.00000136,0.00000193,-0.00000181,-0.00000046,0.00000008,
 -0.00000325,-0.00000106,0.00000076,-0.00000006,0.00000149,0.00000175,-
 0.00000616,0.00000034,-0.00000140,-0.00000481,-0.00000357,0.00000136,0
 .00000086,0.00000629,0.00000438,0.00000047,0.00000448,0.00000299,0.000
 00456,0.00000503,0.00000462,-0.00000024,0.00000544,-0.00000225,0.00000
 428,-0.00000157,-0.00000210,0.00000403,-0.00000146,-0.00000171,0.00000
 688,-0.00000022,-0.00000380,0.00000266,-0.00000494,-0.00000410,0.00000
 201,-0.00000493\\\@


 ORIGINALITY CONSISTS NOT IN SAYING WHAT NO ONE HAS EVER SAID BEFORE, 
 BUT IN SAYING WHAT YOU THINK YOUR SELF.

                                    -- JAMES F. STEPHEN
 Job cpu time:  0 days  1 hours  8 minutes 41.9 seconds.
 File lengths (MBytes):  RWF=    125 Int=      0 D2E=      0 Chk=      8 Scr=      1
 Normal termination of Gaussian 03 at Tue Jun 18 11:20:19 2013.
